                         Program Version 4.1.2  - RELEASE  -
|  1> #Run DFT-D3 single point of the dimer
|  2> ! wB97X-D3 def2-TZVP TIGHTSCF CHELPG PMODEL PAL8
|  3>
|  4> %base "22-168_DFT_AB"
|  5>
|  6> %scf
|  7> MaxIter 1000
|  8> end
|  9>
| 10> * xyz 0 1
| 11>   C                      -5.583380            10.547708            -4.794975
| 12>   O                      -4.322914            10.563281            -5.290126
| 13>   H                      -4.382848            10.627977            -6.245043
| 14>   H                      -5.522878            10.291070            -3.754556
| 15>   H                      -5.904439            11.575678            -4.861461
| 16>   H                      -6.284927            9.842735             -5.113026
| 17>   C                      -8.142469            10.884034            -8.858114
| 18>   O                      -7.232965            11.107994            -7.759848
| 19>   H                      -6.892286            10.269751            -7.515333
| 20>   H                      -9.143728            11.358740            -8.624990
| 21>   H                      -7.690766            11.232019            -9.853560
| 22>   H                      -8.381424            9.827021             -9.023874
| 23> *
| 24>
| 25> #Run DFT-D3 single point of the molecule with dimer basis set
| 26> $new_job
| 27> %base "22-168_DFT_A"
| 28> ! wB97X-D3 def2-TZVP TIGHTSCF CHELPG PMODEL
| 29>
| 30> %scf
| 31> MaxIter 1000
| 32> end
| 33>
| 34> * xyz 0 1
| 35>   C                      -5.583380            10.547708            -4.794975
| 36>   O                      -4.322914            10.563281            -5.290126
| 37>   H                      -4.382848            10.627977            -6.245043
| 38>   H                      -5.522878            10.291070            -3.754556
| 39>   H                      -5.904439            11.575678            -4.861461
| 40>   H                      -6.284927            9.842735             -5.113026
| 41>   C                    : -8.142469            10.884034            -8.858114
| 42>   O                    : -7.232965            11.107994            -7.759848
| 43>   H                    : -6.892286            10.269751            -7.515333
| 44>   H                    : -9.143728            11.358740            -8.624990
| 45>   H                    : -7.690766            11.232019            -9.853560
| 46>   H                    : -8.381424            9.827021             -9.023874
| 47> *
| 48>
| 49> #Run DFT-D3 single point of the particle with dimer basis set
| 50> $new_job
| 51> %base "22-168_DFT_B"
| 52> ! wB97X-D3 def2-TZVP TIGHTSCF CHELPG PMODEL
| 53>
| 54> %scf
| 55> MaxIter 1000
| 56> end
| 57>
| 58> * xyz 0 1
| 59>   C                    : -5.583380            10.547708            -4.794975
| 60>   O                    : -4.322914            10.563281            -5.290126
| 61>   H                    : -4.382848            10.627977            -6.245043
| 62>   H                    : -5.522878            10.291070            -3.754556
| 63>   H                    : -5.904439            11.575678            -4.861461
| 64>   H                    : -6.284927            9.842735             -5.113026
| 65>   C                      -8.142469            10.884034            -8.858114
| 66>   O                      -7.232965            11.107994            -7.759848
| 67>   H                      -6.892286            10.269751            -7.515333
| 68>   H                      -9.143728            11.358740            -8.624990
| 69>   H                      -7.690766            11.232019            -9.853560
| 70>   H                      -8.381424            9.827021             -9.023874
| 71> *
| 72>
| 73>                          ****END OF INPUT****
 Total Charge           Charge          ....    0
 Multiplicity           Mult            ....    1
 Number of Electrons    NEL             ....   36
Dispersion correction           -0.001599309
FINAL SINGLE POINT ENERGY      -231.458407216945
Dispersion correction           -0.000208296
FINAL SINGLE POINT ENERGY      -115.726054806908

CARTESIAN COORDINATES (ANGSTROEM)
---------------------------------
  C     -5.583380   10.547708   -4.794975
  O     -4.322914   10.563281   -5.290126
  H     -4.382848   10.627977   -6.245043
  H     -5.522878   10.291070   -3.754556
  H     -5.904439   11.575678   -4.861461
  H     -6.284927    9.842735   -5.113026
  C     -8.142469   10.884034   -8.858114
  O     -7.232965   11.107994   -7.759848
  H     -6.892286   10.269751   -7.515333
  H     -9.143728   11.358740   -8.624990
  H     -7.690766   11.232019   -9.853560
  H     -8.381424    9.827021   -9.023874

 Multiplicity           Mult            ....    1
 Number of Electrons    NEL             ....   18
 Basis Dimension        Dim             ....  172

ORBITAL ENERGIES
----------------

  NO   OCC          E(Eh)            E(eV)
   0   2.0000     -19.231641      -523.3195
   1   2.0000     -10.326635      -281.0020
   2   2.0000      -1.134777       -30.8789
   3   2.0000      -0.791928       -21.5494
   4   2.0000      -0.611856       -16.6494
   5   2.0000      -0.536453       -14.5976
   6   2.0000      -0.514909       -14.0114
   7   2.0000      -0.436724       -11.8839
   8   2.0000      -0.377595       -10.2749
   9   0.0000       0.085541         2.3277
  10   0.0000       0.125933         3.4268
  11   0.0000       0.153649         4.1810
  12   0.0000       0.173006         4.7077
  13   0.0000       0.185334         5.0432

MULLIKEN ATOMIC CHARGES
-----------------------
   0 C :    0.001911
   1 O :    0.000205
   2 H :   -0.002042
   3 H :   -0.000303
   4 H :   -0.001340
   5 H :   -0.004423
   6 C :   -0.184812
   7 O :   -0.459146
   8 H :    0.315354
   9 H :    0.117542
  10 H :    0.106996
  11 H :    0.110055
Sum of atomic charges:   -0.0000000

LOEWDIN ATOMIC CHARGES
----------------------
   0 C :   -0.005956
   1 O :   -0.000107
   2 H :   -0.001647
   3 H :   -0.000038
   4 H :   -0.001412
   5 H :   -0.002576
   6 C :   -0.376143
   7 O :   -0.080428
   8 H :    0.154550
   9 H :    0.110738
  10 H :    0.107773
  11 H :    0.095247

  Mayer bond orders larger than 0.1
B(  6-C ,  7-O ) :   1.0067 B(  6-C ,  9-H ) :   0.9722 B(  6-C , 10-H ) :   0.9693
B(  6-C , 11-H ) :   0.9790 B(  7-O ,  8-H ) :   0.9016

Dispersion correction           -0.000275272
FINAL SINGLE POINT ENERGY      -115.731482130141

DIPOLE MOMENT
-------------
                                X             Y             Z
Electronic contribution:      1.15610       0.43746       1.43041
Nuclear contribution   :     -1.31906      -1.11356      -1.70986
                        -----------------------------------------
Total Dipole Moment    :     -0.16296      -0.67609      -0.27945
                        -----------------------------------------
Magnitude (a.u.)       :      0.74950
Magnitude (Debye)      :      1.90508

Rotational constants in cm-1:     4.152106     0.790362     0.775091
Rotational constants in MHz : 124477.011899 23694.448242 23236.653816

                             ****ORCA TERMINATED NORMALLY****
TOTAL RUN TIME: 0 days 0 hours 1 minutes 2 seconds 430 msec
