                         Program Version 4.1.2  - RELEASE  -
|  1> #Run DFT-D3 single point of the dimer
|  2> ! wB97X-D3 def2-TZVP TIGHTSCF CHELPG PMODEL PAL8
|  3>
|  4> %base "10-192_DFT_AB"
|  5>
|  6> %scf
|  7> MaxIter 1000
|  8> end
|  9>
| 10> * xyz 0 1
| 11>   C                      -3.238889            4.918494             7.898113
| 12>   O                      -4.165077            3.808282             7.721132
| 13>   H                      -4.247115            3.385438             8.589834
| 14>   H                      -3.174638            5.307419             8.953087
| 15>   H                      -2.318098            4.611922             7.595619
| 16>   H                      -3.522041            5.704634             7.272271
| 17>   C                      -3.872528            2.001226             10.864595
| 18>   O                      -3.736998            1.696973             9.499086
| 19>   H                      -3.554987            0.750151             9.587223
| 20>   H                      -4.390555            1.165372             11.388547
| 21>   H                      -3.011502            2.207887             11.433390
| 22>   H                      -4.542137            2.906519             11.106688
| 23> *
| 24>
| 25> #Run DFT-D3 single point of the molecule with dimer basis set
| 26> $new_job
| 27> %base "10-192_DFT_A"
| 28> ! wB97X-D3 def2-TZVP TIGHTSCF CHELPG PMODEL
| 29>
| 30> %scf
| 31> MaxIter 1000
| 32> end
| 33>
| 34> * xyz 0 1
| 35>   C                      -3.238889            4.918494             7.898113
| 36>   O                      -4.165077            3.808282             7.721132
| 37>   H                      -4.247115            3.385438             8.589834
| 38>   H                      -3.174638            5.307419             8.953087
| 39>   H                      -2.318098            4.611922             7.595619
| 40>   H                      -3.522041            5.704634             7.272271
| 41>   C                    : -3.872528            2.001226             10.864595
| 42>   O                    : -3.736998            1.696973             9.499086
| 43>   H                    : -3.554987            0.750151             9.587223
| 44>   H                    : -4.390555            1.165372             11.388547
| 45>   H                    : -3.011502            2.207887             11.433390
| 46>   H                    : -4.542137            2.906519             11.106688
| 47> *
| 48>
| 49> #Run DFT-D3 single point of the particle with dimer basis set
| 50> $new_job
| 51> %base "10-192_DFT_B"
| 52> ! wB97X-D3 def2-TZVP TIGHTSCF CHELPG PMODEL
| 53>
| 54> %scf
| 55> MaxIter 1000
| 56> end
| 57>
| 58> * xyz 0 1
| 59>   C                    : -3.238889            4.918494             7.898113
| 60>   O                    : -4.165077            3.808282             7.721132
| 61>   H                    : -4.247115            3.385438             8.589834
| 62>   H                    : -3.174638            5.307419             8.953087
| 63>   H                    : -2.318098            4.611922             7.595619
| 64>   H                    : -3.522041            5.704634             7.272271
| 65>   C                      -3.872528            2.001226             10.864595
| 66>   O                      -3.736998            1.696973             9.499086
| 67>   H                      -3.554987            0.750151             9.587223
| 68>   H                      -4.390555            1.165372             11.388547
| 69>   H                      -3.011502            2.207887             11.433390
| 70>   H                      -4.542137            2.906519             11.106688
| 71> *
| 72>
| 73>                          ****END OF INPUT****
 Total Charge           Charge          ....    0
 Multiplicity           Mult            ....    1
 Number of Electrons    NEL             ....   36
Dispersion correction           -0.001751863
FINAL SINGLE POINT ENERGY      -231.457442041772
Dispersion correction           -0.000248258
FINAL SINGLE POINT ENERGY      -115.729181133700

CARTESIAN COORDINATES (ANGSTROEM)
---------------------------------
  C     -3.238889    4.918494    7.898113
  O     -4.165077    3.808282    7.721132
  H     -4.247115    3.385438    8.589834
  H     -3.174638    5.307419    8.953087
  H     -2.318098    4.611922    7.595619
  H     -3.522041    5.704634    7.272271
  C     -3.872528    2.001226   10.864595
  O     -3.736998    1.696973    9.499086
  H     -3.554987    0.750151    9.587223
  H     -4.390555    1.165372   11.388547
  H     -3.011502    2.207887   11.433390
  H     -4.542137    2.906519   11.106688

 Multiplicity           Mult            ....    1
 Number of Electrons    NEL             ....   18
 Basis Dimension        Dim             ....  172

ORBITAL ENERGIES
----------------

  NO   OCC          E(Eh)            E(eV)
   0   2.0000     -19.240294      -523.5550
   1   2.0000     -10.317114      -280.7429
   2   2.0000      -1.148016       -31.2391
   3   2.0000      -0.791658       -21.5421
   4   2.0000      -0.613916       -16.7055
   5   2.0000      -0.546432       -14.8692
   6   2.0000      -0.526700       -14.3322
   7   2.0000      -0.435014       -11.8373
   8   2.0000      -0.378801       -10.3077
   9   0.0000       0.096463         2.6249
  10   0.0000       0.121859         3.3160
  11   0.0000       0.147415         4.0114
  12   0.0000       0.184736         5.0269
  13   0.0000       0.204381         5.5615

MULLIKEN ATOMIC CHARGES
-----------------------
   0 C :   -0.001383
   1 O :    0.003525
   2 H :   -0.009206
   3 H :    0.000127
   4 H :   -0.000625
   5 H :   -0.000163
   6 C :   -0.199769
   7 O :   -0.438208
   8 H :    0.315387
   9 H :    0.103774
  10 H :    0.111846
  11 H :    0.114696
Sum of atomic charges:    0.0000000

LOEWDIN ATOMIC CHARGES
----------------------
   0 C :   -0.002435
   1 O :   -0.007289
   2 H :   -0.029142
   3 H :   -0.000150
   4 H :   -0.000278
   5 H :   -0.000057
   6 C :   -0.408508
   7 O :   -0.037025
   8 H :    0.183309
   9 H :    0.100224
  10 H :    0.084091
  11 H :    0.117261

  Mayer bond orders larger than 0.1
B(  6-C ,  7-O ) :   1.0009 B(  6-C ,  9-H ) :   0.9868 B(  6-C , 10-H ) :   0.9630
B(  6-C , 11-H ) :   0.9782 B(  7-O ,  8-H ) :   0.8991

Dispersion correction           -0.000239851
FINAL SINGLE POINT ENERGY      -115.726508218304

DIPOLE MOMENT
-------------
                                X             Y             Z
Electronic contribution:      0.32784      -0.24939      -2.02680
Nuclear contribution   :     -0.26038      -0.23129       2.59565
                        -----------------------------------------
Total Dipole Moment    :      0.06746      -0.48068       0.56885
                        -----------------------------------------
Magnitude (a.u.)       :      0.74779
Magnitude (Debye)      :      1.90074

Rotational constants in cm-1:     4.333807     0.834951     0.797746
Rotational constants in MHz : 129924.274066 25031.215919 23915.838350

                             ****ORCA TERMINATED NORMALLY****
TOTAL RUN TIME: 0 days 0 hours 1 minutes 8 seconds 422 msec
