                         Program Version 4.1.2  - RELEASE  -
|  1> #Run DFT-D3 single point of the dimer
|  2> ! wB97X-D3 def2-TZVP TIGHTSCF CHELPG PMODEL PAL8
|  3>
|  4> %base "22-104_DFT_AB"
|  5>
|  6> %scf
|  7> MaxIter 1000
|  8> end
|  9>
| 10> * xyz 0 1
| 11>   C                      5.079205             10.088721            1.155748
| 12>   O                      4.727494             10.801788            -0.003881
| 13>   H                      5.357990             11.570185            -0.053049
| 14>   H                      4.991311             9.059950             0.974332
| 15>   H                      6.151954             10.261616            1.523012
| 16>   H                      4.377701             10.170308            2.005355
| 17>   C                      1.095944             8.166273             0.776603
| 18>   O                      0.517582             8.047650             -0.461068
| 19>   H                      0.706959             8.852177             -0.975110
| 20>   H                      0.550971             9.003790             1.328476
| 21>   H                      1.245504             7.247085             1.380575
| 22>   H                      2.087410             8.582038             0.714807
| 23> *
| 24>
| 25> #Run DFT-D3 single point of the molecule with dimer basis set
| 26> $new_job
| 27> %base "22-104_DFT_A"
| 28> ! wB97X-D3 def2-TZVP TIGHTSCF CHELPG PMODEL
| 29>
| 30> %scf
| 31> MaxIter 1000
| 32> end
| 33>
| 34> * xyz 0 1
| 35>   C                      5.079205             10.088721            1.155748
| 36>   O                      4.727494             10.801788            -0.003881
| 37>   H                      5.357990             11.570185            -0.053049
| 38>   H                      4.991311             9.059950             0.974332
| 39>   H                      6.151954             10.261616            1.523012
| 40>   H                      4.377701             10.170308            2.005355
| 41>   C                    : 1.095944             8.166273             0.776603
| 42>   O                    : 0.517582             8.047650             -0.461068
| 43>   H                    : 0.706959             8.852177             -0.975110
| 44>   H                    : 0.550971             9.003790             1.328476
| 45>   H                    : 1.245504             7.247085             1.380575
| 46>   H                    : 2.087410             8.582038             0.714807
| 47> *
| 48>
| 49> #Run DFT-D3 single point of the particle with dimer basis set
| 50> $new_job
| 51> %base "22-104_DFT_B"
| 52> ! wB97X-D3 def2-TZVP TIGHTSCF CHELPG PMODEL
| 53>
| 54> %scf
| 55> MaxIter 1000
| 56> end
| 57>
| 58> * xyz 0 1
| 59>   C                    : 5.079205             10.088721            1.155748
| 60>   O                    : 4.727494             10.801788            -0.003881
| 61>   H                    : 5.357990             11.570185            -0.053049
| 62>   H                    : 4.991311             9.059950             0.974332
| 63>   H                    : 6.151954             10.261616            1.523012
| 64>   H                    : 4.377701             10.170308            2.005355
| 65>   C                      1.095944             8.166273             0.776603
| 66>   O                      0.517582             8.047650             -0.461068
| 67>   H                      0.706959             8.852177             -0.975110
| 68>   H                      0.550971             9.003790             1.328476
| 69>   H                      1.245504             7.247085             1.380575
| 70>   H                      2.087410             8.582038             0.714807
| 71> *
| 72>
| 73>                          ****END OF INPUT****
 Total Charge           Charge          ....    0
 Multiplicity           Mult            ....    1
 Number of Electrons    NEL             ....   36
Dispersion correction           -0.001202310
FINAL SINGLE POINT ENERGY      -231.457530254887
Dispersion correction           -0.000265139
FINAL SINGLE POINT ENERGY      -115.728593476608

CARTESIAN COORDINATES (ANGSTROEM)
---------------------------------
  C      5.079205   10.088721    1.155748
  O      4.727494   10.801788   -0.003881
  H      5.357990   11.570185   -0.053049
  H      4.991311    9.059950    0.974332
  H      6.151954   10.261616    1.523012
  H      4.377701   10.170308    2.005355
  C      1.095944    8.166273    0.776603
  O      0.517582    8.047650   -0.461068
  H      0.706959    8.852177   -0.975110
  H      0.550971    9.003790    1.328476
  H      1.245504    7.247085    1.380575
  H      2.087410    8.582038    0.714807

 Multiplicity           Mult            ....    1
 Number of Electrons    NEL             ....   18
 Basis Dimension        Dim             ....  172

ORBITAL ENERGIES
----------------

  NO   OCC          E(Eh)            E(eV)
   0   2.0000     -19.231638      -523.3195
   1   2.0000     -10.314684      -280.6768
   2   2.0000      -1.148360       -31.2485
   3   2.0000      -0.790429       -21.5087
   4   2.0000      -0.621657       -16.9162
   5   2.0000      -0.546889       -14.8816
   6   2.0000      -0.527904       -14.3650
   7   2.0000      -0.429226       -11.6798
   8   2.0000      -0.365098        -9.9348
   9   0.0000       0.080322         2.1857
  10   0.0000       0.114527         3.1164
  11   0.0000       0.144748         3.9388
  12   0.0000       0.169714         4.6182
  13   0.0000       0.183407         4.9908

MULLIKEN ATOMIC CHARGES
-----------------------
   0 C :    0.001426
   1 O :   -0.000118
   2 H :   -0.000009
   3 H :   -0.000868
   4 H :   -0.000029
   5 H :   -0.000716
   6 C :   -0.167071
   7 O :   -0.467864
   8 H :    0.323152
   9 H :    0.091477
  10 H :    0.124286
  11 H :    0.096333
Sum of atomic charges:   -0.0000000

LOEWDIN ATOMIC CHARGES
----------------------
   0 C :   -0.002890
   1 O :   -0.000092
   2 H :   -0.000011
   3 H :   -0.001088
   4 H :   -0.000031
   5 H :   -0.000660
   6 C :   -0.429003
   7 O :   -0.053244
   8 H :    0.184153
   9 H :    0.100498
  10 H :    0.112644
  11 H :    0.089723

  Mayer bond orders larger than 0.1
B(  6-C ,  7-O ) :   0.9958 B(  6-C ,  9-H ) :   0.9848 B(  6-C , 10-H ) :   0.9638
B(  6-C , 11-H ) :   0.9821 B(  7-O ,  8-H ) :   0.8894

Dispersion correction           -0.000223215
FINAL SINGLE POINT ENERGY      -115.727486448269

DIPOLE MOMENT
-------------
                                X             Y             Z
Electronic contribution:     -0.86845      -0.51154      -1.66362
Nuclear contribution   :      1.24916       1.05744       1.77090
                        -----------------------------------------
Total Dipole Moment    :      0.38071       0.54591       0.10728
                        -----------------------------------------
Magnitude (a.u.)       :      0.67414
Magnitude (Debye)      :      1.71352

Rotational constants in cm-1:     4.282473     0.866295     0.827653
Rotational constants in MHz : 128385.302173 25970.884971 24812.398838

                             ****ORCA TERMINATED NORMALLY****
TOTAL RUN TIME: 0 days 0 hours 0 minutes 59 seconds 693 msec
