                         Program Version 4.1.2  - RELEASE  -
|  1> #Run DFT-D3 single point of the dimer
|  2> ! wB97X-D3 def2-TZVP TIGHTSCF CHELPG PMODEL PAL8
|  3>
|  4> %base "10-106_DFT_AB"
|  5>
|  6> %scf
|  7> MaxIter 1000
|  8> end
|  9>
| 10> * xyz 0 1
| 11>   C                      5.369477             -6.342536            -0.441178
| 12>   O                      5.334754             -5.019816            0.209316
| 13>   H                      4.689948             -4.385982            -0.258636
| 14>   H                      5.435570             -7.157379            0.285672
| 15>   H                      4.490291             -6.557346            -0.960870
| 16>   H                      6.075459             -6.414477            -1.304671
| 17>   C                      2.675618             -6.203368            1.633675
| 18>   O                      2.444537             -7.647593            1.736509
| 19>   H                      2.723204             -7.991222            2.578155
| 20>   H                      3.587809             -5.803961            2.130303
| 21>   H                      2.623426             -5.896592            0.648112
| 22>   H                      1.901644             -5.689782            2.197919
| 23> *
| 24>
| 25> #Run DFT-D3 single point of the molecule with dimer basis set
| 26> $new_job
| 27> %base "10-106_DFT_A"
| 28> ! wB97X-D3 def2-TZVP TIGHTSCF CHELPG PMODEL
| 29>
| 30> %scf
| 31> MaxIter 1000
| 32> end
| 33>
| 34> * xyz 0 1
| 35>   C                      5.369477             -6.342536            -0.441178
| 36>   O                      5.334754             -5.019816            0.209316
| 37>   H                      4.689948             -4.385982            -0.258636
| 38>   H                      5.435570             -7.157379            0.285672
| 39>   H                      4.490291             -6.557346            -0.960870
| 40>   H                      6.075459             -6.414477            -1.304671
| 41>   C                    : 2.675618             -6.203368            1.633675
| 42>   O                    : 2.444537             -7.647593            1.736509
| 43>   H                    : 2.723204             -7.991222            2.578155
| 44>   H                    : 3.587809             -5.803961            2.130303
| 45>   H                    : 2.623426             -5.896592            0.648112
| 46>   H                    : 1.901644             -5.689782            2.197919
| 47> *
| 48>
| 49> #Run DFT-D3 single point of the particle with dimer basis set
| 50> $new_job
| 51> %base "10-106_DFT_B"
| 52> ! wB97X-D3 def2-TZVP TIGHTSCF CHELPG PMODEL
| 53>
| 54> %scf
| 55> MaxIter 1000
| 56> end
| 57>
| 58> * xyz 0 1
| 59>   C                    : 5.369477             -6.342536            -0.441178
| 60>   O                    : 5.334754             -5.019816            0.209316
| 61>   H                    : 4.689948             -4.385982            -0.258636
| 62>   H                    : 5.435570             -7.157379            0.285672
| 63>   H                    : 4.490291             -6.557346            -0.960870
| 64>   H                    : 6.075459             -6.414477            -1.304671
| 65>   C                      2.675618             -6.203368            1.633675
| 66>   O                      2.444537             -7.647593            1.736509
| 67>   H                      2.723204             -7.991222            2.578155
| 68>   H                      3.587809             -5.803961            2.130303
| 69>   H                      2.623426             -5.896592            0.648112
| 70>   H                      1.901644             -5.689782            2.197919
| 71> *
| 72>
| 73>                          ****END OF INPUT****
 Total Charge           Charge          ....    0
 Multiplicity           Mult            ....    1
 Number of Electrons    NEL             ....   36
Dispersion correction           -0.002396433
FINAL SINGLE POINT ENERGY      -231.454628895534
Dispersion correction           -0.000291350
FINAL SINGLE POINT ENERGY      -115.723083644116

CARTESIAN COORDINATES (ANGSTROEM)
---------------------------------
  C      5.369477   -6.342536   -0.441178
  O      5.334754   -5.019816    0.209316
  H      4.689948   -4.385982   -0.258636
  H      5.435570   -7.157379    0.285672
  H      4.490291   -6.557346   -0.960870
  H      6.075459   -6.414477   -1.304671
  C      2.675618   -6.203368    1.633675
  O      2.444537   -7.647593    1.736509
  H      2.723204   -7.991222    2.578155
  H      3.587809   -5.803961    2.130303
  H      2.623426   -5.896592    0.648112
  H      1.901644   -5.689782    2.197919

 Multiplicity           Mult            ....    1
 Number of Electrons    NEL             ....   18
 Basis Dimension        Dim             ....  172

ORBITAL ENERGIES
----------------

  NO   OCC          E(Eh)            E(eV)
   0   2.0000     -19.228749      -523.2409
   1   2.0000     -10.313306      -280.6393
   2   2.0000      -1.120506       -30.4905
   3   2.0000      -0.805911       -21.9300
   4   2.0000      -0.607163       -16.5218
   5   2.0000      -0.537105       -14.6154
   6   2.0000      -0.521107       -14.1800
   7   2.0000      -0.440101       -11.9758
   8   2.0000      -0.372374       -10.1328
   9   0.0000       0.088577         2.4103
  10   0.0000       0.119284         3.2459
  11   0.0000       0.147670         4.0183
  12   0.0000       0.181382         4.9357
  13   0.0000       0.184735         5.0269

MULLIKEN ATOMIC CHARGES
-----------------------
   0 C :    0.004056
   1 O :   -0.002659
   2 H :   -0.000637
   3 H :   -0.002361
   4 H :   -0.000269
   5 H :    0.000236
   6 C :   -0.172774
   7 O :   -0.489180
   8 H :    0.313702
   9 H :    0.106574
  10 H :    0.130824
  11 H :    0.112488
Sum of atomic charges:   -0.0000000

LOEWDIN ATOMIC CHARGES
----------------------
   0 C :   -0.009209
   1 O :   -0.004564
   2 H :   -0.001860
   3 H :   -0.001818
   4 H :   -0.001776
   5 H :   -0.000040
   6 C :   -0.331936
   7 O :   -0.105235
   8 H :    0.157387
   9 H :    0.104616
  10 H :    0.097088
  11 H :    0.097348

  Mayer bond orders larger than 0.1
B(  6-C ,  7-O ) :   0.9924 B(  6-C ,  9-H ) :   0.9741 B(  6-C , 10-H ) :   0.9750
B(  6-C , 11-H ) :   0.9754 B(  7-O ,  8-H ) :   0.9002

Dispersion correction           -0.000275861
FINAL SINGLE POINT ENERGY      -115.729836993151

DIPOLE MOMENT
-------------
                                X             Y             Z
Electronic contribution:     -0.27407      -1.81625      -0.13806
Nuclear contribution   :      0.54080       2.22983       0.64395
                        -----------------------------------------
Total Dipole Moment    :      0.26673       0.41358       0.50589
                        -----------------------------------------
Magnitude (a.u.)       :      0.70577
Magnitude (Debye)      :      1.79393

Rotational constants in cm-1:     4.516177     0.780199     0.749518
Rotational constants in MHz : 135391.592909 23389.781830 22469.987316

                             ****ORCA TERMINATED NORMALLY****
TOTAL RUN TIME: 0 days 0 hours 1 minutes 4 seconds 746 msec
