                         Program Version 4.1.2  - RELEASE  -
|  1> #Run DFT-D3 single point of the dimer
|  2> ! wB97X-D3 def2-TZVP TIGHTSCF CHELPG PMODEL PAL8
|  3>
|  4> %base "9-62_DFT_AB"
|  5>
|  6> %scf
|  7> MaxIter 1000
|  8> end
|  9>
| 10> * xyz 0 1
| 11>   C                      8.125646             0.140868             0.205538
| 12>   O                      9.020085             0.985751             0.913121
| 13>   H                      8.829592             1.132982             1.835882
| 14>   H                      7.075105             0.521568             0.141395
| 15>   H                      8.639908             -0.057721            -0.755773
| 16>   H                      8.148752             -0.882839            0.640323
| 17>   C                      6.643819             -5.073961            2.193083
| 18>   O                      6.713602             -3.959975            1.388510
| 19>   H                      7.603339             -3.876061            1.129665
| 20>   H                      5.676125             -5.296266            2.692927
| 21>   H                      7.024868             -5.958597            1.775256
| 22>   H                      7.375252             -4.882919            3.008673
| 23> *
| 24>
| 25> #Run DFT-D3 single point of the molecule with dimer basis set
| 26> $new_job
| 27> %base "9-62_DFT_A"
| 28> ! wB97X-D3 def2-TZVP TIGHTSCF CHELPG PMODEL
| 29>
| 30> %scf
| 31> MaxIter 1000
| 32> end
| 33>
| 34> * xyz 0 1
| 35>   C                      8.125646             0.140868             0.205538
| 36>   O                      9.020085             0.985751             0.913121
| 37>   H                      8.829592             1.132982             1.835882
| 38>   H                      7.075105             0.521568             0.141395
| 39>   H                      8.639908             -0.057721            -0.755773
| 40>   H                      8.148752             -0.882839            0.640323
| 41>   C                    : 6.643819             -5.073961            2.193083
| 42>   O                    : 6.713602             -3.959975            1.388510
| 43>   H                    : 7.603339             -3.876061            1.129665
| 44>   H                    : 5.676125             -5.296266            2.692927
| 45>   H                    : 7.024868             -5.958597            1.775256
| 46>   H                    : 7.375252             -4.882919            3.008673
| 47> *
| 48>
| 49> #Run DFT-D3 single point of the particle with dimer basis set
| 50> $new_job
| 51> %base "9-62_DFT_B"
| 52> ! wB97X-D3 def2-TZVP TIGHTSCF CHELPG PMODEL
| 53>
| 54> %scf
| 55> MaxIter 1000
| 56> end
| 57>
| 58> * xyz 0 1
| 59>   C                    : 8.125646             0.140868             0.205538
| 60>   O                    : 9.020085             0.985751             0.913121
| 61>   H                    : 8.829592             1.132982             1.835882
| 62>   H                    : 7.075105             0.521568             0.141395
| 63>   H                    : 8.639908             -0.057721            -0.755773
| 64>   H                    : 8.148752             -0.882839            0.640323
| 65>   C                      6.643819             -5.073961            2.193083
| 66>   O                      6.713602             -3.959975            1.388510
| 67>   H                      7.603339             -3.876061            1.129665
| 68>   H                      5.676125             -5.296266            2.692927
| 69>   H                      7.024868             -5.958597            1.775256
| 70>   H                      7.375252             -4.882919            3.008673
| 71> *
| 72>
| 73>                          ****END OF INPUT****
 Total Charge           Charge          ....    0
 Multiplicity           Mult            ....    1
 Number of Electrons    NEL             ....   36
Dispersion correction           -0.000852598
FINAL SINGLE POINT ENERGY      -231.459478701182
Dispersion correction           -0.000272531
FINAL SINGLE POINT ENERGY      -115.731692074449

CARTESIAN COORDINATES (ANGSTROEM)
---------------------------------
  C      8.125646    0.140868    0.205538
  O      9.020085    0.985751    0.913121
  H      8.829592    1.132982    1.835882
  H      7.075105    0.521568    0.141395
  H      8.639908   -0.057721   -0.755773
  H      8.148752   -0.882839    0.640323
  C      6.643819   -5.073961    2.193083
  O      6.713602   -3.959975    1.388510
  H      7.603339   -3.876061    1.129665
  H      5.676125   -5.296266    2.692927
  H      7.024868   -5.958597    1.775256
  H      7.375252   -4.882919    3.008673

 Multiplicity           Mult            ....    1
 Number of Electrons    NEL             ....   18
 Basis Dimension        Dim             ....  172

ORBITAL ENERGIES
----------------

  NO   OCC          E(Eh)            E(eV)
   0   2.0000     -19.228660      -523.2384
   1   2.0000     -10.309626      -280.5392
   2   2.0000      -1.156770       -31.4773
   3   2.0000      -0.797999       -21.7147
   4   2.0000      -0.627050       -17.0629
   5   2.0000      -0.542145       -14.7525
   6   2.0000      -0.538694       -14.6586
   7   2.0000      -0.435302       -11.8452
   8   2.0000      -0.367616       -10.0033
   9   0.0000       0.087005         2.3675
  10   0.0000       0.118510         3.2248
  11   0.0000       0.152303         4.1444
  12   0.0000       0.169713         4.6181
  13   0.0000       0.200266         5.4495

MULLIKEN ATOMIC CHARGES
-----------------------
   0 C :    0.001600
   1 O :   -0.000013
   2 H :   -0.000011
   3 H :   -0.000022
   4 H :   -0.000097
   5 H :   -0.003744
   6 C :   -0.169752
   7 O :   -0.455686
   8 H :    0.314785
   9 H :    0.120924
  10 H :    0.101280
  11 H :    0.090736
Sum of atomic charges:    0.0000000

LOEWDIN ATOMIC CHARGES
----------------------
   0 C :   -0.000287
   1 O :   -0.000008
   2 H :   -0.000000
   3 H :   -0.000010
   4 H :   -0.000003
   5 H :   -0.001182
   6 C :   -0.413913
   7 O :   -0.034326
   8 H :    0.156816
   9 H :    0.113270
  10 H :    0.082321
  11 H :    0.097321

  Mayer bond orders larger than 0.1
B(  6-C ,  7-O ) :   0.9978 B(  6-C ,  9-H ) :   0.9692 B(  6-C , 10-H ) :   0.9738
B(  6-C , 11-H ) :   0.9958 B(  7-O ,  8-H ) :   0.9002

Dispersion correction           -0.000209873
FINAL SINGLE POINT ENERGY      -115.727179396487

DIPOLE MOMENT
-------------
                                X             Y             Z
Electronic contribution:     -0.22555       1.46525      -1.22896
Nuclear contribution   :      0.77491      -1.84797       1.36572
                        -----------------------------------------
Total Dipole Moment    :      0.54936      -0.38272       0.13676
                        -----------------------------------------
Magnitude (a.u.)       :      0.68336
Magnitude (Debye)      :      1.73695

Rotational constants in cm-1:     4.481096     0.870603     0.830406
Rotational constants in MHz : 134339.892801 26100.026876 24894.955986

                             ****ORCA TERMINATED NORMALLY****
TOTAL RUN TIME: 0 days 0 hours 0 minutes 40 seconds 484 msec
