                         Program Version 4.1.2  - RELEASE  -
|  1> #Run DFT-D3 single point of the dimer
|  2> ! wB97X-D3 def2-TZVP TIGHTSCF CHELPG PMODEL PAL8
|  3>
|  4> %base "1-110_DFT_AB"
|  5>
|  6> %scf
|  7> MaxIter 1000
|  8> end
|  9>
| 10> * xyz 0 1
| 11>   C                      -0.021919            8.009453             2.783988
| 12>   O                      -0.528219            7.199774             3.833651
| 13>   H                      0.125578             6.504699             4.084652
| 14>   H                      0.915588             8.444604             3.152632
| 15>   H                      0.145282             7.447361             1.830952
| 16>   H                      -0.773289            8.872872             2.476492
| 17>   C                      3.707483             5.872302             5.882262
| 18>   O                      3.188635             5.911158             7.213912
| 19>   H                      3.919754             5.759517             7.763881
| 20>   H                      3.428067             6.738403             5.267230
| 21>   H                      4.814967             5.848514             5.957778
| 22>   H                      3.330196             4.978479             5.286867
| 23> *
| 24>
| 25> #Run DFT-D3 single point of the molecule with dimer basis set
| 26> $new_job
| 27> %base "1-110_DFT_A"
| 28> ! wB97X-D3 def2-TZVP TIGHTSCF CHELPG PMODEL
| 29>
| 30> %scf
| 31> MaxIter 1000
| 32> end
| 33>
| 34> * xyz 0 1
| 35>   C                      -0.021919            8.009453             2.783988
| 36>   O                      -0.528219            7.199774             3.833651
| 37>   H                      0.125578             6.504699             4.084652
| 38>   H                      0.915588             8.444604             3.152632
| 39>   H                      0.145282             7.447361             1.830952
| 40>   H                      -0.773289            8.872872             2.476492
| 41>   C                    : 3.707483             5.872302             5.882262
| 42>   O                    : 3.188635             5.911158             7.213912
| 43>   H                    : 3.919754             5.759517             7.763881
| 44>   H                    : 3.428067             6.738403             5.267230
| 45>   H                    : 4.814967             5.848514             5.957778
| 46>   H                    : 3.330196             4.978479             5.286867
| 47> *
| 48>
| 49> #Run DFT-D3 single point of the particle with dimer basis set
| 50> $new_job
| 51> %base "1-110_DFT_B"
| 52> ! wB97X-D3 def2-TZVP TIGHTSCF CHELPG PMODEL
| 53>
| 54> %scf
| 55> MaxIter 1000
| 56> end
| 57>
| 58> * xyz 0 1
| 59>   C                    : -0.021919            8.009453             2.783988
| 60>   O                    : -0.528219            7.199774             3.833651
| 61>   H                    : 0.125578             6.504699             4.084652
| 62>   H                    : 0.915588             8.444604             3.152632
| 63>   H                    : 0.145282             7.447361             1.830952
| 64>   H                    : -0.773289            8.872872             2.476492
| 65>   C                      3.707483             5.872302             5.882262
| 66>   O                      3.188635             5.911158             7.213912
| 67>   H                      3.919754             5.759517             7.763881
| 68>   H                      3.428067             6.738403             5.267230
| 69>   H                      4.814967             5.848514             5.957778
| 70>   H                      3.330196             4.978479             5.286867
| 71> *
| 72>
| 73>                          ****END OF INPUT****
 Total Charge           Charge          ....    0
 Multiplicity           Mult            ....    1
 Number of Electrons    NEL             ....   36
Dispersion correction           -0.000911357
FINAL SINGLE POINT ENERGY      -231.460953858728
Dispersion correction           -0.000261686
FINAL SINGLE POINT ENERGY      -115.729148136549

CARTESIAN COORDINATES (ANGSTROEM)
---------------------------------
  C     -0.021919    8.009453    2.783988
  O     -0.528219    7.199774    3.833651
  H      0.125578    6.504699    4.084652
  H      0.915588    8.444604    3.152632
  H      0.145282    7.447361    1.830952
  H     -0.773289    8.872872    2.476492
  C      3.707483    5.872302    5.882262
  O      3.188635    5.911158    7.213912
  H      3.919754    5.759517    7.763881
  H      3.428067    6.738403    5.267230
  H      4.814967    5.848514    5.957778
  H      3.330196    4.978479    5.286867

 Multiplicity           Mult            ....    1
 Number of Electrons    NEL             ....   18
 Basis Dimension        Dim             ....  172

ORBITAL ENERGIES
----------------

  NO   OCC          E(Eh)            E(eV)
   0   2.0000     -19.229002      -523.2478
   1   2.0000     -10.322784      -280.8972
   2   2.0000      -1.141349       -31.0577
   3   2.0000      -0.792970       -21.5778
   4   2.0000      -0.612064       -16.6551
   5   2.0000      -0.534795       -14.5525
   6   2.0000      -0.530060       -14.4237
   7   2.0000      -0.436192       -11.8694
   8   2.0000      -0.374751       -10.1975
   9   0.0000       0.085533         2.3275
  10   0.0000       0.114897         3.1265
  11   0.0000       0.147685         4.0187
  12   0.0000       0.169726         4.6185
  13   0.0000       0.183372         4.9898

MULLIKEN ATOMIC CHARGES
-----------------------
   0 C :   -0.000092
   1 O :   -0.000019
   2 H :    0.000251
   3 H :   -0.000011
   4 H :    0.000001
   5 H :    0.000000
   6 C :   -0.186218
   7 O :   -0.458581
   8 H :    0.310389
   9 H :    0.120217
  10 H :    0.106373
  11 H :    0.107690
Sum of atomic charges:   -0.0000000

LOEWDIN ATOMIC CHARGES
----------------------
   0 C :   -0.000090
   1 O :   -0.000010
   2 H :   -0.000089
   3 H :   -0.000141
   4 H :   -0.000001
   5 H :   -0.000000
   6 C :   -0.381024
   7 O :   -0.072874
   8 H :    0.147877
   9 H :    0.101033
  10 H :    0.099911
  11 H :    0.105409

  Mayer bond orders larger than 0.1
B(  6-C ,  7-O ) :   1.0094 B(  6-C ,  9-H ) :   0.9708 B(  6-C , 10-H ) :   0.9897
B(  6-C , 11-H ) :   0.9704 B(  7-O ,  8-H ) :   0.9100

Dispersion correction           -0.000257657
FINAL SINGLE POINT ENERGY      -115.731572707985

DIPOLE MOMENT
-------------
                                X             Y             Z
Electronic contribution:     -0.82039       0.11171       1.70848
Nuclear contribution   :      1.51184      -0.20719      -1.87331
                        -----------------------------------------
Total Dipole Moment    :      0.69145      -0.09548      -0.16483
                        -----------------------------------------
Magnitude (a.u.)       :      0.71721
Magnitude (Debye)      :      1.82300

Rotational constants in cm-1:     4.234830     0.814994     0.783917
Rotational constants in MHz : 126957.005198 24432.897813 23501.237148

                             ****ORCA TERMINATED NORMALLY****
TOTAL RUN TIME: 0 days 0 hours 4 minutes 10 seconds 650 msec
