                         Program Version 4.1.2  - RELEASE  -
|  1> #Run DFT-D3 single point of the dimer
|  2> ! wB97X-D3 def2-TZVP TIGHTSCF CHELPG PMODEL PAL8
|  3>
|  4> %base "19-193_DFT_AB"
|  5>
|  6> %scf
|  7> MaxIter 1000
|  8> end
|  9>
| 10> * xyz 0 1
| 11>   C                      -4.297405            5.894942             -4.474710
| 12>   O                      -4.426902            6.358698             -5.799278
| 13>   H                      -3.533513            6.095699             -6.062029
| 14>   H                      -3.252572            6.108950             -4.223089
| 15>   H                      -4.995818            6.315973             -3.816453
| 16>   H                      -4.302503            4.738694             -4.403813
| 17>   C                      -1.626293            5.352309             -7.548766
| 18>   O                      -1.537658            5.557993             -6.120099
| 19>   H                      -0.768995            6.004029             -5.903913
| 20>   H                      -0.793855            4.764535             -7.904503
| 21>   H                      -2.562287            4.841927             -7.933104
| 22>   H                      -1.560045            6.297970             -8.121470
| 23> *
| 24>
| 25> #Run DFT-D3 single point of the molecule with dimer basis set
| 26> $new_job
| 27> %base "19-193_DFT_A"
| 28> ! wB97X-D3 def2-TZVP TIGHTSCF CHELPG PMODEL
| 29>
| 30> %scf
| 31> MaxIter 1000
| 32> end
| 33>
| 34> * xyz 0 1
| 35>   C                      -4.297405            5.894942             -4.474710
| 36>   O                      -4.426902            6.358698             -5.799278
| 37>   H                      -3.533513            6.095699             -6.062029
| 38>   H                      -3.252572            6.108950             -4.223089
| 39>   H                      -4.995818            6.315973             -3.816453
| 40>   H                      -4.302503            4.738694             -4.403813
| 41>   C                    : -1.626293            5.352309             -7.548766
| 42>   O                    : -1.537658            5.557993             -6.120099
| 43>   H                    : -0.768995            6.004029             -5.903913
| 44>   H                    : -0.793855            4.764535             -7.904503
| 45>   H                    : -2.562287            4.841927             -7.933104
| 46>   H                    : -1.560045            6.297970             -8.121470
| 47> *
| 48>
| 49> #Run DFT-D3 single point of the particle with dimer basis set
| 50> $new_job
| 51> %base "19-193_DFT_B"
| 52> ! wB97X-D3 def2-TZVP TIGHTSCF CHELPG PMODEL
| 53>
| 54> %scf
| 55> MaxIter 1000
| 56> end
| 57>
| 58> * xyz 0 1
| 59>   C                    : -4.297405            5.894942             -4.474710
| 60>   O                    : -4.426902            6.358698             -5.799278
| 61>   H                    : -3.533513            6.095699             -6.062029
| 62>   H                    : -3.252572            6.108950             -4.223089
| 63>   H                    : -4.995818            6.315973             -3.816453
| 64>   H                    : -4.302503            4.738694             -4.403813
| 65>   C                      -1.626293            5.352309             -7.548766
| 66>   O                      -1.537658            5.557993             -6.120099
| 67>   H                      -0.768995            6.004029             -5.903913
| 68>   H                      -0.793855            4.764535             -7.904503
| 69>   H                      -2.562287            4.841927             -7.933104
| 70>   H                      -1.560045            6.297970             -8.121470
| 71> *
| 72>
| 73>                          ****END OF INPUT****
 Total Charge           Charge          ....    0
 Multiplicity           Mult            ....    1
 Number of Electrons    NEL             ....   36
Dispersion correction           -0.002070483
FINAL SINGLE POINT ENERGY      -231.461808628633
Dispersion correction           -0.000201115
FINAL SINGLE POINT ENERGY      -115.723191338008

CARTESIAN COORDINATES (ANGSTROEM)
---------------------------------
  C     -4.297405    5.894942   -4.474710
  O     -4.426902    6.358698   -5.799278
  H     -3.533513    6.095699   -6.062029
  H     -3.252572    6.108950   -4.223089
  H     -4.995818    6.315973   -3.816453
  H     -4.302503    4.738694   -4.403813
  C     -1.626293    5.352309   -7.548766
  O     -1.537658    5.557993   -6.120099
  H     -0.768995    6.004029   -5.903913
  H     -0.793855    4.764535   -7.904503
  H     -2.562287    4.841927   -7.933104
  H     -1.560045    6.297970   -8.121470

 Multiplicity           Mult            ....    1
 Number of Electrons    NEL             ....   18
 Basis Dimension        Dim             ....  172

ORBITAL ENERGIES
----------------

  NO   OCC          E(Eh)            E(eV)
   0   2.0000     -19.228089      -523.2229
   1   2.0000     -10.321901      -280.8732
   2   2.0000      -1.136105       -30.9150
   3   2.0000      -0.801069       -21.7982
   4   2.0000      -0.614297       -16.7159
   5   2.0000      -0.535089       -14.5605
   6   2.0000      -0.525647       -14.3036
   7   2.0000      -0.433005       -11.7827
   8   2.0000      -0.376686       -10.2502
   9   0.0000       0.103035         2.8037
  10   0.0000       0.132094         3.5945
  11   0.0000       0.144298         3.9266
  12   0.0000       0.191178         5.2022
  13   0.0000       0.200863         5.4658

MULLIKEN ATOMIC CHARGES
-----------------------
   0 C :    0.013701
   1 O :   -0.004962
   2 H :    0.002640
   3 H :   -0.012266
   4 H :   -0.000067
   5 H :   -0.002641
   6 C :   -0.189465
   7 O :   -0.470432
   8 H :    0.305783
   9 H :    0.120050
  10 H :    0.129000
  11 H :    0.108658
Sum of atomic charges:   -0.0000000

LOEWDIN ATOMIC CHARGES
----------------------
   0 C :   -0.009440
   1 O :   -0.002794
   2 H :   -0.025698
   3 H :   -0.008350
   4 H :   -0.000060
   5 H :   -0.000642
   6 C :   -0.360658
   7 O :   -0.040867
   8 H :    0.135985
   9 H :    0.093902
  10 H :    0.120146
  11 H :    0.098476

  Mayer bond orders larger than 0.1
B(  6-C ,  7-O ) :   0.9761 B(  6-C ,  9-H ) :   0.9738 B(  6-C , 10-H ) :   0.9727
B(  6-C , 11-H ) :   0.9746 B(  7-O ,  8-H ) :   0.9069

Dispersion correction           -0.000269580
FINAL SINGLE POINT ENERGY      -115.729869277789

DIPOLE MOMENT
-------------
                                X             Y             Z
Electronic contribution:     -0.02081       0.17085       1.91150
Nuclear contribution   :      0.50668       0.02531      -2.39424
                        -----------------------------------------
Total Dipole Moment    :      0.48587       0.19616      -0.48274
                        -----------------------------------------
Magnitude (a.u.)       :      0.71245
Magnitude (Debye)      :      1.81091

Rotational constants in cm-1:     4.468799     0.787842     0.760597
Rotational constants in MHz : 133971.226053 23618.906089 22802.116155

                             ****ORCA TERMINATED NORMALLY****
TOTAL RUN TIME: 0 days 0 hours 1 minutes 48 seconds 986 msec
