                         Program Version 4.1.2  - RELEASE  -
|  1> #Run DFT geometry optimization
|  2> ! wB97X-D3 def2-TZVP TIGHTSCF Grid5 FinalGrid6 Opt CHELPG PAL4
|  3>
|  4> %base "0_geo_opt"
|  5> %geom MaxIter 500
|  6> end
|  7>
|  8> %geom
|  9>   Constraints
| 10>     { A 5 0 1 C }
| 11>   end
| 12> end
| 13>
| 14>
| 15> * xyz 0 1
| 16>   C                    3.011308             -1.180897            0.598492
| 17>   O                    4.395389             -1.133586            0.871706
| 18>   H                    4.772196             -0.379022            0.412493
| 19>   H                    2.806434             -1.318965            -0.469350
| 20>   H                    2.611632             -2.040265            1.135898
| 21>   H                    2.480638             -0.286291            0.944027
| 22> *
| 23>
| 24>                          ****END OF INPUT****
 Total Charge           Charge          ....    0
 Multiplicity           Mult            ....    1
 Number of Electrons    NEL             ....   18
Dispersion correction           -0.000239942
FINAL SINGLE POINT ENERGY      -115.738033915554
Dispersion correction            ... done
Dispersion correction           -0.000239984
FINAL SINGLE POINT ENERGY      -115.738042315414
Dispersion correction            ... done
                    ***********************HURRAY********************

CARTESIAN COORDINATES (ANGSTROEM)
---------------------------------
  C      3.011643   -1.180651    0.598516
  O      4.395482   -1.131951    0.871144
  H      4.772666   -0.380428    0.413220
  H      2.805767   -1.319216   -0.469191
  H      2.611811   -2.040310    1.135517
  H      2.480228   -0.286469    0.944059

 Multiplicity           Mult            ....    1
 Number of Electrons    NEL             ....   18
 Basis Dimension        Dim             ....   86

ORBITAL ENERGIES
----------------

  NO   OCC          E(Eh)            E(eV)
   0   2.0000     -19.228316      -523.2291
   1   2.0000     -10.315098      -280.6881
   2   2.0000      -1.137012       -30.9397
   3   2.0000      -0.795410       -21.6442
   4   2.0000      -0.611871       -16.6499
   5   2.0000      -0.541557       -14.7365
   6   2.0000      -0.526237       -14.3196
   7   2.0000      -0.433941       -11.8081
   8   2.0000      -0.373737       -10.1699
   9   0.0000       0.116690         3.1753
  10   0.0000       0.156528         4.2593
  11   0.0000       0.202485         5.5099
  12   0.0000       0.205242         5.5849
  13   0.0000       0.226616         6.1665

MULLIKEN ATOMIC CHARGES
-----------------------
   0 C :   -0.151135
   1 O :   -0.477221
   2 H :    0.313026
   3 H :    0.098539
   4 H :    0.118179
   5 H :    0.098612
Sum of atomic charges:   -0.0000000

LOEWDIN ATOMIC CHARGES
----------------------
   0 C :   -0.385747
   1 O :   -0.075534
   2 H :    0.165842
   3 H :    0.093419
   4 H :    0.108739
   5 H :    0.093281

  Mayer bond orders larger than 0.1
B(  0-C ,  1-O ) :   0.9991 B(  0-C ,  3-H ) :   0.9758 B(  0-C ,  4-H ) :   0.9751
B(  0-C ,  5-H ) :   0.9748 B(  1-O ,  2-H ) :   0.9002

Dispersion correction           -0.000240119
FINAL SINGLE POINT ENERGY      -115.738042747265

DIPOLE MOMENT
-------------
                                X             Y             Z
Electronic contribution:      1.76184      -0.02885       0.41881
Nuclear contribution   :     -2.07138       0.47974      -0.81247
                        -----------------------------------------
Total Dipole Moment    :     -0.30954       0.45089      -0.39366
                        -----------------------------------------
Magnitude (a.u.)       :      0.67386
Magnitude (Debye)      :      1.71281

Rotational constants in cm-1:     4.297747     0.833667     0.804723
Rotational constants in MHz : 128843.220551 24992.713710 24124.973926

                             ****ORCA TERMINATED NORMALLY****
TOTAL RUN TIME: 0 days 0 hours 0 minutes 48 seconds 16 msec
