                         Program Version 4.1.2  - RELEASE  -
|  1> #Run DFT geometry optimization
|  2> ! wB97X-D3 def2-TZVP TIGHTSCF Grid5 FinalGrid6 Opt CHELPG PAL4
|  3>
|  4> %base "9_geo_opt"
|  5> %geom MaxIter 500
|  6> end
|  7>
|  8> %geom
|  9>   Constraints
| 10>     { B 0 1 C }
| 11>   end
| 12> end
| 13>
| 14>
| 15> * xyz 0 1
| 16>   C                    3.011700             -1.180882            0.598570
| 17>   O                    4.394281             -1.128065            0.874229
| 18>   H                    4.771804             -0.379037            0.412415
| 19>   H                    2.806826             -1.318950            -0.469272
| 20>   H                    2.612024             -2.040250            1.135977
| 21>   H                    2.485149             -0.284476            0.945737
| 22> *
| 23>
| 24>                          ****END OF INPUT****
 Total Charge           Charge          ....    0
 Multiplicity           Mult            ....    1
 Number of Electrons    NEL             ....   18
Dispersion correction           -0.000238879
FINAL SINGLE POINT ENERGY      -115.738050949224
Dispersion correction            ... done
                    ***********************HURRAY********************

CARTESIAN COORDINATES (ANGSTROEM)
---------------------------------
  C      3.011786   -1.180915    0.598610
  O      4.394381   -1.127988    0.874181
  H      4.772007   -0.378985    0.412442
  H      2.806703   -1.318988   -0.469234
  H      2.611858   -2.040239    1.135936
  H      2.485049   -0.284545    0.945721

 Multiplicity           Mult            ....    1
 Number of Electrons    NEL             ....   18
 Basis Dimension        Dim             ....   86

ORBITAL ENERGIES
----------------

  NO   OCC          E(Eh)            E(eV)
   0   2.0000     -19.228085      -523.2228
   1   2.0000     -10.315049      -280.6867
   2   2.0000      -1.137050       -30.9407
   3   2.0000      -0.795316       -21.6416
   4   2.0000      -0.611746       -16.6465
   5   2.0000      -0.541838       -14.7442
   6   2.0000      -0.526442       -14.3252
   7   2.0000      -0.433718       -11.8021
   8   2.0000      -0.373568       -10.1653
   9   0.0000       0.116644         3.1740
  10   0.0000       0.156722         4.2646
  11   0.0000       0.202601         5.5130
  12   0.0000       0.205139         5.5821
  13   0.0000       0.226450         6.1620

MULLIKEN ATOMIC CHARGES
-----------------------
   0 C :   -0.150676
   1 O :   -0.477510
   2 H :    0.313052
   3 H :    0.098495
   4 H :    0.118140
   5 H :    0.098499
Sum of atomic charges:   -0.0000000

LOEWDIN ATOMIC CHARGES
----------------------
   0 C :   -0.385778
   1 O :   -0.075502
   2 H :    0.165860
   3 H :    0.093367
   4 H :    0.108688
   5 H :    0.093366

  Mayer bond orders larger than 0.1
B(  0-C ,  1-O ) :   0.9988 B(  0-C ,  3-H ) :   0.9756 B(  0-C ,  4-H ) :   0.9749
B(  0-C ,  5-H ) :   0.9756 B(  1-O ,  2-H ) :   0.9001

Dispersion correction           -0.000238987
FINAL SINGLE POINT ENERGY      -115.738051033630

DIPOLE MOMENT
-------------
                                X             Y             Z
Electronic contribution:      1.75662      -0.02812       0.41985
Nuclear contribution   :     -2.06530       0.47572      -0.81724
                        -----------------------------------------
Total Dipole Moment    :     -0.30868       0.44760      -0.39739
                        -----------------------------------------
Magnitude (a.u.)       :      0.67346
Magnitude (Debye)      :      1.71180

Rotational constants in cm-1:     4.293311     0.834520     0.805589
Rotational constants in MHz : 128710.211049 25018.274220 24150.945915

                             ****ORCA TERMINATED NORMALLY****
TOTAL RUN TIME: 0 days 0 hours 0 minutes 37 seconds 724 msec
