                         Program Version 4.1.2  - RELEASE  -
|  1> #Run DFT-D3 single point of the dimer
|  2> ! wB97X-D3 def2-TZVP TIGHTSCF CHELPG PMODEL PAL8
|  3>
|  4> %base "12-33_DFT_AB"
|  5>
|  6> %scf
|  7> MaxIter 1000
|  8> end
|  9>
| 10> * xyz 0 1
| 11>   C                      -8.068520            9.350120             1.189583
| 12>   O                      -8.752625            10.376869            1.873308
| 13>   H                      -8.135761            11.181691            1.909176
| 14>   H                      -6.977706            9.408543             1.361703
| 15>   H                      -8.315950            8.386054             1.585649
| 16>   H                      -8.351789            9.399995             0.160666
| 17>   C                      -11.022894           6.448989             1.627032
| 18>   O                      -9.925908            5.585104             1.684676
| 19>   H                      -10.290465           4.941397             2.303877
| 20>   H                      -11.009041           7.205912             2.404261
| 21>   H                      -10.852252           7.117249             0.818682
| 22>   H                      -12.057190           5.986624             1.398803
| 23> *
| 24>
| 25> #Run DFT-D3 single point of the molecule with dimer basis set
| 26> $new_job
| 27> %base "12-33_DFT_A"
| 28> ! wB97X-D3 def2-TZVP TIGHTSCF CHELPG PMODEL
| 29>
| 30> %scf
| 31> MaxIter 1000
| 32> end
| 33>
| 34> * xyz 0 1
| 35>   C                      -8.068520            9.350120             1.189583
| 36>   O                      -8.752625            10.376869            1.873308
| 37>   H                      -8.135761            11.181691            1.909176
| 38>   H                      -6.977706            9.408543             1.361703
| 39>   H                      -8.315950            8.386054             1.585649
| 40>   H                      -8.351789            9.399995             0.160666
| 41>   C                    : -11.022894           6.448989             1.627032
| 42>   O                    : -9.925908            5.585104             1.684676
| 43>   H                    : -10.290465           4.941397             2.303877
| 44>   H                    : -11.009041           7.205912             2.404261
| 45>   H                    : -10.852252           7.117249             0.818682
| 46>   H                    : -12.057190           5.986624             1.398803
| 47> *
| 48>
| 49> #Run DFT-D3 single point of the particle with dimer basis set
| 50> $new_job
| 51> %base "12-33_DFT_B"
| 52> ! wB97X-D3 def2-TZVP TIGHTSCF CHELPG PMODEL
| 53>
| 54> %scf
| 55> MaxIter 1000
| 56> end
| 57>
| 58> * xyz 0 1
| 59>   C                    : -8.068520            9.350120             1.189583
| 60>   O                    : -8.752625            10.376869            1.873308
| 61>   H                    : -8.135761            11.181691            1.909176
| 62>   H                    : -6.977706            9.408543             1.361703
| 63>   H                    : -8.315950            8.386054             1.585649
| 64>   H                    : -8.351789            9.399995             0.160666
| 65>   C                      -11.022894           6.448989             1.627032
| 66>   O                      -9.925908            5.585104             1.684676
| 67>   H                      -10.290465           4.941397             2.303877
| 68>   H                      -11.009041           7.205912             2.404261
| 69>   H                      -10.852252           7.117249             0.818682
| 70>   H                      -12.057190           5.986624             1.398803
| 71> *
| 72>
| 73>                          ****END OF INPUT****
 Total Charge           Charge          ....    0
 Multiplicity           Mult            ....    1
 Number of Electrons    NEL             ....   36
Dispersion correction           -0.001413039
FINAL SINGLE POINT ENERGY      -231.457821448308
Dispersion correction           -0.000235555
FINAL SINGLE POINT ENERGY      -115.731137857992

CARTESIAN COORDINATES (ANGSTROEM)
---------------------------------
  C     -8.068520    9.350120    1.189583
  O     -8.752625   10.376869    1.873308
  H     -8.135761   11.181691    1.909176
  H     -6.977706    9.408543    1.361703
  H     -8.315950    8.386054    1.585649
  H     -8.351789    9.399995    0.160666
  C    -11.022894    6.448989    1.627032
  O     -9.925908    5.585104    1.684676
  H    -10.290465    4.941397    2.303877
  H    -11.009041    7.205912    2.404261
  H    -10.852252    7.117249    0.818682
  H    -12.057190    5.986624    1.398803

 Multiplicity           Mult            ....    1
 Number of Electrons    NEL             ....   18
 Basis Dimension        Dim             ....  172

ORBITAL ENERGIES
----------------

  NO   OCC          E(Eh)            E(eV)
   0   2.0000     -19.237647      -523.4830
   1   2.0000     -10.312541      -280.6185
   2   2.0000      -1.149600       -31.2822
   3   2.0000      -0.793938       -21.6041
   4   2.0000      -0.607465       -16.5300
   5   2.0000      -0.548413       -14.9231
   6   2.0000      -0.528353       -14.3772
   7   2.0000      -0.435648       -11.8546
   8   2.0000      -0.376991       -10.2584
   9   0.0000       0.088867         2.4182
  10   0.0000       0.119135         3.2418
  11   0.0000       0.150023         4.0823
  12   0.0000       0.170508         4.6398
  13   0.0000       0.188474         5.1286

MULLIKEN ATOMIC CHARGES
-----------------------
   0 C :   -0.000631
   1 O :    0.000074
   2 H :    0.000003
   3 H :    0.000046
   4 H :   -0.000085
   5 H :   -0.000228
   6 C :   -0.198890
   7 O :   -0.446500
   8 H :    0.315623
   9 H :    0.102989
  10 H :    0.116862
  11 H :    0.110736
Sum of atomic charges:    0.0000000

LOEWDIN ATOMIC CHARGES
----------------------
   0 C :   -0.001173
   1 O :   -0.000050
   2 H :   -0.000001
   3 H :   -0.000007
   4 H :   -0.001465
   5 H :   -0.000163
   6 C :   -0.425374
   7 O :   -0.057465
   8 H :    0.179421
   9 H :    0.095003
  10 H :    0.102057
  11 H :    0.109217

  Mayer bond orders larger than 0.1
B(  6-C ,  7-O ) :   1.0119 B(  6-C ,  9-H ) :   0.9763 B(  6-C , 10-H ) :   0.9809
B(  6-C , 11-H ) :   0.9650 B(  7-O ,  8-H ) :   0.9035

Dispersion correction           -0.000238417
FINAL SINGLE POINT ENERGY      -115.724832257040

DIPOLE MOMENT
-------------
                                X             Y             Z
Electronic contribution:      1.54928      -1.21223       0.08118
Nuclear contribution   :     -2.14359       1.16580       0.23462
                        -----------------------------------------
Total Dipole Moment    :     -0.59430      -0.04643       0.31580
                        -----------------------------------------
Magnitude (a.u.)       :      0.67460
Magnitude (Debye)      :      1.71469

Rotational constants in cm-1:     4.269202     0.848567     0.816902
Rotational constants in MHz : 127987.449738 25439.388842 24490.093084

                             ****ORCA TERMINATED NORMALLY****
TOTAL RUN TIME: 0 days 0 hours 1 minutes 8 seconds 549 msec
