                         Program Version 4.1.2  - RELEASE  -
|  1> #Run DFT-D3 single point of the dimer
|  2> ! wB97X-D3 def2-TZVP TIGHTSCF CHELPG PMODEL PAL8
|  3>
|  4> %base "15-13_DFT_AB"
|  5>
|  6> %scf
|  7> MaxIter 1000
|  8> end
|  9>
| 10> * xyz 0 1
| 11>   C                      -9.116109            5.828608             -3.149760
| 12>   O                      -8.666366            7.180685             -3.469790
| 13>   H                      -8.814491            7.394887             -4.363041
| 14>   H                      -9.459913            5.864401             -2.148955
| 15>   H                      -9.944737            5.470337             -3.807818
| 16>   H                      -8.309017            5.140862             -3.188582
| 17>   C                      -10.794103           7.923745             -0.381378
| 18>   O                      -9.384621            8.224671             -0.537492
| 19>   H                      -8.927272            7.739375             0.112836
| 20>   H                      -11.348183           8.222421             -1.285125
| 21>   H                      -10.884560           6.832683             -0.192969
| 22>   H                      -11.337824           8.388577             0.464184
| 23> *
| 24>
| 25> #Run DFT-D3 single point of the molecule with dimer basis set
| 26> $new_job
| 27> %base "15-13_DFT_A"
| 28> ! wB97X-D3 def2-TZVP TIGHTSCF CHELPG PMODEL
| 29>
| 30> %scf
| 31> MaxIter 1000
| 32> end
| 33>
| 34> * xyz 0 1
| 35>   C                      -9.116109            5.828608             -3.149760
| 36>   O                      -8.666366            7.180685             -3.469790
| 37>   H                      -8.814491            7.394887             -4.363041
| 38>   H                      -9.459913            5.864401             -2.148955
| 39>   H                      -9.944737            5.470337             -3.807818
| 40>   H                      -8.309017            5.140862             -3.188582
| 41>   C                    : -10.794103           7.923745             -0.381378
| 42>   O                    : -9.384621            8.224671             -0.537492
| 43>   H                    : -8.927272            7.739375             0.112836
| 44>   H                    : -11.348183           8.222421             -1.285125
| 45>   H                    : -10.884560           6.832683             -0.192969
| 46>   H                    : -11.337824           8.388577             0.464184
| 47> *
| 48>
| 49> #Run DFT-D3 single point of the particle with dimer basis set
| 50> $new_job
| 51> %base "15-13_DFT_B"
| 52> ! wB97X-D3 def2-TZVP TIGHTSCF CHELPG PMODEL
| 53>
| 54> %scf
| 55> MaxIter 1000
| 56> end
| 57>
| 58> * xyz 0 1
| 59>   C                    : -9.116109            5.828608             -3.149760
| 60>   O                    : -8.666366            7.180685             -3.469790
| 61>   H                    : -8.814491            7.394887             -4.363041
| 62>   H                    : -9.459913            5.864401             -2.148955
| 63>   H                    : -9.944737            5.470337             -3.807818
| 64>   H                    : -8.309017            5.140862             -3.188582
| 65>   C                      -10.794103           7.923745             -0.381378
| 66>   O                      -9.384621            8.224671             -0.537492
| 67>   H                      -8.927272            7.739375             0.112836
| 68>   H                      -11.348183           8.222421             -1.285125
| 69>   H                      -10.884560           6.832683             -0.192969
| 70>   H                      -11.337824           8.388577             0.464184
| 71> *
| 72>
| 73>                          ****END OF INPUT****
 Total Charge           Charge          ....    0
 Multiplicity           Mult            ....    1
 Number of Electrons    NEL             ....   36
Dispersion correction           -0.002006167
FINAL SINGLE POINT ENERGY      -231.463423848708
Dispersion correction           -0.000266839
FINAL SINGLE POINT ENERGY      -115.732832051289

CARTESIAN COORDINATES (ANGSTROEM)
---------------------------------
  C     -9.116109    5.828608   -3.149760
  O     -8.666366    7.180685   -3.469790
  H     -8.814491    7.394887   -4.363041
  H     -9.459913    5.864401   -2.148955
  H     -9.944737    5.470337   -3.807818
  H     -8.309017    5.140862   -3.188582
  C    -10.794103    7.923745   -0.381378
  O     -9.384621    8.224671   -0.537492
  H     -8.927272    7.739375    0.112836
  H    -11.348183    8.222421   -1.285125
  H    -10.884560    6.832683   -0.192969
  H    -11.337824    8.388577    0.464184

 Multiplicity           Mult            ....    1
 Number of Electrons    NEL             ....   18
 Basis Dimension        Dim             ....  172

ORBITAL ENERGIES
----------------

  NO   OCC          E(Eh)            E(eV)
   0   2.0000     -19.230918      -523.2999
   1   2.0000     -10.321622      -280.8656
   2   2.0000      -1.134039       -30.8588
   3   2.0000      -0.797304       -21.6957
   4   2.0000      -0.610688       -16.6177
   5   2.0000      -0.535285       -14.5659
   6   2.0000      -0.522158       -14.2086
   7   2.0000      -0.440716       -11.9925
   8   2.0000      -0.375768       -10.2252
   9   0.0000       0.090687         2.4677
  10   0.0000       0.125384         3.4119
  11   0.0000       0.148167         4.0318
  12   0.0000       0.168009         4.5718
  13   0.0000       0.198383         5.3983

MULLIKEN ATOMIC CHARGES
-----------------------
   0 C :   -0.002474
   1 O :    0.000871
   2 H :    0.000142
   3 H :   -0.002085
   4 H :   -0.000445
   5 H :    0.000286
   6 C :   -0.187004
   7 O :   -0.468140
   8 H :    0.308917
   9 H :    0.129024
  10 H :    0.108463
  11 H :    0.112446
Sum of atomic charges:    0.0000000

LOEWDIN ATOMIC CHARGES
----------------------
   0 C :   -0.005965
   1 O :   -0.003739
   2 H :   -0.000220
   3 H :   -0.004961
   4 H :   -0.000080
   5 H :   -0.000052
   6 C :   -0.365076
   7 O :   -0.076830
   8 H :    0.147661
   9 H :    0.111202
  10 H :    0.100668
  11 H :    0.097392

  Mayer bond orders larger than 0.1
B(  6-C ,  7-O ) :   0.9871 B(  6-C ,  9-H ) :   0.9763 B(  6-C , 10-H ) :   0.9851
B(  6-C , 11-H ) :   0.9623 B(  7-O ,  8-H ) :   0.9073

Dispersion correction           -0.000264749
FINAL SINGLE POINT ENERGY      -115.732875177246

DIPOLE MOMENT
-------------
                                X             Y             Z
Electronic contribution:      1.78116       0.54748      -0.31735
Nuclear contribution   :     -2.07442      -0.98124       0.80319
                        -----------------------------------------
Total Dipole Moment    :     -0.29326      -0.43376       0.48584
                        -----------------------------------------
Magnitude (a.u.)       :      0.71428
Magnitude (Debye)      :      1.81556

Rotational constants in cm-1:     4.323167     0.796052     0.762907
Rotational constants in MHz : 129605.281323 23865.026514 22871.372768

                             ****ORCA TERMINATED NORMALLY****
TOTAL RUN TIME: 0 days 0 hours 1 minutes 2 seconds 178 msec
