                         Program Version 4.1.2  - RELEASE  -
|  1> #Run DFT-D3 single point of the dimer
|  2> ! wB97X-D3 def2-TZVP TIGHTSCF CHELPG PMODEL PAL8
|  3>
|  4> %base "7-44_DFT_AB"
|  5>
|  6> %scf
|  7> MaxIter 1000
|  8> end
|  9>
| 10> * xyz 0 1
| 11>   C                      -9.811344            4.558187             10.207530
| 12>   O                      -8.653833            5.412163             9.985210
| 13>   H                      -8.166910            5.609681             10.804078
| 14>   H                      -10.766672           5.084000             10.437990
| 15>   H                      -10.064099           3.949902             9.357270
| 16>   H                      -9.652676            3.829172             10.959154
| 17>   C                      -11.295443           9.223032             8.700884
| 18>   O                      -9.892847            9.093159             8.688448
| 19>   H                      -9.680646            8.187656             8.839787
| 20>   H                      -11.743624           9.018829             7.762429
| 21>   H                      -11.616767           8.333848             9.275435
| 22>   H                      -11.685365           10.165059            9.078397
| 23> *
| 24>
| 25> #Run DFT-D3 single point of the molecule with dimer basis set
| 26> $new_job
| 27> %base "7-44_DFT_A"
| 28> ! wB97X-D3 def2-TZVP TIGHTSCF CHELPG PMODEL
| 29>
| 30> %scf
| 31> MaxIter 1000
| 32> end
| 33>
| 34> * xyz 0 1
| 35>   C                      -9.811344            4.558187             10.207530
| 36>   O                      -8.653833            5.412163             9.985210
| 37>   H                      -8.166910            5.609681             10.804078
| 38>   H                      -10.766672           5.084000             10.437990
| 39>   H                      -10.064099           3.949902             9.357270
| 40>   H                      -9.652676            3.829172             10.959154
| 41>   C                    : -11.295443           9.223032             8.700884
| 42>   O                    : -9.892847            9.093159             8.688448
| 43>   H                    : -9.680646            8.187656             8.839787
| 44>   H                    : -11.743624           9.018829             7.762429
| 45>   H                    : -11.616767           8.333848             9.275435
| 46>   H                    : -11.685365           10.165059            9.078397
| 47> *
| 48>
| 49> #Run DFT-D3 single point of the particle with dimer basis set
| 50> $new_job
| 51> %base "7-44_DFT_B"
| 52> ! wB97X-D3 def2-TZVP TIGHTSCF CHELPG PMODEL
| 53>
| 54> %scf
| 55> MaxIter 1000
| 56> end
| 57>
| 58> * xyz 0 1
| 59>   C                    : -9.811344            4.558187             10.207530
| 60>   O                    : -8.653833            5.412163             9.985210
| 61>   H                    : -8.166910            5.609681             10.804078
| 62>   H                    : -10.766672           5.084000             10.437990
| 63>   H                    : -10.064099           3.949902             9.357270
| 64>   H                    : -9.652676            3.829172             10.959154
| 65>   C                      -11.295443           9.223032             8.700884
| 66>   O                      -9.892847            9.093159             8.688448
| 67>   H                      -9.680646            8.187656             8.839787
| 68>   H                      -11.743624           9.018829             7.762429
| 69>   H                      -11.616767           8.333848             9.275435
| 70>   H                      -11.685365           10.165059            9.078397
| 71> *
| 72>
| 73>                          ****END OF INPUT****
 Total Charge           Charge          ....    0
 Multiplicity           Mult            ....    1
 Number of Electrons    NEL             ....   36
Dispersion correction           -0.001153567
FINAL SINGLE POINT ENERGY      -231.461551753997
Dispersion correction           -0.000289716
FINAL SINGLE POINT ENERGY      -115.730371604249

CARTESIAN COORDINATES (ANGSTROEM)
---------------------------------
  C     -9.811344    4.558187   10.207530
  O     -8.653833    5.412163    9.985210
  H     -8.166910    5.609681   10.804078
  H    -10.766672    5.084000   10.437990
  H    -10.064099    3.949902    9.357270
  H     -9.652676    3.829172   10.959154
  C    -11.295443    9.223032    8.700884
  O     -9.892847    9.093159    8.688448
  H     -9.680646    8.187656    8.839787
  H    -11.743624    9.018829    7.762429
  H    -11.616767    8.333848    9.275435
  H    -11.685365   10.165059    9.078397

 Multiplicity           Mult            ....    1
 Number of Electrons    NEL             ....   18
 Basis Dimension        Dim             ....  172

ORBITAL ENERGIES
----------------

  NO   OCC          E(Eh)            E(eV)
   0   2.0000     -19.226170      -523.1707
   1   2.0000     -10.310985      -280.5762
   2   2.0000      -1.141323       -31.0570
   3   2.0000      -0.798992       -21.7417
   4   2.0000      -0.616751       -16.7827
   5   2.0000      -0.542395       -14.7593
   6   2.0000      -0.537175       -14.6173
   7   2.0000      -0.429929       -11.6989
   8   2.0000      -0.370357       -10.0779
   9   0.0000       0.067448         1.8354
  10   0.0000       0.121682         3.3111
  11   0.0000       0.144864         3.9419
  12   0.0000       0.167160         4.5487
  13   0.0000       0.185833         5.0568

MULLIKEN ATOMIC CHARGES
-----------------------
   0 C :   -0.000232
   1 O :   -0.000059
   2 H :   -0.000029
   3 H :   -0.000098
   4 H :    0.000014
   5 H :   -0.000005
   6 C :   -0.160430
   7 O :   -0.469850
   8 H :    0.314695
   9 H :    0.101889
  10 H :    0.094849
  11 H :    0.119254
Sum of atomic charges:    0.0000000

LOEWDIN ATOMIC CHARGES
----------------------
   0 C :   -0.000380
   1 O :   -0.000504
   2 H :   -0.000097
   3 H :   -0.000166
   4 H :   -0.000003
   5 H :   -0.000012
   6 C :   -0.381256
   7 O :   -0.068215
   8 H :    0.158389
   9 H :    0.086813
  10 H :    0.101310
  11 H :    0.104121

  Mayer bond orders larger than 0.1
B(  6-C ,  7-O ) :   1.0001 B(  6-C ,  9-H ) :   0.9698 B(  6-C , 10-H ) :   1.0027
B(  6-C , 11-H ) :   0.9715 B(  7-O ,  8-H ) :   0.9045

Dispersion correction           -0.000223462
FINAL SINGLE POINT ENERGY      -115.728064441488

DIPOLE MOMENT
-------------
                                X             Y             Z
Electronic contribution:      1.81522       0.18292      -0.05268
Nuclear contribution   :     -2.24452      -0.73032       0.14822
                        -----------------------------------------
Total Dipole Moment    :     -0.42930      -0.54740       0.09554
                        -----------------------------------------
Magnitude (a.u.)       :      0.70219
Magnitude (Debye)      :      1.78483

Rotational constants in cm-1:     4.419878     0.847161     0.804548
Rotational constants in MHz : 132504.613994 25397.256306 24119.753272

                             ****ORCA TERMINATED NORMALLY****
TOTAL RUN TIME: 0 days 0 hours 0 minutes 58 seconds 918 msec
