                         Program Version 4.1.2  - RELEASE  -
|  1> #Run DFT-D3 single point of the dimer
|  2> ! wB97X-D3 def2-TZVP TIGHTSCF CHELPG PMODEL PAL8
|  3>
|  4> %base "21-26_DFT_AB"
|  5>
|  6> %scf
|  7> MaxIter 1000
|  8> end
|  9>
| 10> * xyz 0 1
| 11>   C                      -3.092686            -1.451874            10.711364
| 12>   O                      -2.273163            -2.540808            10.545648
| 13>   H                      -2.684214            -3.268882            11.063944
| 14>   H                      -4.148534            -1.721086            10.677316
| 15>   H                      -2.829864            -0.967831            11.633750
| 16>   H                      -2.944506            -0.806253            9.884226
| 17>   C                      -2.221058            -3.446689            6.998465
| 18>   O                      -1.873761            -3.179078            5.629325
| 19>   H                      -1.860094            -2.201635            5.512073
| 20>   H                      -2.621781            -4.400439            7.017455
| 21>   H                      -1.377824            -3.586597            7.742426
| 22>   H                      -3.018817            -2.859799            7.498066
| 23> *
| 24>
| 25> #Run DFT-D3 single point of the molecule with dimer basis set
| 26> $new_job
| 27> %base "21-26_DFT_A"
| 28> ! wB97X-D3 def2-TZVP TIGHTSCF CHELPG PMODEL
| 29>
| 30> %scf
| 31> MaxIter 1000
| 32> end
| 33>
| 34> * xyz 0 1
| 35>   C                      -3.092686            -1.451874            10.711364
| 36>   O                      -2.273163            -2.540808            10.545648
| 37>   H                      -2.684214            -3.268882            11.063944
| 38>   H                      -4.148534            -1.721086            10.677316
| 39>   H                      -2.829864            -0.967831            11.633750
| 40>   H                      -2.944506            -0.806253            9.884226
| 41>   C                    : -2.221058            -3.446689            6.998465
| 42>   O                    : -1.873761            -3.179078            5.629325
| 43>   H                    : -1.860094            -2.201635            5.512073
| 44>   H                    : -2.621781            -4.400439            7.017455
| 45>   H                    : -1.377824            -3.586597            7.742426
| 46>   H                    : -3.018817            -2.859799            7.498066
| 47> *
| 48>
| 49> #Run DFT-D3 single point of the particle with dimer basis set
| 50> $new_job
| 51> %base "21-26_DFT_B"
| 52> ! wB97X-D3 def2-TZVP TIGHTSCF CHELPG PMODEL
| 53>
| 54> %scf
| 55> MaxIter 1000
| 56> end
| 57>
| 58> * xyz 0 1
| 59>   C                    : -3.092686            -1.451874            10.711364
| 60>   O                    : -2.273163            -2.540808            10.545648
| 61>   H                    : -2.684214            -3.268882            11.063944
| 62>   H                    : -4.148534            -1.721086            10.677316
| 63>   H                    : -2.829864            -0.967831            11.633750
| 64>   H                    : -2.944506            -0.806253            9.884226
| 65>   C                      -2.221058            -3.446689            6.998465
| 66>   O                      -1.873761            -3.179078            5.629325
| 67>   H                      -1.860094            -2.201635            5.512073
| 68>   H                      -2.621781            -4.400439            7.017455
| 69>   H                      -1.377824            -3.586597            7.742426
| 70>   H                      -3.018817            -2.859799            7.498066
| 71> *
| 72>
| 73>                          ****END OF INPUT****
 Total Charge           Charge          ....    0
 Multiplicity           Mult            ....    1
 Number of Electrons    NEL             ....   36
Dispersion correction           -0.001511076
FINAL SINGLE POINT ENERGY      -231.460826991464
Dispersion correction           -0.000205283
FINAL SINGLE POINT ENERGY      -115.733089640680

CARTESIAN COORDINATES (ANGSTROEM)
---------------------------------
  C     -3.092686   -1.451874   10.711364
  O     -2.273163   -2.540808   10.545648
  H     -2.684214   -3.268882   11.063944
  H     -4.148534   -1.721086   10.677316
  H     -2.829864   -0.967831   11.633750
  H     -2.944506   -0.806253    9.884226
  C     -2.221058   -3.446689    6.998465
  O     -1.873761   -3.179078    5.629325
  H     -1.860094   -2.201635    5.512073
  H     -2.621781   -4.400439    7.017455
  H     -1.377824   -3.586597    7.742426
  H     -3.018817   -2.859799    7.498066

 Multiplicity           Mult            ....    1
 Number of Electrons    NEL             ....   18
 Basis Dimension        Dim             ....  172

ORBITAL ENERGIES
----------------

  NO   OCC          E(Eh)            E(eV)
   0   2.0000     -19.240118      -523.5502
   1   2.0000     -10.312918      -280.6288
   2   2.0000      -1.127810       -30.6893
   3   2.0000      -0.801000       -21.7963
   4   2.0000      -0.606655       -16.5079
   5   2.0000      -0.529547       -14.4097
   6   2.0000      -0.524298       -14.2669
   7   2.0000      -0.438336       -11.9277
   8   2.0000      -0.377422       -10.2702
   9   0.0000       0.077904         2.1199
  10   0.0000       0.114764         3.1229
  11   0.0000       0.144403         3.9294
  12   0.0000       0.165938         4.5154
  13   0.0000       0.183443         4.9917

MULLIKEN ATOMIC CHARGES
-----------------------
   0 C :   -0.000887
   1 O :   -0.000221
   2 H :   -0.000007
   3 H :   -0.000002
   4 H :   -0.000012
   5 H :   -0.000012
   6 C :   -0.185405
   7 O :   -0.467184
   8 H :    0.317288
   9 H :    0.126910
  10 H :    0.099424
  11 H :    0.110108
Sum of atomic charges:   -0.0000000

LOEWDIN ATOMIC CHARGES
----------------------
   0 C :   -0.001811
   1 O :   -0.001391
   2 H :   -0.000162
   3 H :   -0.000110
   4 H :   -0.000023
   5 H :   -0.000491
   6 C :   -0.387697
   7 O :   -0.092735
   8 H :    0.182765
   9 H :    0.095719
  10 H :    0.103838
  11 H :    0.102097

  Mayer bond orders larger than 0.1
B(  6-C ,  7-O ) :   1.0190 B(  6-C ,  9-H ) :   0.9762 B(  6-C , 10-H ) :   0.9714
B(  6-C , 11-H ) :   0.9697 B(  7-O ,  8-H ) :   0.8978

Dispersion correction           -0.000299699
FINAL SINGLE POINT ENERGY      -115.726300298576

DIPOLE MOMENT
-------------
                                X             Y             Z
Electronic contribution:      0.47424       0.35779      -1.92128
Nuclear contribution   :     -0.64350       0.10568       2.37185
                        -----------------------------------------
Total Dipole Moment    :     -0.16926       0.46347       0.45057
                        -----------------------------------------
Magnitude (a.u.)       :      0.66818
Magnitude (Debye)      :      1.69837

Rotational constants in cm-1:     4.506576     0.789083     0.765544
Rotational constants in MHz : 135103.744650 23656.116505 22950.427205

                             ****ORCA TERMINATED NORMALLY****
TOTAL RUN TIME: 0 days 0 hours 1 minutes 2 seconds 925 msec
