                         Program Version 4.1.2  - RELEASE  -
|  1> #Run DFT-D3 single point of the dimer
|  2> ! wB97X-D3 def2-TZVP TIGHTSCF CHELPG PMODEL PAL8
|  3>
|  4> %base "4-116_DFT_AB"
|  5>
|  6> %scf
|  7> MaxIter 1000
|  8> end
|  9>
| 10> * xyz 0 1
| 11>   C                      3.525039             -9.013006            5.976572
| 12>   O                      4.752287             -9.411188            6.515313
| 13>   H                      4.589304             -9.839890            7.341963
| 14>   H                      2.971183             -8.294431            6.716489
| 15>   H                      3.600566             -8.576698            4.959692
| 16>   H                      2.900982             -9.866116            5.721810
| 17>   C                      7.403587             -9.978403            2.850823
| 18>   O                      8.436868             -10.175592           3.819464
| 19>   H                      8.901432             -9.344453            3.760023
| 20>   H                      6.659822             -10.796634           2.741819
| 21>   H                      6.753976             -9.111193            3.112570
| 22>   H                      7.782467             -9.757799            1.881767
| 23> *
| 24>
| 25> #Run DFT-D3 single point of the molecule with dimer basis set
| 26> $new_job
| 27> %base "4-116_DFT_A"
| 28> ! wB97X-D3 def2-TZVP TIGHTSCF CHELPG PMODEL
| 29>
| 30> %scf
| 31> MaxIter 1000
| 32> end
| 33>
| 34> * xyz 0 1
| 35>   C                      3.525039             -9.013006            5.976572
| 36>   O                      4.752287             -9.411188            6.515313
| 37>   H                      4.589304             -9.839890            7.341963
| 38>   H                      2.971183             -8.294431            6.716489
| 39>   H                      3.600566             -8.576698            4.959692
| 40>   H                      2.900982             -9.866116            5.721810
| 41>   C                    : 7.403587             -9.978403            2.850823
| 42>   O                    : 8.436868             -10.175592           3.819464
| 43>   H                    : 8.901432             -9.344453            3.760023
| 44>   H                    : 6.659822             -10.796634           2.741819
| 45>   H                    : 6.753976             -9.111193            3.112570
| 46>   H                    : 7.782467             -9.757799            1.881767
| 47> *
| 48>
| 49> #Run DFT-D3 single point of the particle with dimer basis set
| 50> $new_job
| 51> %base "4-116_DFT_B"
| 52> ! wB97X-D3 def2-TZVP TIGHTSCF CHELPG PMODEL
| 53>
| 54> %scf
| 55> MaxIter 1000
| 56> end
| 57>
| 58> * xyz 0 1
| 59>   C                    : 3.525039             -9.013006            5.976572
| 60>   O                    : 4.752287             -9.411188            6.515313
| 61>   H                    : 4.589304             -9.839890            7.341963
| 62>   H                    : 2.971183             -8.294431            6.716489
| 63>   H                    : 3.600566             -8.576698            4.959692
| 64>   H                    : 2.900982             -9.866116            5.721810
| 65>   C                      7.403587             -9.978403            2.850823
| 66>   O                      8.436868             -10.175592           3.819464
| 67>   H                      8.901432             -9.344453            3.760023
| 68>   H                      6.659822             -10.796634           2.741819
| 69>   H                      6.753976             -9.111193            3.112570
| 70>   H                      7.782467             -9.757799            1.881767
| 71> *
| 72>
| 73>                          ****END OF INPUT****
 Total Charge           Charge          ....    0
 Multiplicity           Mult            ....    1
 Number of Electrons    NEL             ....   36
Dispersion correction           -0.000870106
FINAL SINGLE POINT ENERGY      -231.461497088353
Dispersion correction           -0.000247679
FINAL SINGLE POINT ENERGY      -115.730086845742

CARTESIAN COORDINATES (ANGSTROEM)
---------------------------------
  C      3.525039   -9.013006    5.976572
  O      4.752287   -9.411188    6.515313
  H      4.589304   -9.839890    7.341963
  H      2.971183   -8.294431    6.716489
  H      3.600566   -8.576698    4.959692
  H      2.900982   -9.866116    5.721810
  C      7.403587   -9.978403    2.850823
  O      8.436868  -10.175592    3.819464
  H      8.901432   -9.344453    3.760023
  H      6.659822  -10.796634    2.741819
  H      6.753976   -9.111193    3.112570
  H      7.782467   -9.757799    1.881767

 Multiplicity           Mult            ....    1
 Number of Electrons    NEL             ....   18
 Basis Dimension        Dim             ....  172

ORBITAL ENERGIES
----------------

  NO   OCC          E(Eh)            E(eV)
   0   2.0000     -19.234891      -523.4080
   1   2.0000     -10.315885      -280.7095
   2   2.0000      -1.138948       -30.9924
   3   2.0000      -0.795707       -21.6523
   4   2.0000      -0.609306       -16.5801
   5   2.0000      -0.540263       -14.7013
   6   2.0000      -0.526617       -14.3300
   7   2.0000      -0.441003       -12.0003
   8   2.0000      -0.375892       -10.2285
   9   0.0000       0.084906         2.3104
  10   0.0000       0.116300         3.1647
  11   0.0000       0.145550         3.9606
  12   0.0000       0.168613         4.5882
  13   0.0000       0.184576         5.0226

MULLIKEN ATOMIC CHARGES
-----------------------
   0 C :    0.000221
   1 O :   -0.000032
   2 H :   -0.000005
   3 H :   -0.000006
   4 H :   -0.000232
   5 H :   -0.000033
   6 C :   -0.189969
   7 O :   -0.458914
   8 H :    0.315321
   9 H :    0.122001
  10 H :    0.102292
  11 H :    0.109357
Sum of atomic charges:   -0.0000000

LOEWDIN ATOMIC CHARGES
----------------------
   0 C :   -0.000138
   1 O :   -0.000040
   2 H :   -0.000005
   3 H :   -0.000001
   4 H :   -0.000183
   5 H :   -0.000004
   6 C :   -0.385405
   7 O :   -0.081410
   8 H :    0.169552
   9 H :    0.111993
  10 H :    0.098327
  11 H :    0.087314

  Mayer bond orders larger than 0.1
B(  6-C ,  7-O ) :   0.9958 B(  6-C ,  9-H ) :   0.9722 B(  6-C , 10-H ) :   0.9789
B(  6-C , 11-H ) :   0.9756 B(  7-O ,  8-H ) :   0.9026

Dispersion correction           -0.000237993
FINAL SINGLE POINT ENERGY      -115.731535690425

DIPOLE MOMENT
-------------
                                X             Y             Z
Electronic contribution:      1.40967      -0.51674       1.30414
Nuclear contribution   :     -1.53231       1.10861      -1.73171
                        -----------------------------------------
Total Dipole Moment    :     -0.12264       0.59188      -0.42757
                        -----------------------------------------
Magnitude (a.u.)       :      0.74039
Magnitude (Debye)      :      1.88191

Rotational constants in cm-1:     4.377625     0.813238     0.781921
Rotational constants in MHz : 131237.900892 24380.259459 23441.398211

                             ****ORCA TERMINATED NORMALLY****
TOTAL RUN TIME: 0 days 0 hours 1 minutes 29 seconds 883 msec
