                         Program Version 4.1.2  - RELEASE  -
|  1> #Run DFT-D3 single point of the dimer
|  2> ! wB97X-D3 def2-TZVP TIGHTSCF CHELPG PMODEL PAL8
|  3>
|  4> %base "5-128_DFT_AB"
|  5>
|  6> %scf
|  7> MaxIter 1000
|  8> end
|  9>
| 10> * xyz 0 1
| 11>   C                      8.993395             7.768408             -1.929499
| 12>   O                      8.277690             6.973573             -2.867001
| 13>   H                      8.425852             6.002038             -2.621908
| 14>   H                      8.719667             7.623738             -0.890754
| 15>   H                      10.017294            7.538047             -2.089698
| 16>   H                      8.693752             8.789069             -2.138796
| 17>   C                      4.929849             5.519204             -3.312693
| 18>   O                      4.791169             4.298609             -2.691907
| 19>   H                      4.377090             4.461801             -1.862990
| 20>   H                      5.868760             5.594581             -3.957458
| 21>   H                      4.101892             5.726034             -4.045604
| 22>   H                      5.026957             6.366105             -2.589375
| 23> *
| 24>
| 25> #Run DFT-D3 single point of the molecule with dimer basis set
| 26> $new_job
| 27> %base "5-128_DFT_A"
| 28> ! wB97X-D3 def2-TZVP TIGHTSCF CHELPG PMODEL
| 29>
| 30> %scf
| 31> MaxIter 1000
| 32> end
| 33>
| 34> * xyz 0 1
| 35>   C                      8.993395             7.768408             -1.929499
| 36>   O                      8.277690             6.973573             -2.867001
| 37>   H                      8.425852             6.002038             -2.621908
| 38>   H                      8.719667             7.623738             -0.890754
| 39>   H                      10.017294            7.538047             -2.089698
| 40>   H                      8.693752             8.789069             -2.138796
| 41>   C                    : 4.929849             5.519204             -3.312693
| 42>   O                    : 4.791169             4.298609             -2.691907
| 43>   H                    : 4.377090             4.461801             -1.862990
| 44>   H                    : 5.868760             5.594581             -3.957458
| 45>   H                    : 4.101892             5.726034             -4.045604
| 46>   H                    : 5.026957             6.366105             -2.589375
| 47> *
| 48>
| 49> #Run DFT-D3 single point of the particle with dimer basis set
| 50> $new_job
| 51> %base "5-128_DFT_B"
| 52> ! wB97X-D3 def2-TZVP TIGHTSCF CHELPG PMODEL
| 53>
| 54> %scf
| 55> MaxIter 1000
| 56> end
| 57>
| 58> * xyz 0 1
| 59>   C                    : 8.993395             7.768408             -1.929499
| 60>   O                    : 8.277690             6.973573             -2.867001
| 61>   H                    : 8.425852             6.002038             -2.621908
| 62>   H                    : 8.719667             7.623738             -0.890754
| 63>   H                    : 10.017294            7.538047             -2.089698
| 64>   H                    : 8.693752             8.789069             -2.138796
| 65>   C                      4.929849             5.519204             -3.312693
| 66>   O                      4.791169             4.298609             -2.691907
| 67>   H                      4.377090             4.461801             -1.862990
| 68>   H                      5.868760             5.594581             -3.957458
| 69>   H                      4.101892             5.726034             -4.045604
| 70>   H                      5.026957             6.366105             -2.589375
| 71> *
| 72>
| 73>                          ****END OF INPUT****
 Total Charge           Charge          ....    0
 Multiplicity           Mult            ....    1
 Number of Electrons    NEL             ....   36
Dispersion correction           -0.001325813
FINAL SINGLE POINT ENERGY      -231.465143289490
Dispersion correction           -0.000229114
FINAL SINGLE POINT ENERGY      -115.731299398561

CARTESIAN COORDINATES (ANGSTROEM)
---------------------------------
  C      8.993395    7.768408   -1.929499
  O      8.277690    6.973573   -2.867001
  H      8.425852    6.002038   -2.621908
  H      8.719667    7.623738   -0.890754
  H     10.017294    7.538047   -2.089698
  H      8.693752    8.789069   -2.138796
  C      4.929849    5.519204   -3.312693
  O      4.791169    4.298609   -2.691907
  H      4.377090    4.461801   -1.862990
  H      5.868760    5.594581   -3.957458
  H      4.101892    5.726034   -4.045604
  H      5.026957    6.366105   -2.589375

 Multiplicity           Mult            ....    1
 Number of Electrons    NEL             ....   18
 Basis Dimension        Dim             ....  172

ORBITAL ENERGIES
----------------

  NO   OCC          E(Eh)            E(eV)
   0   2.0000     -19.232977      -523.3559
   1   2.0000     -10.321388      -280.8592
   2   2.0000      -1.155823       -31.4515
   3   2.0000      -0.789135       -21.4735
   4   2.0000      -0.621275       -16.9057
   5   2.0000      -0.541737       -14.7414
   6   2.0000      -0.531166       -14.4538
   7   2.0000      -0.429521       -11.6879
   8   2.0000      -0.372659       -10.1406
   9   0.0000       0.084123         2.2891
  10   0.0000       0.117806         3.2057
  11   0.0000       0.147637         4.0174
  12   0.0000       0.169135         4.6024
  13   0.0000       0.194378         5.2893

MULLIKEN ATOMIC CHARGES
-----------------------
   0 C :   -0.000769
   1 O :   -0.000528
   2 H :    0.000611
   3 H :    0.000033
   4 H :    0.000020
   5 H :    0.000001
   6 C :   -0.170358
   7 O :   -0.453744
   8 H :    0.317640
   9 H :    0.110050
  10 H :    0.098884
  11 H :    0.098160
Sum of atomic charges:   -0.0000000

LOEWDIN ATOMIC CHARGES
----------------------
   0 C :   -0.000286
   1 O :   -0.001796
   2 H :   -0.000901
   3 H :   -0.000014
   4 H :   -0.000006
   5 H :   -0.000016
   6 C :   -0.429753
   7 O :   -0.037279
   8 H :    0.163418
   9 H :    0.111274
  10 H :    0.097527
  11 H :    0.097832

  Mayer bond orders larger than 0.1
B(  6-C ,  7-O ) :   1.0152 B(  6-C ,  9-H ) :   0.9720 B(  6-C , 10-H ) :   0.9706
B(  6-C , 11-H ) :   0.9835 B(  7-O ,  8-H ) :   0.9004

Dispersion correction           -0.000248832
FINAL SINGLE POINT ENERGY      -115.732173569628

DIPOLE MOMENT
-------------
                                X             Y             Z
Electronic contribution:     -0.18026      -1.79251       0.83917
Nuclear contribution   :     -0.02370       2.33686      -0.50671
                        -----------------------------------------
Total Dipole Moment    :     -0.20397       0.54435       0.33246
                        -----------------------------------------
Magnitude (a.u.)       :      0.66966
Magnitude (Debye)      :      1.70215

Rotational constants in cm-1:     4.213624     0.853983     0.824218
Rotational constants in MHz : 126321.277452 25601.777513 24709.442379

                             ****ORCA TERMINATED NORMALLY****
TOTAL RUN TIME: 0 days 0 hours 0 minutes 51 seconds 607 msec
