                         Program Version 4.1.2  - RELEASE  -
|  1> #Run DFT-D3 single point of the dimer
|  2> ! wB97X-D3 def2-TZVP TIGHTSCF CHELPG PMODEL PAL8
|  3>
|  4> %base "16-124_DFT_AB"
|  5>
|  6> %scf
|  7> MaxIter 1000
|  8> end
|  9>
| 10> * xyz 0 1
| 11>   C                      -6.453457            -0.292748            3.025583
| 12>   O                      -7.118976            0.113840             4.133951
| 13>   H                      -6.482829            0.713591             4.577241
| 14>   H                      -7.026724            -1.111261            2.492437
| 15>   H                      -6.333896            0.490249             2.235554
| 16>   H                      -5.489757            -0.618275            3.381762
| 17>   C                      -8.326062            2.645754             3.193357
| 18>   O                      -9.471380            1.834753             3.573380
| 19>   H                      -9.147680            1.019631             3.952367
| 20>   H                      -8.261319            2.762300             2.108534
| 21>   H                      -8.453512            3.660884             3.527145
| 22>   H                      -7.380208            2.241632             3.505309
| 23> *
| 24>
| 25> #Run DFT-D3 single point of the molecule with dimer basis set
| 26> $new_job
| 27> %base "16-124_DFT_A"
| 28> ! wB97X-D3 def2-TZVP TIGHTSCF CHELPG PMODEL
| 29>
| 30> %scf
| 31> MaxIter 1000
| 32> end
| 33>
| 34> * xyz 0 1
| 35>   C                      -6.453457            -0.292748            3.025583
| 36>   O                      -7.118976            0.113840             4.133951
| 37>   H                      -6.482829            0.713591             4.577241
| 38>   H                      -7.026724            -1.111261            2.492437
| 39>   H                      -6.333896            0.490249             2.235554
| 40>   H                      -5.489757            -0.618275            3.381762
| 41>   C                    : -8.326062            2.645754             3.193357
| 42>   O                    : -9.471380            1.834753             3.573380
| 43>   H                    : -9.147680            1.019631             3.952367
| 44>   H                    : -8.261319            2.762300             2.108534
| 45>   H                    : -8.453512            3.660884             3.527145
| 46>   H                    : -7.380208            2.241632             3.505309
| 47> *
| 48>
| 49> #Run DFT-D3 single point of the particle with dimer basis set
| 50> $new_job
| 51> %base "16-124_DFT_B"
| 52> ! wB97X-D3 def2-TZVP TIGHTSCF CHELPG PMODEL
| 53>
| 54> %scf
| 55> MaxIter 1000
| 56> end
| 57>
| 58> * xyz 0 1
| 59>   C                    : -6.453457            -0.292748            3.025583
| 60>   O                    : -7.118976            0.113840             4.133951
| 61>   H                    : -6.482829            0.713591             4.577241
| 62>   H                    : -7.026724            -1.111261            2.492437
| 63>   H                    : -6.333896            0.490249             2.235554
| 64>   H                    : -5.489757            -0.618275            3.381762
| 65>   C                      -8.326062            2.645754             3.193357
| 66>   O                      -9.471380            1.834753             3.573380
| 67>   H                      -9.147680            1.019631             3.952367
| 68>   H                      -8.261319            2.762300             2.108534
| 69>   H                      -8.453512            3.660884             3.527145
| 70>   H                      -7.380208            2.241632             3.505309
| 71> *
| 72>
| 73>                          ****END OF INPUT****
 Total Charge           Charge          ....    0
 Multiplicity           Mult            ....    1
 Number of Electrons    NEL             ....   36
Dispersion correction           -0.002267601
FINAL SINGLE POINT ENERGY      -231.466254284519
Dispersion correction           -0.000206607
FINAL SINGLE POINT ENERGY      -115.729675380822

CARTESIAN COORDINATES (ANGSTROEM)
---------------------------------
  C     -6.453457   -0.292748    3.025583
  O     -7.118976    0.113840    4.133951
  H     -6.482829    0.713591    4.577241
  H     -7.026724   -1.111261    2.492437
  H     -6.333896    0.490249    2.235554
  H     -5.489757   -0.618275    3.381762
  C     -8.326062    2.645754    3.193357
  O     -9.471380    1.834753    3.573380
  H     -9.147680    1.019631    3.952367
  H     -8.261319    2.762300    2.108534
  H     -8.453512    3.660884    3.527145
  H     -7.380208    2.241632    3.505309

 Multiplicity           Mult            ....    1
 Number of Electrons    NEL             ....   18
 Basis Dimension        Dim             ....  172

ORBITAL ENERGIES
----------------

  NO   OCC          E(Eh)            E(eV)
   0   2.0000     -19.230891      -523.2991
   1   2.0000     -10.312904      -280.6284
   2   2.0000      -1.125345       -30.6222
   3   2.0000      -0.802094       -21.8261
   4   2.0000      -0.608128       -16.5480
   5   2.0000      -0.531396       -14.4600
   6   2.0000      -0.527654       -14.3582
   7   2.0000      -0.442078       -12.0296
   8   2.0000      -0.373450       -10.1621
   9   0.0000       0.074141         2.0175
  10   0.0000       0.133088         3.6215
  11   0.0000       0.152090         4.1386
  12   0.0000       0.160474         4.3667
  13   0.0000       0.203481         5.5370

MULLIKEN ATOMIC CHARGES
-----------------------
   0 C :    0.001963
   1 O :   -0.005577
   2 H :    0.000120
   3 H :    0.000128
   4 H :   -0.002399
   5 H :   -0.000071
   6 C :   -0.166455
   7 O :   -0.482267
   8 H :    0.316698
   9 H :    0.109963
  10 H :    0.120166
  11 H :    0.107731
Sum of atomic charges:    0.0000000

LOEWDIN ATOMIC CHARGES
----------------------
   0 C :   -0.010123
   1 O :   -0.019067
   2 H :   -0.006317
   3 H :   -0.000211
   4 H :   -0.003121
   5 H :   -0.000119
   6 C :   -0.338928
   7 O :   -0.093135
   8 H :    0.164573
   9 H :    0.101262
  10 H :    0.100672
  11 H :    0.104514

  Mayer bond orders larger than 0.1
B(  6-C ,  7-O ) :   0.9931 B(  6-C ,  9-H ) :   0.9792 B(  6-C , 10-H ) :   0.9788
B(  6-C , 11-H ) :   0.9770 B(  7-O ,  8-H ) :   0.9060

Dispersion correction           -0.000267417
FINAL SINGLE POINT ENERGY      -115.733643530613

DIPOLE MOMENT
-------------
                                X             Y             Z
Electronic contribution:     -1.49461      -0.95321       0.53037
Nuclear contribution   :      2.18802       0.77711      -0.44703
                        -----------------------------------------
Total Dipole Moment    :      0.69342      -0.17610       0.08334
                        -----------------------------------------
Magnitude (a.u.)       :      0.72026
Magnitude (Debye)      :      1.83077

Rotational constants in cm-1:     4.450273     0.794290     0.760982
Rotational constants in MHz : 133415.840220 23812.202231 22813.668261

                             ****ORCA TERMINATED NORMALLY****
TOTAL RUN TIME: 0 days 0 hours 0 minutes 56 seconds 562 msec
