                         Program Version 4.1.2  - RELEASE  -
|  1> #Run DFT-D3 single point of the dimer
|  2> ! wB97X-D3 def2-TZVP TIGHTSCF CHELPG PMODEL PAL8
|  3>
|  4> %base "2-162_DFT_AB"
|  5>
|  6> %scf
|  7> MaxIter 1000
|  8> end
|  9>
| 10> * xyz 0 1
| 11>   C                      -0.158356            9.506197             3.981543
| 12>   O                      -0.410471            8.158518             3.815830
| 13>   H                      0.393744             7.667537             4.016496
| 14>   H                      0.655024             9.876577             3.386324
| 15>   H                      -1.039333            10.052744            3.675761
| 16>   H                      0.122370             9.895403             4.954957
| 17>   C                      3.420533             6.297204             5.717172
| 18>   O                      2.552240             6.255611             4.552327
| 19>   H                      3.144058             6.201157             3.813255
| 20>   H                      4.220448             5.524893             5.714721
| 21>   H                      4.002737             7.205981             5.743361
| 22>   H                      2.827530             6.360837             6.689454
| 23> *
| 24>
| 25> #Run DFT-D3 single point of the molecule with dimer basis set
| 26> $new_job
| 27> %base "2-162_DFT_A"
| 28> ! wB97X-D3 def2-TZVP TIGHTSCF CHELPG PMODEL
| 29>
| 30> %scf
| 31> MaxIter 1000
| 32> end
| 33>
| 34> * xyz 0 1
| 35>   C                      -0.158356            9.506197             3.981543
| 36>   O                      -0.410471            8.158518             3.815830
| 37>   H                      0.393744             7.667537             4.016496
| 38>   H                      0.655024             9.876577             3.386324
| 39>   H                      -1.039333            10.052744            3.675761
| 40>   H                      0.122370             9.895403             4.954957
| 41>   C                    : 3.420533             6.297204             5.717172
| 42>   O                    : 2.552240             6.255611             4.552327
| 43>   H                    : 3.144058             6.201157             3.813255
| 44>   H                    : 4.220448             5.524893             5.714721
| 45>   H                    : 4.002737             7.205981             5.743361
| 46>   H                    : 2.827530             6.360837             6.689454
| 47> *
| 48>
| 49> #Run DFT-D3 single point of the particle with dimer basis set
| 50> $new_job
| 51> %base "2-162_DFT_B"
| 52> ! wB97X-D3 def2-TZVP TIGHTSCF CHELPG PMODEL
| 53>
| 54> %scf
| 55> MaxIter 1000
| 56> end
| 57>
| 58> * xyz 0 1
| 59>   C                    : -0.158356            9.506197             3.981543
| 60>   O                    : -0.410471            8.158518             3.815830
| 61>   H                    : 0.393744             7.667537             4.016496
| 62>   H                    : 0.655024             9.876577             3.386324
| 63>   H                    : -1.039333            10.052744            3.675761
| 64>   H                    : 0.122370             9.895403             4.954957
| 65>   C                      3.420533             6.297204             5.717172
| 66>   O                      2.552240             6.255611             4.552327
| 67>   H                      3.144058             6.201157             3.813255
| 68>   H                      4.220448             5.524893             5.714721
| 69>   H                      4.002737             7.205981             5.743361
| 70>   H                      2.827530             6.360837             6.689454
| 71> *
| 72>
| 73>                          ****END OF INPUT****
 Total Charge           Charge          ....    0
 Multiplicity           Mult            ....    1
 Number of Electrons    NEL             ....   36
Dispersion correction           -0.001249948
FINAL SINGLE POINT ENERGY      -231.468986847096
Dispersion correction           -0.000242739
FINAL SINGLE POINT ENERGY      -115.733506528994

CARTESIAN COORDINATES (ANGSTROEM)
---------------------------------
  C     -0.158356    9.506197    3.981543
  O     -0.410471    8.158518    3.815830
  H      0.393744    7.667537    4.016496
  H      0.655024    9.876577    3.386324
  H     -1.039333   10.052744    3.675761
  H      0.122370    9.895403    4.954957
  C      3.420533    6.297204    5.717172
  O      2.552240    6.255611    4.552327
  H      3.144058    6.201157    3.813255
  H      4.220448    5.524893    5.714721
  H      4.002737    7.205981    5.743361
  H      2.827530    6.360837    6.689454

 Multiplicity           Mult            ....    1
 Number of Electrons    NEL             ....   18
 Basis Dimension        Dim             ....  172

ORBITAL ENERGIES
----------------

  NO   OCC          E(Eh)            E(eV)
   0   2.0000     -19.233664      -523.3746
   1   2.0000     -10.322925      -280.9011
   2   2.0000      -1.130967       -30.7752
   3   2.0000      -0.795294       -21.6411
   4   2.0000      -0.609489       -16.5850
   5   2.0000      -0.532899       -14.5009
   6   2.0000      -0.517051       -14.0697
   7   2.0000      -0.444846       -12.1049
   8   2.0000      -0.374595       -10.1932
   9   0.0000       0.094979         2.5845
  10   0.0000       0.119348         3.2476
  11   0.0000       0.147536         4.0147
  12   0.0000       0.186331         5.0703
  13   0.0000       0.199651         5.4328

MULLIKEN ATOMIC CHARGES
-----------------------
   0 C :   -0.000968
   1 O :    0.000290
   2 H :   -0.005448
   3 H :   -0.000153
   4 H :   -0.000099
   5 H :    0.000055
   6 C :   -0.182592
   7 O :   -0.460516
   8 H :    0.309240
   9 H :    0.106051
  10 H :    0.109146
  11 H :    0.124995
Sum of atomic charges:   -0.0000000

LOEWDIN ATOMIC CHARGES
----------------------
   0 C :   -0.000754
   1 O :   -0.000490
   2 H :   -0.011306
   3 H :   -0.000085
   4 H :   -0.000021
   5 H :   -0.000021
   6 C :   -0.370206
   7 O :   -0.086322
   8 H :    0.159837
   9 H :    0.098554
  10 H :    0.090805
  11 H :    0.120009

  Mayer bond orders larger than 0.1
B(  6-C ,  7-O ) :   0.9910 B(  6-C ,  9-H ) :   0.9693 B(  6-C , 10-H ) :   0.9745
B(  6-C , 11-H ) :   0.9733 B(  7-O ,  8-H ) :   0.9036

Dispersion correction           -0.000260724
FINAL SINGLE POINT ENERGY      -115.730353284787

DIPOLE MOMENT
-------------
                                X             Y             Z
Electronic contribution:     -1.28883      -0.15488      -1.41825
Nuclear contribution   :      2.04075       0.16291       1.42987
                        -----------------------------------------
Total Dipole Moment    :      0.75191       0.00803       0.01162
                        -----------------------------------------
Magnitude (a.u.)       :      0.75205
Magnitude (Debye)      :      1.91155

Rotational constants in cm-1:     4.256158     0.795508     0.754441
Rotational constants in MHz : 127596.393633 23848.733321 22617.574109

                             ****ORCA TERMINATED NORMALLY****
TOTAL RUN TIME: 0 days 0 hours 6 minutes 26 seconds 247 msec
