                         Program Version 4.1.2  - RELEASE  -
|  1> #Run DFT-D3 single point of the dimer
|  2> ! wB97X-D3 def2-TZVP TIGHTSCF CHELPG PMODEL PAL8
|  3>
|  4> %base "16-189_DFT_AB"
|  5>
|  6> %scf
|  7> MaxIter 1000
|  8> end
|  9>
| 10> * xyz 0 1
| 11>   C                      -7.316454            2.519714             -5.714495
| 12>   O                      -8.253568            3.568823             -5.868071
| 13>   H                      -8.943469            3.628476             -5.171581
| 14>   H                      -6.661630            2.451363             -6.563210
| 15>   H                      -6.733230            2.598841             -4.811686
| 16>   H                      -7.876300            1.578366             -5.571679
| 17>   C                      -7.470771            5.176291             -8.837146
| 18>   O                      -7.193721            5.724068             -7.566079
| 19>   H                      -7.082699            4.953122             -7.005484
| 20>   H                      -8.568869            5.324758             -9.142471
| 21>   H                      -6.883837            5.736098             -9.607915
| 22>   H                      -7.154908            4.148273             -8.892151
| 23> *
| 24>
| 25> #Run DFT-D3 single point of the molecule with dimer basis set
| 26> $new_job
| 27> %base "16-189_DFT_A"
| 28> ! wB97X-D3 def2-TZVP TIGHTSCF CHELPG PMODEL
| 29>
| 30> %scf
| 31> MaxIter 1000
| 32> end
| 33>
| 34> * xyz 0 1
| 35>   C                      -7.316454            2.519714             -5.714495
| 36>   O                      -8.253568            3.568823             -5.868071
| 37>   H                      -8.943469            3.628476             -5.171581
| 38>   H                      -6.661630            2.451363             -6.563210
| 39>   H                      -6.733230            2.598841             -4.811686
| 40>   H                      -7.876300            1.578366             -5.571679
| 41>   C                    : -7.470771            5.176291             -8.837146
| 42>   O                    : -7.193721            5.724068             -7.566079
| 43>   H                    : -7.082699            4.953122             -7.005484
| 44>   H                    : -8.568869            5.324758             -9.142471
| 45>   H                    : -6.883837            5.736098             -9.607915
| 46>   H                    : -7.154908            4.148273             -8.892151
| 47> *
| 48>
| 49> #Run DFT-D3 single point of the particle with dimer basis set
| 50> $new_job
| 51> %base "16-189_DFT_B"
| 52> ! wB97X-D3 def2-TZVP TIGHTSCF CHELPG PMODEL
| 53>
| 54> %scf
| 55> MaxIter 1000
| 56> end
| 57>
| 58> * xyz 0 1
| 59>   C                    : -7.316454            2.519714             -5.714495
| 60>   O                    : -8.253568            3.568823             -5.868071
| 61>   H                    : -8.943469            3.628476             -5.171581
| 62>   H                    : -6.661630            2.451363             -6.563210
| 63>   H                    : -6.733230            2.598841             -4.811686
| 64>   H                    : -7.876300            1.578366             -5.571679
| 65>   C                      -7.470771            5.176291             -8.837146
| 66>   O                      -7.193721            5.724068             -7.566079
| 67>   H                      -7.082699            4.953122             -7.005484
| 68>   H                      -8.568869            5.324758             -9.142471
| 69>   H                      -6.883837            5.736098             -9.607915
| 70>   H                      -7.154908            4.148273             -8.892151
| 71> *
| 72>
| 73>                          ****END OF INPUT****
 Total Charge           Charge          ....    0
 Multiplicity           Mult            ....    1
 Number of Electrons    NEL             ....   36
Dispersion correction           -0.001937061
FINAL SINGLE POINT ENERGY      -231.470839182399
Dispersion correction           -0.000250197
FINAL SINGLE POINT ENERGY      -115.733351457774

CARTESIAN COORDINATES (ANGSTROEM)
---------------------------------
  C     -7.316454    2.519714   -5.714495
  O     -8.253568    3.568823   -5.868071
  H     -8.943469    3.628476   -5.171581
  H     -6.661630    2.451363   -6.563210
  H     -6.733230    2.598841   -4.811686
  H     -7.876300    1.578366   -5.571679
  C     -7.470771    5.176291   -8.837146
  O     -7.193721    5.724068   -7.566079
  H     -7.082699    4.953122   -7.005484
  H     -8.568869    5.324758   -9.142471
  H     -6.883837    5.736098   -9.607915
  H     -7.154908    4.148273   -8.892151

 Multiplicity           Mult            ....    1
 Number of Electrons    NEL             ....   18
 Basis Dimension        Dim             ....  172

ORBITAL ENERGIES
----------------

  NO   OCC          E(Eh)            E(eV)
   0   2.0000     -19.233386      -523.3670
   1   2.0000     -10.319437      -280.8061
   2   2.0000      -1.141629       -31.0653
   3   2.0000      -0.788685       -21.4612
   4   2.0000      -0.614343       -16.7171
   5   2.0000      -0.535144       -14.5620
   6   2.0000      -0.526594       -14.3294
   7   2.0000      -0.440203       -11.9785
   8   2.0000      -0.372152       -10.1268
   9   0.0000       0.067661         1.8411
  10   0.0000       0.134118         3.6495
  11   0.0000       0.151465         4.1216
  12   0.0000       0.155744         4.2380
  13   0.0000       0.186733         5.0812

MULLIKEN ATOMIC CHARGES
-----------------------
   0 C :   -0.002058
   1 O :   -0.004726
   2 H :   -0.000636
   3 H :   -0.000732
   4 H :    0.000074
   5 H :   -0.000007
   6 C :   -0.173028
   7 O :   -0.454636
   8 H :    0.313185
   9 H :    0.101000
  10 H :    0.111083
  11 H :    0.110480
Sum of atomic charges:   -0.0000000

LOEWDIN ATOMIC CHARGES
----------------------
   0 C :   -0.005791
   1 O :   -0.013337
   2 H :   -0.000890
   3 H :   -0.001189
   4 H :   -0.000104
   5 H :   -0.000095
   6 C :   -0.396146
   7 O :   -0.062862
   8 H :    0.174540
   9 H :    0.106176
  10 H :    0.106782
  11 H :    0.092917

  Mayer bond orders larger than 0.1
B(  6-C ,  7-O ) :   1.0008 B(  6-C ,  9-H ) :   0.9704 B(  6-C , 10-H ) :   0.9778
B(  6-C , 11-H ) :   0.9813 B(  7-O ,  8-H ) :   0.9103

Dispersion correction           -0.000248127
FINAL SINGLE POINT ENERGY      -115.733016171715

DIPOLE MOMENT
-------------
                                X             Y             Z
Electronic contribution:      0.35914       0.76794       1.66289
Nuclear contribution   :     -0.35907      -1.46736      -1.79806
                        -----------------------------------------
Total Dipole Moment    :      0.00006      -0.69941      -0.13517
                        -----------------------------------------
Magnitude (a.u.)       :      0.71236
Magnitude (Debye)      :      1.81067

Rotational constants in cm-1:     4.129569     0.833925     0.804175
Rotational constants in MHz : 123801.353052 25000.438510 24108.568158

                             ****ORCA TERMINATED NORMALLY****
TOTAL RUN TIME: 0 days 0 hours 1 minutes 3 seconds 339 msec
