                         Program Version 4.1.2  - RELEASE  -
|  1> #Run DFT-D3 single point of the dimer
|  2> ! wB97X-D3 def2-TZVP TIGHTSCF CHELPG PMODEL PAL8
|  3>
|  4> %base "6-198_DFT_AB"
|  5>
|  6> %scf
|  7> MaxIter 1000
|  8> end
|  9>
| 10> * xyz 0 1
| 11>   C                      9.326026             -1.034013            -4.850640
| 12>   O                      9.129748             0.229723             -4.212329
| 13>   H                      9.307902             0.803627             -4.958503
| 14>   H                      8.687239             -1.144109            -5.750024
| 15>   H                      10.268350            -1.176932            -5.338406
| 16>   H                      9.144970             -1.879599            -4.214417
| 17>   C                      7.901909             0.421615             -1.397861
| 18>   O                      8.388678             -0.903477            -1.645681
| 19>   H                      8.347794             -1.011711            -2.624478
| 20>   H                      6.789285             0.488096             -1.529645
| 21>   H                      8.017625             0.587816             -0.284820
| 22>   H                      8.198702             1.272218             -2.006417
| 23> *
| 24>
| 25> #Run DFT-D3 single point of the molecule with dimer basis set
| 26> $new_job
| 27> %base "6-198_DFT_A"
| 28> ! wB97X-D3 def2-TZVP TIGHTSCF CHELPG PMODEL
| 29>
| 30> %scf
| 31> MaxIter 1000
| 32> end
| 33>
| 34> * xyz 0 1
| 35>   C                      9.326026             -1.034013            -4.850640
| 36>   O                      9.129748             0.229723             -4.212329
| 37>   H                      9.307902             0.803627             -4.958503
| 38>   H                      8.687239             -1.144109            -5.750024
| 39>   H                      10.268350            -1.176932            -5.338406
| 40>   H                      9.144970             -1.879599            -4.214417
| 41>   C                    : 7.901909             0.421615             -1.397861
| 42>   O                    : 8.388678             -0.903477            -1.645681
| 43>   H                    : 8.347794             -1.011711            -2.624478
| 44>   H                    : 6.789285             0.488096             -1.529645
| 45>   H                    : 8.017625             0.587816             -0.284820
| 46>   H                    : 8.198702             1.272218             -2.006417
| 47> *
| 48>
| 49> #Run DFT-D3 single point of the particle with dimer basis set
| 50> $new_job
| 51> %base "6-198_DFT_B"
| 52> ! wB97X-D3 def2-TZVP TIGHTSCF CHELPG PMODEL
| 53>
| 54> %scf
| 55> MaxIter 1000
| 56> end
| 57>
| 58> * xyz 0 1
| 59>   C                    : 9.326026             -1.034013            -4.850640
| 60>   O                    : 9.129748             0.229723             -4.212329
| 61>   H                    : 9.307902             0.803627             -4.958503
| 62>   H                    : 8.687239             -1.144109            -5.750024
| 63>   H                    : 10.268350            -1.176932            -5.338406
| 64>   H                    : 9.144970             -1.879599            -4.214417
| 65>   C                      7.901909             0.421615             -1.397861
| 66>   O                      8.388678             -0.903477            -1.645681
| 67>   H                      8.347794             -1.011711            -2.624478
| 68>   H                      6.789285             0.488096             -1.529645
| 69>   H                      8.017625             0.587816             -0.284820
| 70>   H                      8.198702             1.272218             -2.006417
| 71> *
| 72>
| 73>                          ****END OF INPUT****
 Total Charge           Charge          ....    0
 Multiplicity           Mult            ....    1
 Number of Electrons    NEL             ....   36
Dispersion correction           -0.002013921
FINAL SINGLE POINT ENERGY      -231.460366527649
Dispersion correction           -0.000229598
FINAL SINGLE POINT ENERGY      -115.729861118444

CARTESIAN COORDINATES (ANGSTROEM)
---------------------------------
  C      9.326026   -1.034013   -4.850640
  O      9.129748    0.229723   -4.212329
  H      9.307902    0.803627   -4.958503
  H      8.687239   -1.144109   -5.750024
  H     10.268350   -1.176932   -5.338406
  H      9.144970   -1.879599   -4.214417
  C      7.901909    0.421615   -1.397861
  O      8.388678   -0.903477   -1.645681
  H      8.347794   -1.011711   -2.624478
  H      6.789285    0.488096   -1.529645
  H      8.017625    0.587816   -0.284820
  H      8.198702    1.272218   -2.006417

 Multiplicity           Mult            ....    1
 Number of Electrons    NEL             ....   18
 Basis Dimension        Dim             ....  172

ORBITAL ENERGIES
----------------

  NO   OCC          E(Eh)            E(eV)
   0   2.0000     -19.240868      -523.5706
   1   2.0000     -10.320685      -280.8401
   2   2.0000      -1.131162       -30.7805
   3   2.0000      -0.791664       -21.5423
   4   2.0000      -0.614282       -16.7154
   5   2.0000      -0.525753       -14.3065
   6   2.0000      -0.516787       -14.0625
   7   2.0000      -0.447372       -12.1736
   8   2.0000      -0.372483       -10.1358
   9   0.0000       0.070155         1.9090
  10   0.0000       0.132146         3.5959
  11   0.0000       0.142502         3.8777
  12   0.0000       0.169879         4.6227
  13   0.0000       0.192962         5.2508

MULLIKEN ATOMIC CHARGES
-----------------------
   0 C :   -0.005678
   1 O :   -0.004320
   2 H :   -0.000405
   3 H :    0.000326
   4 H :    0.000146
   5 H :   -0.000502
   6 C :   -0.196409
   7 O :   -0.453982
   8 H :    0.315187
   9 H :    0.103938
  10 H :    0.126556
  11 H :    0.115142
Sum of atomic charges:    0.0000000

LOEWDIN ATOMIC CHARGES
----------------------
   0 C :   -0.013961
   1 O :   -0.014039
   2 H :   -0.000544
   3 H :   -0.000170
   4 H :   -0.000175
   5 H :   -0.005305
   6 C :   -0.392302
   7 O :   -0.078341
   8 H :    0.192981
   9 H :    0.098156
  10 H :    0.118582
  11 H :    0.095118

  Mayer bond orders larger than 0.1
B(  6-C ,  7-O ) :   1.0038 B(  6-C ,  9-H ) :   0.9782 B(  6-C , 10-H ) :   0.9762
B(  6-C , 11-H ) :   0.9592 B(  7-O ,  8-H ) :   0.9015

Dispersion correction           -0.000274097
FINAL SINGLE POINT ENERGY      -115.728923085232

DIPOLE MOMENT
-------------
                                X             Y             Z
Electronic contribution:      0.89398      -1.74024      -0.26413
Nuclear contribution   :     -1.11687       2.18620      -0.23739
                        -----------------------------------------
Total Dipole Moment    :     -0.22290       0.44596      -0.50152
                        -----------------------------------------
Magnitude (a.u.)       :      0.70717
Magnitude (Debye)      :      1.79748

Rotational constants in cm-1:     4.229235     0.809252     0.766146
Rotational constants in MHz : 126789.286649 24260.768713 22968.464863

                             ****ORCA TERMINATED NORMALLY****
TOTAL RUN TIME: 0 days 0 hours 1 minutes 9 seconds 559 msec
