                         Program Version 4.1.2  - RELEASE  -
|  1> #Run DFT-D3 single point of the dimer
|  2> ! wB97X-D3 def2-TZVP TIGHTSCF CHELPG PMODEL PAL8
|  3>
|  4> %base "14-210_DFT_AB"
|  5>
|  6> %scf
|  7> MaxIter 1000
|  8> end
|  9>
| 10> * xyz 0 1
| 11>   C                      -1.373571            -3.705527            -1.475902
| 12>   O                      -0.162708            -4.425237            -1.466912
| 13>   H                      0.089455             -4.407431            -2.392354
| 14>   H                      -1.579773            -3.360214            -2.541240
| 15>   H                      -2.206806            -4.307433            -1.158718
| 16>   H                      -1.376935            -2.795446            -0.873516
| 17>   C                      -0.225415            -6.095642            1.633426
| 18>   O                      0.536393             -4.945777            1.263949
| 19>   H                      0.282742             -4.668539            0.398102
| 20>   H                      -0.303400            -6.885576            0.849981
| 21>   H                      0.171865             -6.535752            2.542253
| 22>   H                      -1.226510            -5.752249            1.770612
| 23> *
| 24>
| 25> #Run DFT-D3 single point of the molecule with dimer basis set
| 26> $new_job
| 27> %base "14-210_DFT_A"
| 28> ! wB97X-D3 def2-TZVP TIGHTSCF CHELPG PMODEL
| 29>
| 30> %scf
| 31> MaxIter 1000
| 32> end
| 33>
| 34> * xyz 0 1
| 35>   C                      -1.373571            -3.705527            -1.475902
| 36>   O                      -0.162708            -4.425237            -1.466912
| 37>   H                      0.089455             -4.407431            -2.392354
| 38>   H                      -1.579773            -3.360214            -2.541240
| 39>   H                      -2.206806            -4.307433            -1.158718
| 40>   H                      -1.376935            -2.795446            -0.873516
| 41>   C                    : -0.225415            -6.095642            1.633426
| 42>   O                    : 0.536393             -4.945777            1.263949
| 43>   H                    : 0.282742             -4.668539            0.398102
| 44>   H                    : -0.303400            -6.885576            0.849981
| 45>   H                    : 0.171865             -6.535752            2.542253
| 46>   H                    : -1.226510            -5.752249            1.770612
| 47> *
| 48>
| 49> #Run DFT-D3 single point of the particle with dimer basis set
| 50> $new_job
| 51> %base "14-210_DFT_B"
| 52> ! wB97X-D3 def2-TZVP TIGHTSCF CHELPG PMODEL
| 53>
| 54> %scf
| 55> MaxIter 1000
| 56> end
| 57>
| 58> * xyz 0 1
| 59>   C                    : -1.373571            -3.705527            -1.475902
| 60>   O                    : -0.162708            -4.425237            -1.466912
| 61>   H                    : 0.089455             -4.407431            -2.392354
| 62>   H                    : -1.579773            -3.360214            -2.541240
| 63>   H                    : -2.206806            -4.307433            -1.158718
| 64>   H                    : -1.376935            -2.795446            -0.873516
| 65>   C                      -0.225415            -6.095642            1.633426
| 66>   O                      0.536393             -4.945777            1.263949
| 67>   H                      0.282742             -4.668539            0.398102
| 68>   H                      -0.303400            -6.885576            0.849981
| 69>   H                      0.171865             -6.535752            2.542253
| 70>   H                      -1.226510            -5.752249            1.770612
| 71> *
| 72>
| 73>                          ****END OF INPUT****
 Total Charge           Charge          ....    0
 Multiplicity           Mult            ....    1
 Number of Electrons    NEL             ....   36
Dispersion correction           -0.001902975
FINAL SINGLE POINT ENERGY      -231.473309157988
Dispersion correction           -0.000239269
FINAL SINGLE POINT ENERGY      -115.732131159950

CARTESIAN COORDINATES (ANGSTROEM)
---------------------------------
  C     -1.373571   -3.705527   -1.475902
  O     -0.162708   -4.425237   -1.466912
  H      0.089455   -4.407431   -2.392354
  H     -1.579773   -3.360214   -2.541240
  H     -2.206806   -4.307433   -1.158718
  H     -1.376935   -2.795446   -0.873516
  C     -0.225415   -6.095642    1.633426
  O      0.536393   -4.945777    1.263949
  H      0.282742   -4.668539    0.398102
  H     -0.303400   -6.885576    0.849981
  H      0.171865   -6.535752    2.542253
  H     -1.226510   -5.752249    1.770612

 Multiplicity           Mult            ....    1
 Number of Electrons    NEL             ....   18
 Basis Dimension        Dim             ....  172

ORBITAL ENERGIES
----------------

  NO   OCC          E(Eh)            E(eV)
   0   2.0000     -19.227794      -523.2149
   1   2.0000     -10.313650      -280.6487
   2   2.0000      -1.134356       -30.8674
   3   2.0000      -0.799214       -21.7477
   4   2.0000      -0.611733       -16.6461
   5   2.0000      -0.542527       -14.7629
   6   2.0000      -0.525038       -14.2870
   7   2.0000      -0.437581       -11.9072
   8   2.0000      -0.372062       -10.1243
   9   0.0000       0.069036         1.8786
  10   0.0000       0.138089         3.7576
  11   0.0000       0.148911         4.0521
  12   0.0000       0.160949         4.3796
  13   0.0000       0.198199         5.3933

MULLIKEN ATOMIC CHARGES
-----------------------
   0 C :   -0.006635
   1 O :   -0.004717
   2 H :   -0.000434
   3 H :   -0.000161
   4 H :    0.000696
   5 H :    0.000440
   6 C :   -0.159099
   7 O :   -0.475797
   8 H :    0.315024
   9 H :    0.098849
  10 H :    0.124569
  11 H :    0.107265
Sum of atomic charges:    0.0000000

LOEWDIN ATOMIC CHARGES
----------------------
   0 C :   -0.007378
   1 O :   -0.019740
   2 H :   -0.000808
   3 H :   -0.000154
   4 H :   -0.000335
   5 H :   -0.000703
   6 C :   -0.366906
   7 O :   -0.066849
   8 H :    0.165123
   9 H :    0.098422
  10 H :    0.107757
  11 H :    0.091572

  Mayer bond orders larger than 0.1
B(  6-C ,  7-O ) :   0.9778 B(  6-C ,  9-H ) :   0.9718 B(  6-C , 10-H ) :   0.9746
B(  6-C , 11-H ) :   0.9839 B(  7-O ,  8-H ) :   0.9102

Dispersion correction           -0.000239196
FINAL SINGLE POINT ENERGY      -115.734552846429

DIPOLE MOMENT
-------------
                                X             Y             Z
Electronic contribution:      1.08288       1.40898      -0.28052
Nuclear contribution   :     -1.56414      -1.70309      -0.10774
                        -----------------------------------------
Total Dipole Moment    :     -0.48126      -0.29411      -0.38826
                        -----------------------------------------
Magnitude (a.u.)       :      0.68473
Magnitude (Debye)      :      1.74045

Rotational constants in cm-1:     4.363417     0.822133     0.788070
Rotational constants in MHz : 130811.961326 24646.940343 23625.735983

                             ****ORCA TERMINATED NORMALLY****
TOTAL RUN TIME: 0 days 0 hours 1 minutes 9 seconds 781 msec
