                         Program Version 4.1.2  - RELEASE  -
|  1> #Run DFT-D3 single point of the dimer
|  2> ! wB97X-D3 def2-TZVP TIGHTSCF CHELPG PMODEL PAL8
|  3>
|  4> %base "3-46_DFT_AB"
|  5>
|  6> %scf
|  7> MaxIter 1000
|  8> end
|  9>
| 10> * xyz 0 1
| 11>   C                      -3.289817            3.839313             -6.482746
| 12>   O                      -4.185576            4.250906             -7.462851
| 13>   H                      -4.707539            3.455339             -7.545012
| 14>   H                      -3.645948            3.191517             -5.758856
| 15>   H                      -2.405513            3.242529             -6.901142
| 16>   H                      -2.662676            4.632680             -6.020365
| 17>   C                      -5.693072            1.112097             -3.767097
| 18>   O                      -6.108488            1.713460             -2.566644
| 19>   H                      -6.511621            1.097057             -1.946003
| 20>   H                      -5.085930            0.251614             -3.445419
| 21>   H                      -6.602067            0.636664             -4.169847
| 22>   H                      -5.104219            1.728336             -4.437093
| 23> *
| 24>
| 25> #Run DFT-D3 single point of the molecule with dimer basis set
| 26> $new_job
| 27> %base "3-46_DFT_A"
| 28> ! wB97X-D3 def2-TZVP TIGHTSCF CHELPG PMODEL
| 29>
| 30> %scf
| 31> MaxIter 1000
| 32> end
| 33>
| 34> * xyz 0 1
| 35>   C                      -3.289817            3.839313             -6.482746
| 36>   O                      -4.185576            4.250906             -7.462851
| 37>   H                      -4.707539            3.455339             -7.545012
| 38>   H                      -3.645948            3.191517             -5.758856
| 39>   H                      -2.405513            3.242529             -6.901142
| 40>   H                      -2.662676            4.632680             -6.020365
| 41>   C                    : -5.693072            1.112097             -3.767097
| 42>   O                    : -6.108488            1.713460             -2.566644
| 43>   H                    : -6.511621            1.097057             -1.946003
| 44>   H                    : -5.085930            0.251614             -3.445419
| 45>   H                    : -6.602067            0.636664             -4.169847
| 46>   H                    : -5.104219            1.728336             -4.437093
| 47> *
| 48>
| 49> #Run DFT-D3 single point of the particle with dimer basis set
| 50> $new_job
| 51> %base "3-46_DFT_B"
| 52> ! wB97X-D3 def2-TZVP TIGHTSCF CHELPG PMODEL
| 53>
| 54> %scf
| 55> MaxIter 1000
| 56> end
| 57>
| 58> * xyz 0 1
| 59>   C                    : -3.289817            3.839313             -6.482746
| 60>   O                    : -4.185576            4.250906             -7.462851
| 61>   H                    : -4.707539            3.455339             -7.545012
| 62>   H                    : -3.645948            3.191517             -5.758856
| 63>   H                    : -2.405513            3.242529             -6.901142
| 64>   H                    : -2.662676            4.632680             -6.020365
| 65>   C                      -5.693072            1.112097             -3.767097
| 66>   O                      -6.108488            1.713460             -2.566644
| 67>   H                      -6.511621            1.097057             -1.946003
| 68>   H                      -5.085930            0.251614             -3.445419
| 69>   H                      -6.602067            0.636664             -4.169847
| 70>   H                      -5.104219            1.728336             -4.437093
| 71> *
| 72>
| 73>                          ****END OF INPUT****
 Total Charge           Charge          ....    0
 Multiplicity           Mult            ....    1
 Number of Electrons    NEL             ....   36
Dispersion correction           -0.001022980
FINAL SINGLE POINT ENERGY      -231.450877599902
Dispersion correction           -0.000235394
FINAL SINGLE POINT ENERGY      -115.723685260764

CARTESIAN COORDINATES (ANGSTROEM)
---------------------------------
  C     -3.289817    3.839313   -6.482746
  O     -4.185576    4.250906   -7.462851
  H     -4.707539    3.455339   -7.545012
  H     -3.645948    3.191517   -5.758856
  H     -2.405513    3.242529   -6.901142
  H     -2.662676    4.632680   -6.020365
  C     -5.693072    1.112097   -3.767097
  O     -6.108488    1.713460   -2.566644
  H     -6.511621    1.097057   -1.946003
  H     -5.085930    0.251614   -3.445419
  H     -6.602067    0.636664   -4.169847
  H     -5.104219    1.728336   -4.437093

 Multiplicity           Mult            ....    1
 Number of Electrons    NEL             ....   18
 Basis Dimension        Dim             ....  172

ORBITAL ENERGIES
----------------

  NO   OCC          E(Eh)            E(eV)
   0   2.0000     -19.221911      -523.0548
   1   2.0000     -10.314130      -280.6617
   2   2.0000      -1.132896       -30.8277
   3   2.0000      -0.794688       -21.6245
   4   2.0000      -0.609384       -16.5822
   5   2.0000      -0.548747       -14.9322
   6   2.0000      -0.532189       -14.4816
   7   2.0000      -0.423403       -11.5214
   8   2.0000      -0.362153        -9.8547
   9   0.0000       0.087101         2.3701
  10   0.0000       0.112644         3.0652
  11   0.0000       0.156042         4.2461
  12   0.0000       0.166564         4.5324
  13   0.0000       0.193052         5.2532

MULLIKEN ATOMIC CHARGES
-----------------------
   0 C :   -0.002232
   1 O :    0.000017
   2 H :   -0.000053
   3 H :    0.003518
   4 H :    0.000094
   5 H :    0.000048
   6 C :   -0.161709
   7 O :   -0.489941
   8 H :    0.319487
   9 H :    0.099597
  10 H :    0.100697
  11 H :    0.130480
Sum of atomic charges:    0.0000000

LOEWDIN ATOMIC CHARGES
----------------------
   0 C :   -0.001063
   1 O :   -0.000004
   2 H :   -0.000064
   3 H :   -0.002863
   4 H :   -0.000005
   5 H :   -0.000004
   6 C :   -0.384096
   7 O :   -0.084778
   8 H :    0.169797
   9 H :    0.096965
  10 H :    0.098143
  11 H :    0.107970

  Mayer bond orders larger than 0.1
B(  6-C ,  7-O ) :   0.9924 B(  6-C ,  9-H ) :   0.9904 B(  6-C , 10-H ) :   0.9882
B(  6-C , 11-H ) :   0.9617 B(  7-O ,  8-H ) :   0.8918

Dispersion correction           -0.000214825
FINAL SINGLE POINT ENERGY      -115.727287989785

DIPOLE MOMENT
-------------
                                X             Y             Z
Electronic contribution:     -0.41621       1.07282       1.28311
Nuclear contribution   :      0.33963      -1.72458      -1.36344
                        -----------------------------------------
Total Dipole Moment    :     -0.07658      -0.65176      -0.08033
                        -----------------------------------------
Magnitude (a.u.)       :      0.66114
Magnitude (Debye)      :      1.68049

Rotational constants in cm-1:     4.280880     0.846829     0.809094
Rotational constants in MHz : 128337.547650 25387.300856 24256.041407

                             ****ORCA TERMINATED NORMALLY****
TOTAL RUN TIME: 0 days 0 hours 6 minutes 21 seconds 558 msec
