                         Program Version 4.1.2  - RELEASE  -
|  1> #Run DFT-D3 single point of the dimer
|  2> ! wB97X-D3 def2-TZVP TIGHTSCF CHELPG PMODEL PAL8
|  3>
|  4> %base "3-192_DFT_AB"
|  5>
|  6> %scf
|  7> MaxIter 1000
|  8> end
|  9>
| 10> * xyz 0 1
| 11>   C                      -2.126235            -0.360681            -2.637112
| 12>   O                      -1.117700            -1.154782            -3.243928
| 13>   H                      -0.344218            -1.171476            -2.675353
| 14>   H                      -2.847046            -0.072665            -3.423563
| 15>   H                      -2.661588            -0.937043            -1.872576
| 16>   H                      -1.636193            0.528980             -2.202952
| 17>   C                      3.443133             -0.202430            -2.160628
| 18>   O                      2.443729             -0.828552            -1.398235
| 19>   H                      2.485112             -0.502580            -0.506503
| 20>   H                      3.669809             -0.694612            -3.092082
| 21>   H                      3.078691             0.754696             -2.331958
| 22>   H                      4.386153             -0.088882            -1.599630
| 23> *
| 24>
| 25> #Run DFT-D3 single point of the molecule with dimer basis set
| 26> $new_job
| 27> %base "3-192_DFT_A"
| 28> ! wB97X-D3 def2-TZVP TIGHTSCF CHELPG PMODEL
| 29>
| 30> %scf
| 31> MaxIter 1000
| 32> end
| 33>
| 34> * xyz 0 1
| 35>   C                      -2.126235            -0.360681            -2.637112
| 36>   O                      -1.117700            -1.154782            -3.243928
| 37>   H                      -0.344218            -1.171476            -2.675353
| 38>   H                      -2.847046            -0.072665            -3.423563
| 39>   H                      -2.661588            -0.937043            -1.872576
| 40>   H                      -1.636193            0.528980             -2.202952
| 41>   C                    : 3.443133             -0.202430            -2.160628
| 42>   O                    : 2.443729             -0.828552            -1.398235
| 43>   H                    : 2.485112             -0.502580            -0.506503
| 44>   H                    : 3.669809             -0.694612            -3.092082
| 45>   H                    : 3.078691             0.754696             -2.331958
| 46>   H                    : 4.386153             -0.088882            -1.599630
| 47> *
| 48>
| 49> #Run DFT-D3 single point of the particle with dimer basis set
| 50> $new_job
| 51> %base "3-192_DFT_B"
| 52> ! wB97X-D3 def2-TZVP TIGHTSCF CHELPG PMODEL
| 53>
| 54> %scf
| 55> MaxIter 1000
| 56> end
| 57>
| 58> * xyz 0 1
| 59>   C                    : -2.126235            -0.360681            -2.637112
| 60>   O                    : -1.117700            -1.154782            -3.243928
| 61>   H                    : -0.344218            -1.171476            -2.675353
| 62>   H                    : -2.847046            -0.072665            -3.423563
| 63>   H                    : -2.661588            -0.937043            -1.872576
| 64>   H                    : -1.636193            0.528980             -2.202952
| 65>   C                      3.443133             -0.202430            -2.160628
| 66>   O                      2.443729             -0.828552            -1.398235
| 67>   H                      2.485112             -0.502580            -0.506503
| 68>   H                      3.669809             -0.694612            -3.092082
| 69>   H                      3.078691             0.754696             -2.331958
| 70>   H                      4.386153             -0.088882            -1.599630
| 71> *
| 72>
| 73>                          ****END OF INPUT****
 Total Charge           Charge          ....    0
 Multiplicity           Mult            ....    1
 Number of Electrons    NEL             ....   36
Dispersion correction           -0.000985406
FINAL SINGLE POINT ENERGY      -231.470846700315
Dispersion correction           -0.000235215
FINAL SINGLE POINT ENERGY      -115.736131716520

CARTESIAN COORDINATES (ANGSTROEM)
---------------------------------
  C     -2.126235   -0.360681   -2.637112
  O     -1.117700   -1.154782   -3.243928
  H     -0.344218   -1.171476   -2.675353
  H     -2.847046   -0.072665   -3.423563
  H     -2.661588   -0.937043   -1.872576
  H     -1.636193    0.528980   -2.202952
  C      3.443133   -0.202430   -2.160628
  O      2.443729   -0.828552   -1.398235
  H      2.485112   -0.502580   -0.506503
  H      3.669809   -0.694612   -3.092082
  H      3.078691    0.754696   -2.331958
  H      4.386153   -0.088882   -1.599630

 Multiplicity           Mult            ....    1
 Number of Electrons    NEL             ....   18
 Basis Dimension        Dim             ....  172

ORBITAL ENERGIES
----------------

  NO   OCC          E(Eh)            E(eV)
   0   2.0000     -19.225483      -523.1520
   1   2.0000     -10.305081      -280.4155
   2   2.0000      -1.139374       -31.0039
   3   2.0000      -0.800516       -21.7831
   4   2.0000      -0.612934       -16.6788
   5   2.0000      -0.551206       -14.9991
   6   2.0000      -0.531709       -14.4685
   7   2.0000      -0.431831       -11.7507
   8   2.0000      -0.370104       -10.0710
   9   0.0000       0.095006         2.5853
  10   0.0000       0.118386         3.2214
  11   0.0000       0.158547         4.3143
  12   0.0000       0.181738         4.9453
  13   0.0000       0.198659         5.4058

MULLIKEN ATOMIC CHARGES
-----------------------
   0 C :    0.000431
   1 O :    0.000467
   2 H :   -0.004832
   3 H :   -0.000027
   4 H :   -0.000005
   5 H :   -0.000470
   6 C :   -0.150272
   7 O :   -0.477860
   8 H :    0.314339
   9 H :    0.118226
  10 H :    0.105059
  11 H :    0.094944
Sum of atomic charges:   -0.0000000

LOEWDIN ATOMIC CHARGES
----------------------
   0 C :   -0.000146
   1 O :   -0.000136
   2 H :   -0.004820
   3 H :   -0.000002
   4 H :   -0.000001
   5 H :   -0.000111
   6 C :   -0.379327
   7 O :   -0.066650
   8 H :    0.163750
   9 H :    0.105112
  10 H :    0.085065
  11 H :    0.097266

  Mayer bond orders larger than 0.1
B(  6-C ,  7-O ) :   0.9822 B(  6-C ,  9-H ) :   0.9712 B(  6-C , 10-H ) :   0.9891
B(  6-C , 11-H ) :   0.9778 B(  7-O ,  8-H ) :   0.8986

Dispersion correction           -0.000215848
FINAL SINGLE POINT ENERGY      -115.731499046945

DIPOLE MOMENT
-------------
                                X             Y             Z
Electronic contribution:     -1.29819      -0.92180       0.77252
Nuclear contribution   :      1.74004       1.39672      -0.51117
                        -----------------------------------------
Total Dipole Moment    :      0.44186       0.47492       0.26135
                        -----------------------------------------
Magnitude (a.u.)       :      0.69935
Magnitude (Debye)      :      1.77760

Rotational constants in cm-1:     4.466617     0.848290     0.813775
Rotational constants in MHz : 133905.797052 25431.102308 24396.364089

                             ****ORCA TERMINATED NORMALLY****
TOTAL RUN TIME: 0 days 0 hours 6 minutes 20 seconds 156 msec
