                         Program Version 4.1.2  - RELEASE  -
|  1> #Run DFT-D3 single point of the dimer
|  2> ! wB97X-D3 def2-TZVP TIGHTSCF CHELPG PMODEL PAL8
|  3>
|  4> %base "5-170_DFT_AB"
|  5>
|  6> %scf
|  7> MaxIter 1000
|  8> end
|  9>
| 10> * xyz 0 1
| 11>   C                      1.407148             4.682785             -1.985167
| 12>   O                      0.389347             3.689952             -1.839461
| 13>   H                      0.932256             2.871912             -1.913617
| 14>   H                      2.081969             4.400590             -2.813521
| 15>   H                      0.881962             5.514447             -2.269096
| 16>   H                      1.978033             4.889483             -1.053356
| 17>   C                      4.929849             5.519204             -3.312693
| 18>   O                      4.791169             4.298609             -2.691907
| 19>   H                      4.377090             4.461801             -1.862990
| 20>   H                      5.868760             5.594581             -3.957458
| 21>   H                      4.101892             5.726034             -4.045604
| 22>   H                      5.026957             6.366105             -2.589375
| 23> *
| 24>
| 25> #Run DFT-D3 single point of the molecule with dimer basis set
| 26> $new_job
| 27> %base "5-170_DFT_A"
| 28> ! wB97X-D3 def2-TZVP TIGHTSCF CHELPG PMODEL
| 29>
| 30> %scf
| 31> MaxIter 1000
| 32> end
| 33>
| 34> * xyz 0 1
| 35>   C                      1.407148             4.682785             -1.985167
| 36>   O                      0.389347             3.689952             -1.839461
| 37>   H                      0.932256             2.871912             -1.913617
| 38>   H                      2.081969             4.400590             -2.813521
| 39>   H                      0.881962             5.514447             -2.269096
| 40>   H                      1.978033             4.889483             -1.053356
| 41>   C                    : 4.929849             5.519204             -3.312693
| 42>   O                    : 4.791169             4.298609             -2.691907
| 43>   H                    : 4.377090             4.461801             -1.862990
| 44>   H                    : 5.868760             5.594581             -3.957458
| 45>   H                    : 4.101892             5.726034             -4.045604
| 46>   H                    : 5.026957             6.366105             -2.589375
| 47> *
| 48>
| 49> #Run DFT-D3 single point of the particle with dimer basis set
| 50> $new_job
| 51> %base "5-170_DFT_B"
| 52> ! wB97X-D3 def2-TZVP TIGHTSCF CHELPG PMODEL
| 53>
| 54> %scf
| 55> MaxIter 1000
| 56> end
| 57>
| 58> * xyz 0 1
| 59>   C                    : 1.407148             4.682785             -1.985167
| 60>   O                    : 0.389347             3.689952             -1.839461
| 61>   H                    : 0.932256             2.871912             -1.913617
| 62>   H                    : 2.081969             4.400590             -2.813521
| 63>   H                    : 0.881962             5.514447             -2.269096
| 64>   H                    : 1.978033             4.889483             -1.053356
| 65>   C                      4.929849             5.519204             -3.312693
| 66>   O                      4.791169             4.298609             -2.691907
| 67>   H                      4.377090             4.461801             -1.862990
| 68>   H                      5.868760             5.594581             -3.957458
| 69>   H                      4.101892             5.726034             -4.045604
| 70>   H                      5.026957             6.366105             -2.589375
| 71> *
| 72>
| 73>                          ****END OF INPUT****
 Total Charge           Charge          ....    0
 Multiplicity           Mult            ....    1
 Number of Electrons    NEL             ....   36
Dispersion correction           -0.001866420
FINAL SINGLE POINT ENERGY      -231.464175685450
Dispersion correction           -0.000223118
FINAL SINGLE POINT ENERGY      -115.730153181396

CARTESIAN COORDINATES (ANGSTROEM)
---------------------------------
  C      1.407148    4.682785   -1.985167
  O      0.389347    3.689952   -1.839461
  H      0.932256    2.871912   -1.913617
  H      2.081969    4.400590   -2.813521
  H      0.881962    5.514447   -2.269096
  H      1.978033    4.889483   -1.053356
  C      4.929849    5.519204   -3.312693
  O      4.791169    4.298609   -2.691907
  H      4.377090    4.461801   -1.862990
  H      5.868760    5.594581   -3.957458
  H      4.101892    5.726034   -4.045604
  H      5.026957    6.366105   -2.589375

 Multiplicity           Mult            ....    1
 Number of Electrons    NEL             ....   18
 Basis Dimension        Dim             ....  172

ORBITAL ENERGIES
----------------

  NO   OCC          E(Eh)            E(eV)
   0   2.0000     -19.234512      -523.3977
   1   2.0000     -10.321744      -280.8689
   2   2.0000      -1.156703       -31.4755
   3   2.0000      -0.789624       -21.4867
   4   2.0000      -0.621946       -16.9240
   5   2.0000      -0.542283       -14.7563
   6   2.0000      -0.531851       -14.4724
   7   2.0000      -0.430171       -11.7055
   8   2.0000      -0.373519       -10.1640
   9   0.0000       0.078041         2.1236
  10   0.0000       0.131725         3.5844
  11   0.0000       0.146750         3.9933
  12   0.0000       0.173260         4.7146
  13   0.0000       0.184979         5.0335

MULLIKEN ATOMIC CHARGES
-----------------------
   0 C :   -0.003738
   1 O :    0.000103
   2 H :   -0.000051
   3 H :   -0.003556
   4 H :   -0.000405
   5 H :   -0.000561
   6 C :   -0.179342
   7 O :   -0.448750
   8 H :    0.319480
   9 H :    0.113793
  10 H :    0.101146
  11 H :    0.101879
Sum of atomic charges:   -0.0000000

LOEWDIN ATOMIC CHARGES
----------------------
   0 C :   -0.007425
   1 O :   -0.000027
   2 H :   -0.000062
   3 H :   -0.006293
   4 H :   -0.000082
   5 H :   -0.001588
   6 C :   -0.429686
   7 O :   -0.027365
   8 H :    0.164027
   9 H :    0.111738
  10 H :    0.098645
  11 H :    0.098119

  Mayer bond orders larger than 0.1
B(  6-C ,  7-O ) :   1.0129 B(  6-C ,  9-H ) :   0.9729 B(  6-C , 10-H ) :   0.9727
B(  6-C , 11-H ) :   0.9836 B(  7-O ,  8-H ) :   0.9003

Dispersion correction           -0.000248832
FINAL SINGLE POINT ENERGY      -115.732701941949

DIPOLE MOMENT
-------------
                                X             Y             Z
Electronic contribution:     -0.16694      -1.79147       0.83231
Nuclear contribution   :     -0.02370       2.33686      -0.50671
                        -----------------------------------------
Total Dipole Moment    :     -0.19064       0.54538       0.32560
                        -----------------------------------------
Magnitude (a.u.)       :      0.66318
Magnitude (Debye)      :      1.68566

Rotational constants in cm-1:     4.213624     0.853983     0.824218
Rotational constants in MHz : 126321.277452 25601.777513 24709.442379

                             ****ORCA TERMINATED NORMALLY****
TOTAL RUN TIME: 0 days 0 hours 0 minutes 54 seconds 311 msec
