                         Program Version 4.1.2  - RELEASE  -
|  1> #Run DFT-D3 single point of the dimer
|  2> ! wB97X-D3 def2-TZVP TIGHTSCF CHELPG PMODEL PAL8
|  3>
|  4> %base "11-84_DFT_AB"
|  5>
|  6> %scf
|  7> MaxIter 1000
|  8> end
|  9>
| 10> * xyz 0 1
| 11>   C                      10.085171            9.090846             -6.497490
| 12>   O                      9.870105             7.743981             -6.738684
| 13>   H                      9.596428             7.627402             -7.668537
| 14>   H                      10.240051            9.593562             -7.467117
| 15>   H                      9.364494             9.634166             -5.908815
| 16>   H                      11.032180            9.300689             -5.983905
| 17>   C                      6.543165             8.326145             -10.416435
| 18>   O                      6.659908             7.253888             -9.509501
| 19>   H                      5.909592             7.446161             -8.983774
| 20>   H                      6.614220             9.393741             -10.016194
| 21>   H                      7.383919             8.321079             -11.080022
| 22>   H                      5.626030             8.221112             -11.046252
| 23> *
| 24>
| 25> #Run DFT-D3 single point of the molecule with dimer basis set
| 26> $new_job
| 27> %base "11-84_DFT_A"
| 28> ! wB97X-D3 def2-TZVP TIGHTSCF CHELPG PMODEL
| 29>
| 30> %scf
| 31> MaxIter 1000
| 32> end
| 33>
| 34> * xyz 0 1
| 35>   C                      10.085171            9.090846             -6.497490
| 36>   O                      9.870105             7.743981             -6.738684
| 37>   H                      9.596428             7.627402             -7.668537
| 38>   H                      10.240051            9.593562             -7.467117
| 39>   H                      9.364494             9.634166             -5.908815
| 40>   H                      11.032180            9.300689             -5.983905
| 41>   C                    : 6.543165             8.326145             -10.416435
| 42>   O                    : 6.659908             7.253888             -9.509501
| 43>   H                    : 5.909592             7.446161             -8.983774
| 44>   H                    : 6.614220             9.393741             -10.016194
| 45>   H                    : 7.383919             8.321079             -11.080022
| 46>   H                    : 5.626030             8.221112             -11.046252
| 47> *
| 48>
| 49> #Run DFT-D3 single point of the particle with dimer basis set
| 50> $new_job
| 51> %base "11-84_DFT_B"
| 52> ! wB97X-D3 def2-TZVP TIGHTSCF CHELPG PMODEL
| 53>
| 54> %scf
| 55> MaxIter 1000
| 56> end
| 57>
| 58> * xyz 0 1
| 59>   C                    : 10.085171            9.090846             -6.497490
| 60>   O                    : 9.870105             7.743981             -6.738684
| 61>   H                    : 9.596428             7.627402             -7.668537
| 62>   H                    : 10.240051            9.593562             -7.467117
| 63>   H                    : 9.364494             9.634166             -5.908815
| 64>   H                    : 11.032180            9.300689             -5.983905
| 65>   C                      6.543165             8.326145             -10.416435
| 66>   O                      6.659908             7.253888             -9.509501
| 67>   H                      5.909592             7.446161             -8.983774
| 68>   H                      6.614220             9.393741             -10.016194
| 69>   H                      7.383919             8.321079             -11.080022
| 70>   H                      5.626030             8.221112             -11.046252
| 71> *
| 72>
| 73>                          ****END OF INPUT****
 Total Charge           Charge          ....    0
 Multiplicity           Mult            ....    1
 Number of Electrons    NEL             ....   36
Dispersion correction           -0.000934002
FINAL SINGLE POINT ENERGY      -231.462327563209
Dispersion correction           -0.000246814
FINAL SINGLE POINT ENERGY      -115.730987447100

CARTESIAN COORDINATES (ANGSTROEM)
---------------------------------
  C     10.085171    9.090846   -6.497490
  O      9.870105    7.743981   -6.738684
  H      9.596428    7.627402   -7.668537
  H     10.240051    9.593562   -7.467117
  H      9.364494    9.634166   -5.908815
  H     11.032180    9.300689   -5.983905
  C      6.543165    8.326145  -10.416435
  O      6.659908    7.253888   -9.509501
  H      5.909592    7.446161   -8.983774
  H      6.614220    9.393741  -10.016194
  H      7.383919    8.321079  -11.080022
  H      5.626030    8.221112  -11.046252

 Multiplicity           Mult            ....    1
 Number of Electrons    NEL             ....   18
 Basis Dimension        Dim             ....  172

ORBITAL ENERGIES
----------------

  NO   OCC          E(Eh)            E(eV)
   0   2.0000     -19.236624      -523.4552
   1   2.0000     -10.317966      -280.7661
   2   2.0000      -1.153051       -31.3761
   3   2.0000      -0.792512       -21.5654
   4   2.0000      -0.612077       -16.6555
   5   2.0000      -0.544926       -14.8282
   6   2.0000      -0.525991       -14.3129
   7   2.0000      -0.441740       -12.0204
   8   2.0000      -0.378830       -10.3085
   9   0.0000       0.090069         2.4509
  10   0.0000       0.119692         3.2570
  11   0.0000       0.150070         4.0836
  12   0.0000       0.176409         4.8003
  13   0.0000       0.195840         5.3291

MULLIKEN ATOMIC CHARGES
-----------------------
   0 C :   -0.000231
   1 O :    0.000278
   2 H :   -0.002380
   3 H :    0.000055
   4 H :    0.000029
   5 H :   -0.000015
   6 C :   -0.194420
   7 O :   -0.442021
   8 H :    0.312521
   9 H :    0.099084
  10 H :    0.121114
  11 H :    0.105985
Sum of atomic charges:    0.0000000

LOEWDIN ATOMIC CHARGES
----------------------
   0 C :   -0.000119
   1 O :   -0.000113
   2 H :   -0.002076
   3 H :   -0.000008
   4 H :   -0.000003
   5 H :   -0.000006
   6 C :   -0.409883
   7 O :   -0.052232
   8 H :    0.160357
   9 H :    0.102396
  10 H :    0.102051
  11 H :    0.099635

  Mayer bond orders larger than 0.1
B(  6-C ,  7-O ) :   1.0059 B(  6-C ,  9-H ) :   0.9650 B(  6-C , 10-H ) :   0.9778
B(  6-C , 11-H ) :   0.9748 B(  7-O ,  8-H ) :   0.9084

Dispersion correction           -0.000238481
FINAL SINGLE POINT ENERGY      -115.729562516138

DIPOLE MOMENT
-------------
                                X             Y             Z
Electronic contribution:      0.26145      -1.56549       1.22085
Nuclear contribution   :     -0.74156       2.06476      -1.25047
                        -----------------------------------------
Total Dipole Moment    :     -0.48011       0.49927      -0.02963
                        -----------------------------------------
Magnitude (a.u.)       :      0.69329
Magnitude (Debye)      :      1.76221

Rotational constants in cm-1:     4.273301     0.830403     0.809380
Rotational constants in MHz : 128110.327336 24894.870021 24264.587660

                             ****ORCA TERMINATED NORMALLY****
TOTAL RUN TIME: 0 days 0 hours 1 minutes 12 seconds 665 msec
