                         Program Version 4.1.2  - RELEASE  -
|  1> #Run DFT-D3 single point of the dimer
|  2> ! wB97X-D3 def2-TZVP TIGHTSCF CHELPG PMODEL PAL8
|  3>
|  4> %base "14-115_DFT_AB"
|  5>
|  6> %scf
|  7> MaxIter 1000
|  8> end
|  9>
| 10> * xyz 0 1
| 11>   C                      10.107105            -5.583094            0.898709
| 12>   O                      9.277626             -4.510390            1.399296
| 13>   H                      9.836118             -3.927165            1.959038
| 14>   H                      11.109694            -5.474125            1.303897
| 15>   H                      9.825191             -6.604012            1.214564
| 16>   H                      10.273370            -5.608392            -0.218637
| 17>   C                      10.252695            1.042961             2.946133
| 18>   O                      10.630903            -0.307615            2.602449
| 19>   H                      10.463660            -0.463555            1.629546
| 20>   H                      9.211106             1.053468             3.160243
| 21>   H                      10.716787            1.501780             3.818177
| 22>   H                      10.449982            1.739359             2.112815
| 23> *
| 24>
| 25> #Run DFT-D3 single point of the molecule with dimer basis set
| 26> $new_job
| 27> %base "14-115_DFT_A"
| 28> ! wB97X-D3 def2-TZVP TIGHTSCF CHELPG PMODEL
| 29>
| 30> %scf
| 31> MaxIter 1000
| 32> end
| 33>
| 34> * xyz 0 1
| 35>   C                      10.107105            -5.583094            0.898709
| 36>   O                      9.277626             -4.510390            1.399296
| 37>   H                      9.836118             -3.927165            1.959038
| 38>   H                      11.109694            -5.474125            1.303897
| 39>   H                      9.825191             -6.604012            1.214564
| 40>   H                      10.273370            -5.608392            -0.218637
| 41>   C                    : 10.252695            1.042961             2.946133
| 42>   O                    : 10.630903            -0.307615            2.602449
| 43>   H                    : 10.463660            -0.463555            1.629546
| 44>   H                    : 9.211106             1.053468             3.160243
| 45>   H                    : 10.716787            1.501780             3.818177
| 46>   H                    : 10.449982            1.739359             2.112815
| 47> *
| 48>
| 49> #Run DFT-D3 single point of the particle with dimer basis set
| 50> $new_job
| 51> %base "14-115_DFT_B"
| 52> ! wB97X-D3 def2-TZVP TIGHTSCF CHELPG PMODEL
| 53>
| 54> %scf
| 55> MaxIter 1000
| 56> end
| 57>
| 58> * xyz 0 1
| 59>   C                    : 10.107105            -5.583094            0.898709
| 60>   O                    : 9.277626             -4.510390            1.399296
| 61>   H                    : 9.836118             -3.927165            1.959038
| 62>   H                    : 11.109694            -5.474125            1.303897
| 63>   H                    : 9.825191             -6.604012            1.214564
| 64>   H                    : 10.273370            -5.608392            -0.218637
| 65>   C                      10.252695            1.042961             2.946133
| 66>   O                      10.630903            -0.307615            2.602449
| 67>   H                      10.463660            -0.463555            1.629546
| 68>   H                      9.211106             1.053468             3.160243
| 69>   H                      10.716787            1.501780             3.818177
| 70>   H                      10.449982            1.739359             2.112815
| 71> *
| 72>
| 73>                          ****END OF INPUT****
 Total Charge           Charge          ....    0
 Multiplicity           Mult            ....    1
 Number of Electrons    NEL             ....   36
Dispersion correction           -0.000778344
FINAL SINGLE POINT ENERGY      -231.460954151446
Dispersion correction           -0.000280399
FINAL SINGLE POINT ENERGY      -115.729633351594

CARTESIAN COORDINATES (ANGSTROEM)
---------------------------------
  C     10.107105   -5.583094    0.898709
  O      9.277626   -4.510390    1.399296
  H      9.836118   -3.927165    1.959038
  H     11.109694   -5.474125    1.303897
  H      9.825191   -6.604012    1.214564
  H     10.273370   -5.608392   -0.218637
  C     10.252695    1.042961    2.946133
  O     10.630903   -0.307615    2.602449
  H     10.463660   -0.463555    1.629546
  H      9.211106    1.053468    3.160243
  H     10.716787    1.501780    3.818177
  H     10.449982    1.739359    2.112815

 Multiplicity           Mult            ....    1
 Number of Electrons    NEL             ....   18
 Basis Dimension        Dim             ....  172

ORBITAL ENERGIES
----------------

  NO   OCC          E(Eh)            E(eV)
   0   2.0000     -19.232985      -523.3561
   1   2.0000     -10.312760      -280.6245
   2   2.0000      -1.118746       -30.4426
   3   2.0000      -0.797603       -21.7039
   4   2.0000      -0.599797       -16.3213
   5   2.0000      -0.539322       -14.6757
   6   2.0000      -0.529250       -14.4016
   7   2.0000      -0.428398       -11.6573
   8   2.0000      -0.373096       -10.1525
   9   0.0000       0.088264         2.4018
  10   0.0000       0.110457         3.0057
  11   0.0000       0.146470         3.9857
  12   0.0000       0.177221         4.8224
  13   0.0000       0.199929         5.4403

MULLIKEN ATOMIC CHARGES
-----------------------
   0 C :    0.000108
   1 O :    0.000123
   2 H :   -0.001507
   3 H :   -0.000005
   4 H :   -0.000002
   5 H :   -0.000001
   6 C :   -0.174312
   7 O :   -0.486343
   8 H :    0.322352
   9 H :    0.112156
  10 H :    0.120496
  11 H :    0.106936
Sum of atomic charges:    0.0000000

LOEWDIN ATOMIC CHARGES
----------------------
   0 C :   -0.000011
   1 O :   -0.000024
   2 H :   -0.000824
   3 H :   -0.000001
   4 H :   -0.000000
   5 H :   -0.000000
   6 C :   -0.366695
   7 O :   -0.118955
   8 H :    0.191169
   9 H :    0.090473
  10 H :    0.106054
  11 H :    0.098814

  Mayer bond orders larger than 0.1
B(  6-C ,  7-O ) :   0.9959 B(  6-C ,  9-H ) :   0.9798 B(  6-C , 10-H ) :   0.9697
B(  6-C , 11-H ) :   0.9818 B(  7-O ,  8-H ) :   0.8892

Dispersion correction           -0.000260757
FINAL SINGLE POINT ENERGY      -115.729828407659

DIPOLE MOMENT
-------------
                                X             Y             Z
Electronic contribution:      0.57927      -1.75741      -0.23053
Nuclear contribution   :     -0.84460       2.24134      -0.23047
                        -----------------------------------------
Total Dipole Moment    :     -0.26533       0.48393      -0.46100
                        -----------------------------------------
Magnitude (a.u.)       :      0.71911
Magnitude (Debye)      :      1.82782

Rotational constants in cm-1:     4.408961     0.794488     0.764933
Rotational constants in MHz : 132177.324963 23818.139608 22932.106820

                             ****ORCA TERMINATED NORMALLY****
TOTAL RUN TIME: 0 days 0 hours 1 minutes 2 seconds 460 msec
