                         Program Version 4.1.2  - RELEASE  -
|  1> #Run DFT-D3 single point of the dimer
|  2> ! wB97X-D3 def2-TZVP TIGHTSCF CHELPG PMODEL PAL8
|  3>
|  4> %base "13-24_DFT_AB"
|  5>
|  6> %scf
|  7> MaxIter 1000
|  8> end
|  9>
| 10> * xyz 0 1
| 11>   C                      8.730308             3.899226             2.149717
| 12>   O                      8.727510             4.515731             3.391171
| 13>   H                      8.971102             3.845364             4.096785
| 14>   H                      7.977863             3.093714             1.981061
| 15>   H                      8.611493             4.563490             1.375801
| 16>   H                      9.723099             3.443428             1.923112
| 17>   C                      10.360411            1.351728             -2.768498
| 18>   O                      9.480040             2.425888             -2.943483
| 19>   H                      8.786266             2.096942             -3.479795
| 20>   H                      11.317643            1.730612             -2.411997
| 21>   H                      9.976586             0.482140             -2.219408
| 22>   H                      10.564958            0.920974             -3.793608
| 23> *
| 24>
| 25> #Run DFT-D3 single point of the molecule with dimer basis set
| 26> $new_job
| 27> %base "13-24_DFT_A"
| 28> ! wB97X-D3 def2-TZVP TIGHTSCF CHELPG PMODEL
| 29>
| 30> %scf
| 31> MaxIter 1000
| 32> end
| 33>
| 34> * xyz 0 1
| 35>   C                      8.730308             3.899226             2.149717
| 36>   O                      8.727510             4.515731             3.391171
| 37>   H                      8.971102             3.845364             4.096785
| 38>   H                      7.977863             3.093714             1.981061
| 39>   H                      8.611493             4.563490             1.375801
| 40>   H                      9.723099             3.443428             1.923112
| 41>   C                    : 10.360411            1.351728             -2.768498
| 42>   O                    : 9.480040             2.425888             -2.943483
| 43>   H                    : 8.786266             2.096942             -3.479795
| 44>   H                    : 11.317643            1.730612             -2.411997
| 45>   H                    : 9.976586             0.482140             -2.219408
| 46>   H                    : 10.564958            0.920974             -3.793608
| 47> *
| 48>
| 49> #Run DFT-D3 single point of the particle with dimer basis set
| 50> $new_job
| 51> %base "13-24_DFT_B"
| 52> ! wB97X-D3 def2-TZVP TIGHTSCF CHELPG PMODEL
| 53>
| 54> %scf
| 55> MaxIter 1000
| 56> end
| 57>
| 58> * xyz 0 1
| 59>   C                    : 8.730308             3.899226             2.149717
| 60>   O                    : 8.727510             4.515731             3.391171
| 61>   H                    : 8.971102             3.845364             4.096785
| 62>   H                    : 7.977863             3.093714             1.981061
| 63>   H                    : 8.611493             4.563490             1.375801
| 64>   H                    : 9.723099             3.443428             1.923112
| 65>   C                      10.360411            1.351728             -2.768498
| 66>   O                      9.480040             2.425888             -2.943483
| 67>   H                      8.786266             2.096942             -3.479795
| 68>   H                      11.317643            1.730612             -2.411997
| 69>   H                      9.976586             0.482140             -2.219408
| 70>   H                      10.564958            0.920974             -3.793608
| 71> *
| 72>
| 73>                          ****END OF INPUT****
 Total Charge           Charge          ....    0
 Multiplicity           Mult            ....    1
 Number of Electrons    NEL             ....   36
Dispersion correction           -0.000616250
FINAL SINGLE POINT ENERGY      -231.462863423636
Dispersion correction           -0.000250196
FINAL SINGLE POINT ENERGY      -115.730037062933

CARTESIAN COORDINATES (ANGSTROEM)
---------------------------------
  C      8.730308    3.899226    2.149717
  O      8.727510    4.515731    3.391171
  H      8.971102    3.845364    4.096785
  H      7.977863    3.093714    1.981061
  H      8.611493    4.563490    1.375801
  H      9.723099    3.443428    1.923112
  C     10.360411    1.351728   -2.768498
  O      9.480040    2.425888   -2.943483
  H      8.786266    2.096942   -3.479795
  H     11.317643    1.730612   -2.411997
  H      9.976586    0.482140   -2.219408
  H     10.564958    0.920974   -3.793608

 Multiplicity           Mult            ....    1
 Number of Electrons    NEL             ....   18
 Basis Dimension        Dim             ....  172

ORBITAL ENERGIES
----------------

  NO   OCC          E(Eh)            E(eV)
   0   2.0000     -19.229541      -523.2624
   1   2.0000     -10.316352      -280.7222
   2   2.0000      -1.148112       -31.2417
   3   2.0000      -0.793540       -21.5933
   4   2.0000      -0.619137       -16.8476
   5   2.0000      -0.539709       -14.6862
   6   2.0000      -0.528465       -14.3803
   7   2.0000      -0.438730       -11.9385
   8   2.0000      -0.371087       -10.0978
   9   0.0000       0.091201         2.4817
  10   0.0000       0.114708         3.1214
  11   0.0000       0.157294         4.2802
  12   0.0000       0.168603         4.5879
  13   0.0000       0.197679         5.3791

MULLIKEN ATOMIC CHARGES
-----------------------
   0 C :   -0.000046
   1 O :   -0.000000
   2 H :   -0.000000
   3 H :   -0.000006
   4 H :   -0.000087
   5 H :   -0.000016
   6 C :   -0.163984
   7 O :   -0.458120
   8 H :    0.310966
   9 H :    0.119733
  10 H :    0.101846
  11 H :    0.089714
Sum of atomic charges:   -0.0000000

LOEWDIN ATOMIC CHARGES
----------------------
   0 C :   -0.000068
   1 O :   -0.000002
   2 H :   -0.000001
   3 H :   -0.000004
   4 H :   -0.000029
   5 H :   -0.000006
   6 C :   -0.399994
   7 O :   -0.055081
   8 H :    0.156192
   9 H :    0.107367
  10 H :    0.093043
  11 H :    0.098585

  Mayer bond orders larger than 0.1
B(  6-C ,  7-O ) :   1.0019 B(  6-C ,  9-H ) :   0.9746 B(  6-C , 10-H ) :   0.9637
B(  6-C , 11-H ) :   0.9887 B(  7-O ,  8-H ) :   0.9055

Dispersion correction           -0.000226460
FINAL SINGLE POINT ENERGY      -115.732514660922

DIPOLE MOMENT
-------------
                                X             Y             Z
Electronic contribution:     -1.09224       1.53771       0.06641
Nuclear contribution   :      0.99050      -2.14924      -0.35440
                        -----------------------------------------
Total Dipole Moment    :     -0.10175      -0.61153      -0.28798
                        -----------------------------------------
Magnitude (a.u.)       :      0.68356
Magnitude (Debye)      :      1.73747

Rotational constants in cm-1:     4.244976     0.849983     0.813815
Rotational constants in MHz : 127261.177278 25481.839649 24397.568993

                             ****ORCA TERMINATED NORMALLY****
TOTAL RUN TIME: 0 days 0 hours 1 minutes 5 seconds 20 msec
