                         Program Version 4.1.2  - RELEASE  -
|  1> #Run DFT-D3 single point of the dimer
|  2> ! wB97X-D3 def2-TZVP TIGHTSCF CHELPG PMODEL PAL8
|  3>
|  4> %base "5-183_DFT_AB"
|  5>
|  6> %scf
|  7> MaxIter 1000
|  8> end
|  9>
| 10> * xyz 0 1
| 11>   C                      -8.262717            -6.866965            7.163468
| 12>   O                      -8.631724            -5.577603            7.600791
| 13>   H                      -7.791908            -5.073595            7.527748
| 14>   H                      -8.638029            -6.983062            6.132884
| 15>   H                      -7.178443            -7.052061            7.160548
| 16>   H                      -8.698456            -7.739669            7.746829
| 17>   C                      -6.776743            -2.989091            5.822163
| 18>   O                      -6.118479            -4.259332            5.911747
| 19>   H                      -5.284884            -4.113407            6.339668
| 20>   H                      -6.450045            -2.343937            6.684817
| 21>   H                      -6.622088            -2.415555            4.934993
| 22>   H                      -7.856755            -3.121629            5.982548
| 23> *
| 24>
| 25> #Run DFT-D3 single point of the molecule with dimer basis set
| 26> $new_job
| 27> %base "5-183_DFT_A"
| 28> ! wB97X-D3 def2-TZVP TIGHTSCF CHELPG PMODEL
| 29>
| 30> %scf
| 31> MaxIter 1000
| 32> end
| 33>
| 34> * xyz 0 1
| 35>   C                      -8.262717            -6.866965            7.163468
| 36>   O                      -8.631724            -5.577603            7.600791
| 37>   H                      -7.791908            -5.073595            7.527748
| 38>   H                      -8.638029            -6.983062            6.132884
| 39>   H                      -7.178443            -7.052061            7.160548
| 40>   H                      -8.698456            -7.739669            7.746829
| 41>   C                    : -6.776743            -2.989091            5.822163
| 42>   O                    : -6.118479            -4.259332            5.911747
| 43>   H                    : -5.284884            -4.113407            6.339668
| 44>   H                    : -6.450045            -2.343937            6.684817
| 45>   H                    : -6.622088            -2.415555            4.934993
| 46>   H                    : -7.856755            -3.121629            5.982548
| 47> *
| 48>
| 49> #Run DFT-D3 single point of the particle with dimer basis set
| 50> $new_job
| 51> %base "5-183_DFT_B"
| 52> ! wB97X-D3 def2-TZVP TIGHTSCF CHELPG PMODEL
| 53>
| 54> %scf
| 55> MaxIter 1000
| 56> end
| 57>
| 58> * xyz 0 1
| 59>   C                    : -8.262717            -6.866965            7.163468
| 60>   O                    : -8.631724            -5.577603            7.600791
| 61>   H                    : -7.791908            -5.073595            7.527748
| 62>   H                    : -8.638029            -6.983062            6.132884
| 63>   H                    : -7.178443            -7.052061            7.160548
| 64>   H                    : -8.698456            -7.739669            7.746829
| 65>   C                      -6.776743            -2.989091            5.822163
| 66>   O                      -6.118479            -4.259332            5.911747
| 67>   H                      -5.284884            -4.113407            6.339668
| 68>   H                      -6.450045            -2.343937            6.684817
| 69>   H                      -6.622088            -2.415555            4.934993
| 70>   H                      -7.856755            -3.121629            5.982548
| 71> *
| 72>
| 73>                          ****END OF INPUT****
 Total Charge           Charge          ....    0
 Multiplicity           Mult            ....    1
 Number of Electrons    NEL             ....   36
Dispersion correction           -0.001939188
FINAL SINGLE POINT ENERGY      -231.471193896598
Dispersion correction           -0.000250454
FINAL SINGLE POINT ENERGY      -115.731685800483

CARTESIAN COORDINATES (ANGSTROEM)
---------------------------------
  C     -8.262717   -6.866965    7.163468
  O     -8.631724   -5.577603    7.600791
  H     -7.791908   -5.073595    7.527748
  H     -8.638029   -6.983062    6.132884
  H     -7.178443   -7.052061    7.160548
  H     -8.698456   -7.739669    7.746829
  C     -6.776743   -2.989091    5.822163
  O     -6.118479   -4.259332    5.911747
  H     -5.284884   -4.113407    6.339668
  H     -6.450045   -2.343937    6.684817
  H     -6.622088   -2.415555    4.934993
  H     -7.856755   -3.121629    5.982548

 Multiplicity           Mult            ....    1
 Number of Electrons    NEL             ....   18
 Basis Dimension        Dim             ....  172

ORBITAL ENERGIES
----------------

  NO   OCC          E(Eh)            E(eV)
   0   2.0000     -19.231781      -523.3234
   1   2.0000     -10.316787      -280.7340
   2   2.0000      -1.134513       -30.8717
   3   2.0000      -0.797563       -21.7028
   4   2.0000      -0.610251       -16.6058
   5   2.0000      -0.542793       -14.7701
   6   2.0000      -0.524731       -14.2787
   7   2.0000      -0.431850       -11.7512
   8   2.0000      -0.378904       -10.3105
   9   0.0000       0.096019         2.6128
  10   0.0000       0.123969         3.3734
  11   0.0000       0.148467         4.0400
  12   0.0000       0.181769         4.9462
  13   0.0000       0.203214         5.5297

MULLIKEN ATOMIC CHARGES
-----------------------
   0 C :    0.005051
   1 O :   -0.000586
   2 H :   -0.005510
   3 H :   -0.001047
   4 H :   -0.004035
   5 H :   -0.000152
   6 C :   -0.190384
   7 O :   -0.470082
   8 H :    0.315513
   9 H :    0.105850
  10 H :    0.121011
  11 H :    0.124371
Sum of atomic charges:    0.0000000

LOEWDIN ATOMIC CHARGES
----------------------
   0 C :   -0.004366
   1 O :   -0.001394
   2 H :   -0.012608
   3 H :   -0.000239
   4 H :   -0.001889
   5 H :   -0.000036
   6 C :   -0.372935
   7 O :   -0.070357
   8 H :    0.161172
   9 H :    0.103681
  10 H :    0.090587
  11 H :    0.108386

  Mayer bond orders larger than 0.1
B(  6-C ,  7-O ) :   0.9922 B(  6-C ,  9-H ) :   0.9867 B(  6-C , 10-H ) :   0.9644
B(  6-C , 11-H ) :   0.9775 B(  7-O ,  8-H ) :   0.9016

Dispersion correction           -0.000256747
FINAL SINGLE POINT ENERGY      -115.733795089409

DIPOLE MOMENT
-------------
                                X             Y             Z
Electronic contribution:      0.76687      -1.71901      -0.12479
Nuclear contribution   :     -0.49645       2.33946       0.36834
                        -----------------------------------------
Total Dipole Moment    :      0.27043       0.62045       0.24355
                        -----------------------------------------
Magnitude (a.u.)       :      0.71931
Magnitude (Debye)      :      1.82835

Rotational constants in cm-1:     4.341652     0.808646     0.781139
Rotational constants in MHz : 130159.443130 24242.587413 23417.950669

                             ****ORCA TERMINATED NORMALLY****
TOTAL RUN TIME: 0 days 0 hours 0 minutes 54 seconds 887 msec
