                         Program Version 4.1.2  - RELEASE  -
|  1> #Run DFT-D3 single point of the dimer
|  2> ! wB97X-D3 def2-TZVP TIGHTSCF CHELPG PMODEL PAL8
|  3>
|  4> %base "7-122_DFT_AB"
|  5>
|  6> %scf
|  7> MaxIter 1000
|  8> end
|  9>
| 10> * xyz 0 1
| 11>   C                      -6.876157            -3.537889            6.430555
| 12>   O                      -7.557125            -4.068631            5.313738
| 13>   H                      -6.837903            -4.361989            4.734408
| 14>   H                      -6.067335            -2.821260            6.093197
| 15>   H                      -7.594730            -2.834349            6.993745
| 16>   H                      -6.463546            -4.327425            7.099497
| 17>   C                      -8.587811            -5.711729            1.015743
| 18>   O                      -8.651256            -4.413905            1.663705
| 19>   H                      -9.360045            -4.427384            2.373298
| 20>   H                      -8.050251            -6.443600            1.630989
| 21>   H                      -9.606779            -6.084682            0.823730
| 22>   H                      -8.036534            -5.691645            0.135173
| 23> *
| 24>
| 25> #Run DFT-D3 single point of the molecule with dimer basis set
| 26> $new_job
| 27> %base "7-122_DFT_A"
| 28> ! wB97X-D3 def2-TZVP TIGHTSCF CHELPG PMODEL
| 29>
| 30> %scf
| 31> MaxIter 1000
| 32> end
| 33>
| 34> * xyz 0 1
| 35>   C                      -6.876157            -3.537889            6.430555
| 36>   O                      -7.557125            -4.068631            5.313738
| 37>   H                      -6.837903            -4.361989            4.734408
| 38>   H                      -6.067335            -2.821260            6.093197
| 39>   H                      -7.594730            -2.834349            6.993745
| 40>   H                      -6.463546            -4.327425            7.099497
| 41>   C                    : -8.587811            -5.711729            1.015743
| 42>   O                    : -8.651256            -4.413905            1.663705
| 43>   H                    : -9.360045            -4.427384            2.373298
| 44>   H                    : -8.050251            -6.443600            1.630989
| 45>   H                    : -9.606779            -6.084682            0.823730
| 46>   H                    : -8.036534            -5.691645            0.135173
| 47> *
| 48>
| 49> #Run DFT-D3 single point of the particle with dimer basis set
| 50> $new_job
| 51> %base "7-122_DFT_B"
| 52> ! wB97X-D3 def2-TZVP TIGHTSCF CHELPG PMODEL
| 53>
| 54> %scf
| 55> MaxIter 1000
| 56> end
| 57>
| 58> * xyz 0 1
| 59>   C                    : -6.876157            -3.537889            6.430555
| 60>   O                    : -7.557125            -4.068631            5.313738
| 61>   H                    : -6.837903            -4.361989            4.734408
| 62>   H                    : -6.067335            -2.821260            6.093197
| 63>   H                    : -7.594730            -2.834349            6.993745
| 64>   H                    : -6.463546            -4.327425            7.099497
| 65>   C                      -8.587811            -5.711729            1.015743
| 66>   O                      -8.651256            -4.413905            1.663705
| 67>   H                      -9.360045            -4.427384            2.373298
| 68>   H                      -8.050251            -6.443600            1.630989
| 69>   H                      -9.606779            -6.084682            0.823730
| 70>   H                      -8.036534            -5.691645            0.135173
| 71> *
| 72>
| 73>                          ****END OF INPUT****
 Total Charge           Charge          ....    0
 Multiplicity           Mult            ....    1
 Number of Electrons    NEL             ....   36
Dispersion correction           -0.000988882
FINAL SINGLE POINT ENERGY      -231.465407868083
Dispersion correction           -0.000243711
FINAL SINGLE POINT ENERGY      -115.732258895980

CARTESIAN COORDINATES (ANGSTROEM)
---------------------------------
  C     -6.876157   -3.537889    6.430555
  O     -7.557125   -4.068631    5.313738
  H     -6.837903   -4.361989    4.734408
  H     -6.067335   -2.821260    6.093197
  H     -7.594730   -2.834349    6.993745
  H     -6.463546   -4.327425    7.099497
  C     -8.587811   -5.711729    1.015743
  O     -8.651256   -4.413905    1.663705
  H     -9.360045   -4.427384    2.373298
  H     -8.050251   -6.443600    1.630989
  H     -9.606779   -6.084682    0.823730
  H     -8.036534   -5.691645    0.135173

 Multiplicity           Mult            ....    1
 Number of Electrons    NEL             ....   18
 Basis Dimension        Dim             ....  172

ORBITAL ENERGIES
----------------

  NO   OCC          E(Eh)            E(eV)
   0   2.0000     -19.232817      -523.3516
   1   2.0000     -10.311910      -280.6013
   2   2.0000      -1.115470       -30.3535
   3   2.0000      -0.799523       -21.7561
   4   2.0000      -0.597346       -16.2546
   5   2.0000      -0.538518       -14.6538
   6   2.0000      -0.529460       -14.4073
   7   2.0000      -0.433063       -11.7842
   8   2.0000      -0.372419       -10.1340
   9   0.0000       0.087169         2.3720
  10   0.0000       0.111301         3.0287
  11   0.0000       0.150552         4.0967
  12   0.0000       0.173339         4.7168
  13   0.0000       0.197542         5.3754

MULLIKEN ATOMIC CHARGES
-----------------------
   0 C :   -0.000020
   1 O :   -0.000473
   2 H :   -0.002200
   3 H :   -0.000016
   4 H :    0.000021
   5 H :   -0.000009
   6 C :   -0.160658
   7 O :   -0.488275
   8 H :    0.319122
   9 H :    0.102443
  10 H :    0.103375
  11 H :    0.126688
Sum of atomic charges:   -0.0000000

LOEWDIN ATOMIC CHARGES
----------------------
   0 C :   -0.000048
   1 O :   -0.000879
   2 H :   -0.001654
   3 H :   -0.000001
   4 H :   -0.000001
   5 H :   -0.000002
   6 C :   -0.353716
   7 O :   -0.123763
   8 H :    0.190308
   9 H :    0.096366
  10 H :    0.098814
  11 H :    0.094576

  Mayer bond orders larger than 0.1
B(  6-C ,  7-O ) :   0.9989 B(  6-C ,  9-H ) :   0.9747 B(  6-C , 10-H ) :   0.9825
B(  6-C , 11-H ) :   0.9733 B(  7-O ,  8-H ) :   0.8918

Dispersion correction           -0.000260540
FINAL SINGLE POINT ENERGY      -115.731131844640

DIPOLE MOMENT
-------------
                                X             Y             Z
Electronic contribution:      0.04973       1.70048       0.61195
Nuclear contribution   :     -0.45729      -2.25861      -0.47147
                        -----------------------------------------
Total Dipole Moment    :     -0.40756      -0.55814       0.14048
                        -----------------------------------------
Magnitude (a.u.)       :      0.70523
Magnitude (Debye)      :      1.79256

Rotational constants in cm-1:     4.350946     0.792759     0.764196
Rotational constants in MHz : 130438.093396 23766.310732 22910.020856

                             ****ORCA TERMINATED NORMALLY****
TOTAL RUN TIME: 0 days 0 hours 1 minutes 4 seconds 530 msec
