                         Program Version 4.1.2  - RELEASE  -
|  1> #Run DFT-D3 single point of the dimer
|  2> ! wB97X-D3 def2-TZVP TIGHTSCF CHELPG PMODEL PAL8
|  3>
|  4> %base "2-21_DFT_AB"
|  5>
|  6> %scf
|  7> MaxIter 1000
|  8> end
|  9>
| 10> * xyz 0 1
| 11>   C                      3.461109             3.222378             4.105244
| 12>   O                      3.157580             2.071432             3.453058
| 13>   H                      2.370845             1.638740             3.819682
| 14>   H                      3.982423             3.051816             5.032330
| 15>   H                      4.203252             3.873688             3.594400
| 16>   H                      2.649209             3.897304             4.300673
| 17>   C                      1.478229             4.723334             1.853045
| 18>   O                      2.137860             3.740740             0.987973
| 19>   H                      1.603205             2.908610             1.102617
| 20>   H                      2.125817             5.126152             2.564378
| 21>   H                      1.034596             5.532654             1.227298
| 22>   H                      0.771103             4.272160             2.550989
| 23> *
| 24>
| 25> #Run DFT-D3 single point of the molecule with dimer basis set
| 26> $new_job
| 27> %base "2-21_DFT_A"
| 28> ! wB97X-D3 def2-TZVP TIGHTSCF CHELPG PMODEL
| 29>
| 30> %scf
| 31> MaxIter 1000
| 32> end
| 33>
| 34> * xyz 0 1
| 35>   C                      3.461109             3.222378             4.105244
| 36>   O                      3.157580             2.071432             3.453058
| 37>   H                      2.370845             1.638740             3.819682
| 38>   H                      3.982423             3.051816             5.032330
| 39>   H                      4.203252             3.873688             3.594400
| 40>   H                      2.649209             3.897304             4.300673
| 41>   C                    : 1.478229             4.723334             1.853045
| 42>   O                    : 2.137860             3.740740             0.987973
| 43>   H                    : 1.603205             2.908610             1.102617
| 44>   H                    : 2.125817             5.126152             2.564378
| 45>   H                    : 1.034596             5.532654             1.227298
| 46>   H                    : 0.771103             4.272160             2.550989
| 47> *
| 48>
| 49> #Run DFT-D3 single point of the particle with dimer basis set
| 50> $new_job
| 51> %base "2-21_DFT_B"
| 52> ! wB97X-D3 def2-TZVP TIGHTSCF CHELPG PMODEL
| 53>
| 54> %scf
| 55> MaxIter 1000
| 56> end
| 57>
| 58> * xyz 0 1
| 59>   C                    : 3.461109             3.222378             4.105244
| 60>   O                    : 3.157580             2.071432             3.453058
| 61>   H                    : 2.370845             1.638740             3.819682
| 62>   H                    : 3.982423             3.051816             5.032330
| 63>   H                    : 4.203252             3.873688             3.594400
| 64>   H                    : 2.649209             3.897304             4.300673
| 65>   C                      1.478229             4.723334             1.853045
| 66>   O                      2.137860             3.740740             0.987973
| 67>   H                      1.603205             2.908610             1.102617
| 68>   H                      2.125817             5.126152             2.564378
| 69>   H                      1.034596             5.532654             1.227298
| 70>   H                      0.771103             4.272160             2.550989
| 71> *
| 72>
| 73>                          ****END OF INPUT****
 Total Charge           Charge          ....    0
 Multiplicity           Mult            ....    1
 Number of Electrons    NEL             ....   36
Dispersion correction           -0.002488709
FINAL SINGLE POINT ENERGY      -231.457520458535
Dispersion correction           -0.000243364
FINAL SINGLE POINT ENERGY      -115.731311614561

CARTESIAN COORDINATES (ANGSTROEM)
---------------------------------
  C      3.461109    3.222378    4.105244
  O      3.157580    2.071432    3.453058
  H      2.370845    1.638740    3.819682
  H      3.982423    3.051816    5.032330
  H      4.203252    3.873688    3.594400
  H      2.649209    3.897304    4.300673
  C      1.478229    4.723334    1.853045
  O      2.137860    3.740740    0.987973
  H      1.603205    2.908610    1.102617
  H      2.125817    5.126152    2.564378
  H      1.034596    5.532654    1.227298
  H      0.771103    4.272160    2.550989

 Multiplicity           Mult            ....    1
 Number of Electrons    NEL             ....   18
 Basis Dimension        Dim             ....  172

ORBITAL ENERGIES
----------------

  NO   OCC          E(Eh)            E(eV)
   0   2.0000     -19.235404      -523.4219
   1   2.0000     -10.313570      -280.6465
   2   2.0000      -1.116598       -30.3842
   3   2.0000      -0.799412       -21.7531
   4   2.0000      -0.599873       -16.3234
   5   2.0000      -0.540943       -14.7198
   6   2.0000      -0.516843       -14.0640
   7   2.0000      -0.437210       -11.8971
   8   2.0000      -0.377187       -10.2638
   9   0.0000       0.080650         2.1946
  10   0.0000       0.122819         3.3421
  11   0.0000       0.150761         4.1024
  12   0.0000       0.166005         4.5172
  13   0.0000       0.192348         5.2341

MULLIKEN ATOMIC CHARGES
-----------------------
   0 C :    0.008990
   1 O :   -0.003442
   2 H :   -0.000848
   3 H :    0.000220
   4 H :   -0.001376
   5 H :   -0.006770
   6 C :   -0.208849
   7 O :   -0.479190
   8 H :    0.319536
   9 H :    0.126640
  10 H :    0.129261
  11 H :    0.115827
Sum of atomic charges:   -0.0000000

LOEWDIN ATOMIC CHARGES
----------------------
   0 C :   -0.013419
   1 O :   -0.005193
   2 H :   -0.000968
   3 H :   -0.000084
   4 H :   -0.001440
   5 H :   -0.005815
   6 C :   -0.348565
   7 O :   -0.119114
   8 H :    0.188162
   9 H :    0.096040
  10 H :    0.108592
  11 H :    0.101803

  Mayer bond orders larger than 0.1
B(  6-C ,  7-O ) :   0.9979 B(  6-C ,  9-H ) :   0.9758 B(  6-C , 10-H ) :   0.9727
B(  6-C , 11-H ) :   0.9815 B(  7-O ,  8-H ) :   0.8975

Dispersion correction           -0.000268035
FINAL SINGLE POINT ENERGY      -115.727619310723

DIPOLE MOMENT
-------------
                                X             Y             Z
Electronic contribution:      0.94312      -1.07928      -1.17903
Nuclear contribution   :     -1.54111       0.97016       1.64168
                        -----------------------------------------
Total Dipole Moment    :     -0.59799      -0.10912       0.46265
                        -----------------------------------------
Magnitude (a.u.)       :      0.76390
Magnitude (Debye)      :      1.94168

Rotational constants in cm-1:     4.292888     0.783671     0.756227
Rotational constants in MHz : 128697.553130 23493.862688 22671.108100

                             ****ORCA TERMINATED NORMALLY****
TOTAL RUN TIME: 0 days 0 hours 5 minutes 39 seconds 181 msec
