                         Program Version 4.1.2  - RELEASE  -
|  1> #Run DFT-D3 single point of the dimer
|  2> ! wB97X-D3 def2-TZVP TIGHTSCF CHELPG PMODEL PAL8
|  3>
|  4> %base "2-138_DFT_AB"
|  5>
|  6> %scf
|  7> MaxIter 1000
|  8> end
|  9>
| 10> * xyz 0 1
| 11>   C                      4.533409             0.137027             -4.796207
| 12>   O                      4.436586             -1.244241            -4.528768
| 13>   H                      5.310152             -1.569002            -4.367743
| 14>   H                      5.533253             0.291524             -5.098196
| 15>   H                      3.883806             0.507045             -5.598548
| 16>   H                      4.424128             0.778533             -3.962578
| 17>   C                      7.289697             -2.882623            -5.340441
| 18>   O                      7.141422             -4.009326            -6.192982
| 19>   H                      7.377751             -4.729199            -5.616488
| 20>   H                      7.258130             -1.981662            -5.920827
| 21>   H                      6.546377             -2.809169            -4.543690
| 22>   H                      8.229608             -2.859571            -4.816235
| 23> *
| 24>
| 25> #Run DFT-D3 single point of the molecule with dimer basis set
| 26> $new_job
| 27> %base "2-138_DFT_A"
| 28> ! wB97X-D3 def2-TZVP TIGHTSCF CHELPG PMODEL
| 29>
| 30> %scf
| 31> MaxIter 1000
| 32> end
| 33>
| 34> * xyz 0 1
| 35>   C                      4.533409             0.137027             -4.796207
| 36>   O                      4.436586             -1.244241            -4.528768
| 37>   H                      5.310152             -1.569002            -4.367743
| 38>   H                      5.533253             0.291524             -5.098196
| 39>   H                      3.883806             0.507045             -5.598548
| 40>   H                      4.424128             0.778533             -3.962578
| 41>   C                    : 7.289697             -2.882623            -5.340441
| 42>   O                    : 7.141422             -4.009326            -6.192982
| 43>   H                    : 7.377751             -4.729199            -5.616488
| 44>   H                    : 7.258130             -1.981662            -5.920827
| 45>   H                    : 6.546377             -2.809169            -4.543690
| 46>   H                    : 8.229608             -2.859571            -4.816235
| 47> *
| 48>
| 49> #Run DFT-D3 single point of the particle with dimer basis set
| 50> $new_job
| 51> %base "2-138_DFT_B"
| 52> ! wB97X-D3 def2-TZVP TIGHTSCF CHELPG PMODEL
| 53>
| 54> %scf
| 55> MaxIter 1000
| 56> end
| 57>
| 58> * xyz 0 1
| 59>   C                    : 4.533409             0.137027             -4.796207
| 60>   O                    : 4.436586             -1.244241            -4.528768
| 61>   H                    : 5.310152             -1.569002            -4.367743
| 62>   H                    : 5.533253             0.291524             -5.098196
| 63>   H                    : 3.883806             0.507045             -5.598548
| 64>   H                    : 4.424128             0.778533             -3.962578
| 65>   C                      7.289697             -2.882623            -5.340441
| 66>   O                      7.141422             -4.009326            -6.192982
| 67>   H                      7.377751             -4.729199            -5.616488
| 68>   H                      7.258130             -1.981662            -5.920827
| 69>   H                      6.546377             -2.809169            -4.543690
| 70>   H                      8.229608             -2.859571            -4.816235
| 71> *
| 72>
| 73>                          ****END OF INPUT****
 Total Charge           Charge          ....    0
 Multiplicity           Mult            ....    1
 Number of Electrons    NEL             ....   36
Dispersion correction           -0.001705145
FINAL SINGLE POINT ENERGY      -231.463642249718
Dispersion correction           -0.000231859
FINAL SINGLE POINT ENERGY      -115.730405899978

CARTESIAN COORDINATES (ANGSTROEM)
---------------------------------
  C      4.533409    0.137027   -4.796207
  O      4.436586   -1.244241   -4.528768
  H      5.310152   -1.569002   -4.367743
  H      5.533253    0.291524   -5.098196
  H      3.883806    0.507045   -5.598548
  H      4.424128    0.778533   -3.962578
  C      7.289697   -2.882623   -5.340441
  O      7.141422   -4.009326   -6.192982
  H      7.377751   -4.729199   -5.616488
  H      7.258130   -1.981662   -5.920827
  H      6.546377   -2.809169   -4.543690
  H      8.229608   -2.859571   -4.816235

 Multiplicity           Mult            ....    1
 Number of Electrons    NEL             ....   18
 Basis Dimension        Dim             ....  172

ORBITAL ENERGIES
----------------

  NO   OCC          E(Eh)            E(eV)
   0   2.0000     -19.233688      -523.3753
   1   2.0000     -10.308959      -280.5210
   2   2.0000      -1.140690       -31.0398
   3   2.0000      -0.798972       -21.7411
   4   2.0000      -0.614447       -16.7199
   5   2.0000      -0.538296       -14.6478
   6   2.0000      -0.526742       -14.3334
   7   2.0000      -0.445716       -12.1286
   8   2.0000      -0.375952       -10.2302
   9   0.0000       0.089908         2.4465
  10   0.0000       0.117288         3.1916
  11   0.0000       0.156156         4.2492
  12   0.0000       0.174753         4.7553
  13   0.0000       0.193584         5.2677

MULLIKEN ATOMIC CHARGES
-----------------------
   0 C :    0.000728
   1 O :    0.001698
   2 H :   -0.003561
   3 H :   -0.000703
   4 H :   -0.000021
   5 H :   -0.000104
   6 C :   -0.170457
   7 O :   -0.458343
   8 H :    0.311241
   9 H :    0.117616
  10 H :    0.097975
  11 H :    0.103930
Sum of atomic charges:    0.0000000

LOEWDIN ATOMIC CHARGES
----------------------
   0 C :   -0.001058
   1 O :   -0.002602
   2 H :   -0.022460
   3 H :   -0.000775
   4 H :   -0.000008
   5 H :   -0.000006
   6 C :   -0.372230
   7 O :   -0.070276
   8 H :    0.166535
   9 H :    0.106524
  10 H :    0.104451
  11 H :    0.091905

  Mayer bond orders larger than 0.1
B(  6-C ,  7-O ) :   1.0014 B(  6-C ,  9-H ) :   0.9778 B(  6-C , 10-H ) :   0.9721
B(  6-C , 11-H ) :   0.9727 B(  7-O ,  8-H ) :   0.9059

Dispersion correction           -0.000231874
FINAL SINGLE POINT ENERGY      -115.734834166132

DIPOLE MOMENT
-------------
                                X             Y             Z
Electronic contribution:     -0.25997      -1.41061      -1.28492
Nuclear contribution   :      0.48417       1.40687       1.97191
                        -----------------------------------------
Total Dipole Moment    :      0.22420      -0.00374       0.68699
                        -----------------------------------------
Magnitude (a.u.)       :      0.72266
Magnitude (Debye)      :      1.83685

Rotational constants in cm-1:     4.428225     0.829026     0.795979
Rotational constants in MHz : 132754.852383 24853.588123 23862.860269

                             ****ORCA TERMINATED NORMALLY****
TOTAL RUN TIME: 0 days 0 hours 6 minutes 23 seconds 869 msec
