                         Program Version 4.1.2  - RELEASE  -
|  1> #Run DFT-D3 single point of the dimer
|  2> ! wB97X-D3 def2-TZVP TIGHTSCF CHELPG PMODEL PAL8
|  3>
|  4> %base "19-203_DFT_AB"
|  5>
|  6> %scf
|  7> MaxIter 1000
|  8> end
|  9>
| 10> * xyz 0 1
| 11>   C                      3.287968             3.226782             -8.639468
| 12>   O                      3.947243             4.453909             -8.971919
| 13>   H                      3.956798             5.002304             -8.197140
| 14>   H                      2.430109             3.437104             -7.954319
| 15>   H                      2.974935             2.722716             -9.528785
| 16>   H                      3.895933             2.592943             -7.977857
| 17>   C                      6.290606             6.832760             -10.165576
| 18>   O                      4.896429             6.996300             -9.884444
| 19>   H                      4.574799             6.093500             -9.680608
| 20>   H                      6.456056             5.793661             -10.580889
| 21>   H                      6.682673             7.550290             -10.865907
| 22>   H                      6.927210             6.865684             -9.254179
| 23> *
| 24>
| 25> #Run DFT-D3 single point of the molecule with dimer basis set
| 26> $new_job
| 27> %base "19-203_DFT_A"
| 28> ! wB97X-D3 def2-TZVP TIGHTSCF CHELPG PMODEL
| 29>
| 30> %scf
| 31> MaxIter 1000
| 32> end
| 33>
| 34> * xyz 0 1
| 35>   C                      3.287968             3.226782             -8.639468
| 36>   O                      3.947243             4.453909             -8.971919
| 37>   H                      3.956798             5.002304             -8.197140
| 38>   H                      2.430109             3.437104             -7.954319
| 39>   H                      2.974935             2.722716             -9.528785
| 40>   H                      3.895933             2.592943             -7.977857
| 41>   C                    : 6.290606             6.832760             -10.165576
| 42>   O                    : 4.896429             6.996300             -9.884444
| 43>   H                    : 4.574799             6.093500             -9.680608
| 44>   H                    : 6.456056             5.793661             -10.580889
| 45>   H                    : 6.682673             7.550290             -10.865907
| 46>   H                    : 6.927210             6.865684             -9.254179
| 47> *
| 48>
| 49> #Run DFT-D3 single point of the particle with dimer basis set
| 50> $new_job
| 51> %base "19-203_DFT_B"
| 52> ! wB97X-D3 def2-TZVP TIGHTSCF CHELPG PMODEL
| 53>
| 54> %scf
| 55> MaxIter 1000
| 56> end
| 57>
| 58> * xyz 0 1
| 59>   C                    : 3.287968             3.226782             -8.639468
| 60>   O                    : 3.947243             4.453909             -8.971919
| 61>   H                    : 3.956798             5.002304             -8.197140
| 62>   H                    : 2.430109             3.437104             -7.954319
| 63>   H                    : 2.974935             2.722716             -9.528785
| 64>   H                    : 3.895933             2.592943             -7.977857
| 65>   C                      6.290606             6.832760             -10.165576
| 66>   O                      4.896429             6.996300             -9.884444
| 67>   H                      4.574799             6.093500             -9.680608
| 68>   H                      6.456056             5.793661             -10.580889
| 69>   H                      6.682673             7.550290             -10.865907
| 70>   H                      6.927210             6.865684             -9.254179
| 71> *
| 72>
| 73>                          ****END OF INPUT****
 Total Charge           Charge          ....    0
 Multiplicity           Mult            ....    1
 Number of Electrons    NEL             ....   36
Dispersion correction           -0.001546121
FINAL SINGLE POINT ENERGY      -231.473281817282
Dispersion correction           -0.000240848
FINAL SINGLE POINT ENERGY      -115.733899893878

CARTESIAN COORDINATES (ANGSTROEM)
---------------------------------
  C      3.287968    3.226782   -8.639468
  O      3.947243    4.453909   -8.971919
  H      3.956798    5.002304   -8.197140
  H      2.430109    3.437104   -7.954319
  H      2.974935    2.722716   -9.528785
  H      3.895933    2.592943   -7.977857
  C      6.290606    6.832760  -10.165576
  O      4.896429    6.996300   -9.884444
  H      4.574799    6.093500   -9.680608
  H      6.456056    5.793661  -10.580889
  H      6.682673    7.550290  -10.865907
  H      6.927210    6.865684   -9.254179

 Multiplicity           Mult            ....    1
 Number of Electrons    NEL             ....   18
 Basis Dimension        Dim             ....  172

ORBITAL ENERGIES
----------------

  NO   OCC          E(Eh)            E(eV)
   0   2.0000     -19.235248      -523.4177
   1   2.0000     -10.319591      -280.8103
   2   2.0000      -1.130576       -30.7645
   3   2.0000      -0.791629       -21.5413
   4   2.0000      -0.605587       -16.4789
   5   2.0000      -0.535160       -14.5625
   6   2.0000      -0.529923       -14.4200
   7   2.0000      -0.436630       -11.8813
   8   2.0000      -0.373896       -10.1742
   9   0.0000       0.070903         1.9294
  10   0.0000       0.122299         3.3279
  11   0.0000       0.149601         4.0709
  12   0.0000       0.171619         4.6700
  13   0.0000       0.195024         5.3069

MULLIKEN ATOMIC CHARGES
-----------------------
   0 C :   -0.000642
   1 O :   -0.004952
   2 H :   -0.005195
   3 H :   -0.000007
   4 H :    0.000023
   5 H :   -0.000057
   6 C :   -0.179112
   7 O :   -0.465012
   8 H :    0.323287
   9 H :    0.099745
  10 H :    0.128719
  11 H :    0.103203
Sum of atomic charges:    0.0000000

LOEWDIN ATOMIC CHARGES
----------------------
   0 C :   -0.001122
   1 O :   -0.022620
   2 H :   -0.007802
   3 H :   -0.000024
   4 H :   -0.000047
   5 H :   -0.000032
   6 C :   -0.379617
   7 O :   -0.085083
   8 H :    0.194759
   9 H :    0.102650
  10 H :    0.101331
  11 H :    0.097607

  Mayer bond orders larger than 0.1
B(  6-C ,  7-O ) :   0.9996 B(  6-C ,  9-H ) :   0.9873 B(  6-C , 10-H ) :   0.9726
B(  6-C , 11-H ) :   0.9675 B(  7-O ,  8-H ) :   0.8973

Dispersion correction           -0.000251672
FINAL SINGLE POINT ENERGY      -115.733370663692

DIPOLE MOMENT
-------------
                                X             Y             Z
Electronic contribution:     -1.81438       0.53010       0.29144
Nuclear contribution   :      2.17445      -1.14775      -0.29460
                        -----------------------------------------
Total Dipole Moment    :      0.36007      -0.61766      -0.00317
                        -----------------------------------------
Magnitude (a.u.)       :      0.71496
Magnitude (Debye)      :      1.81727

Rotational constants in cm-1:     4.198321     0.812944     0.779353
Rotational constants in MHz : 125862.511236 24371.461867 23364.406698

                             ****ORCA TERMINATED NORMALLY****
TOTAL RUN TIME: 0 days 0 hours 0 minutes 49 seconds 789 msec
