                         Program Version 4.1.2  - RELEASE  -
|  1> #Run DFT-D3 single point of the dimer
|  2> ! wB97X-D3 def2-TZVP TIGHTSCF CHELPG PMODEL PAL8
|  3>
|  4> %base "4-189_DFT_AB"
|  5>
|  6> %scf
|  7> MaxIter 1000
|  8> end
|  9>
| 10> * xyz 0 1
| 11>   C                      -5.252055            -9.759697            -0.851387
| 12>   O                      -4.094969            -10.237393           -1.399466
| 13>   H                      -4.355616            -10.689949           -2.261042
| 14>   H                      -5.503962            -10.286703           0.104777
| 15>   H                      -5.292786            -8.615948            -0.766921
| 16>   H                      -6.157167            -10.123109           -1.483756
| 17>   C                      -0.747665            -10.120850           -0.854930
| 18>   O                      -1.466564            -9.464401            0.123687
| 19>   H                      -2.408869            -9.734588            0.068551
| 20>   H                      -0.953188            -11.205681           -0.925067
| 21>   H                      -1.040905            -9.909935            -1.885055
| 22>   H                      0.360955             -10.000571           -0.747927
| 23> *
| 24>
| 25> #Run DFT-D3 single point of the molecule with dimer basis set
| 26> $new_job
| 27> %base "4-189_DFT_A"
| 28> ! wB97X-D3 def2-TZVP TIGHTSCF CHELPG PMODEL
| 29>
| 30> %scf
| 31> MaxIter 1000
| 32> end
| 33>
| 34> * xyz 0 1
| 35>   C                      -5.252055            -9.759697            -0.851387
| 36>   O                      -4.094969            -10.237393           -1.399466
| 37>   H                      -4.355616            -10.689949           -2.261042
| 38>   H                      -5.503962            -10.286703           0.104777
| 39>   H                      -5.292786            -8.615948            -0.766921
| 40>   H                      -6.157167            -10.123109           -1.483756
| 41>   C                    : -0.747665            -10.120850           -0.854930
| 42>   O                    : -1.466564            -9.464401            0.123687
| 43>   H                    : -2.408869            -9.734588            0.068551
| 44>   H                    : -0.953188            -11.205681           -0.925067
| 45>   H                    : -1.040905            -9.909935            -1.885055
| 46>   H                    : 0.360955             -10.000571           -0.747927
| 47> *
| 48>
| 49> #Run DFT-D3 single point of the particle with dimer basis set
| 50> $new_job
| 51> %base "4-189_DFT_B"
| 52> ! wB97X-D3 def2-TZVP TIGHTSCF CHELPG PMODEL
| 53>
| 54> %scf
| 55> MaxIter 1000
| 56> end
| 57>
| 58> * xyz 0 1
| 59>   C                    : -5.252055            -9.759697            -0.851387
| 60>   O                    : -4.094969            -10.237393           -1.399466
| 61>   H                    : -4.355616            -10.689949           -2.261042
| 62>   H                    : -5.503962            -10.286703           0.104777
| 63>   H                    : -5.292786            -8.615948            -0.766921
| 64>   H                    : -6.157167            -10.123109           -1.483756
| 65>   C                      -0.747665            -10.120850           -0.854930
| 66>   O                      -1.466564            -9.464401            0.123687
| 67>   H                      -2.408869            -9.734588            0.068551
| 68>   H                      -0.953188            -11.205681           -0.925067
| 69>   H                      -1.040905            -9.909935            -1.885055
| 70>   H                      0.360955             -10.000571           -0.747927
| 71> *
| 72>
| 73>                          ****END OF INPUT****
 Total Charge           Charge          ....    0
 Multiplicity           Mult            ....    1
 Number of Electrons    NEL             ....   36
Dispersion correction           -0.001812200
FINAL SINGLE POINT ENERGY      -231.460365715490
Dispersion correction           -0.000250255
FINAL SINGLE POINT ENERGY      -115.724152003408

CARTESIAN COORDINATES (ANGSTROEM)
---------------------------------
  C     -5.252055   -9.759697   -0.851387
  O     -4.094969  -10.237393   -1.399466
  H     -4.355616  -10.689949   -2.261042
  H     -5.503962  -10.286703    0.104777
  H     -5.292786   -8.615948   -0.766921
  H     -6.157167  -10.123109   -1.483756
  C     -0.747665  -10.120850   -0.854930
  O     -1.466564   -9.464401    0.123687
  H     -2.408869   -9.734588    0.068551
  H     -0.953188  -11.205681   -0.925067
  H     -1.040905   -9.909935   -1.885055
  H      0.360955  -10.000571   -0.747927

 Multiplicity           Mult            ....    1
 Number of Electrons    NEL             ....   18
 Basis Dimension        Dim             ....  172

ORBITAL ENERGIES
----------------

  NO   OCC          E(Eh)            E(eV)
   0   2.0000     -19.237241      -523.4719
   1   2.0000     -10.314604      -280.6746
   2   2.0000      -1.145092       -31.1595
   3   2.0000      -0.793283       -21.5863
   4   2.0000      -0.625737       -17.0272
   5   2.0000      -0.534419       -14.5423
   6   2.0000      -0.526933       -14.3386
   7   2.0000      -0.437319       -11.9000
   8   2.0000      -0.367300        -9.9947
   9   0.0000       0.066240         1.8025
  10   0.0000       0.127857         3.4792
  11   0.0000       0.141569         3.8523
  12   0.0000       0.172107         4.6833
  13   0.0000       0.187470         5.1013

MULLIKEN ATOMIC CHARGES
-----------------------
   0 C :   -0.002694
   1 O :   -0.001467
   2 H :   -0.000042
   3 H :    0.000012
   4 H :   -0.000038
   5 H :    0.000003
   6 C :   -0.178183
   7 O :   -0.462282
   8 H :    0.321282
   9 H :    0.098850
  10 H :    0.094850
  11 H :    0.129708
Sum of atomic charges:   -0.0000000

LOEWDIN ATOMIC CHARGES
----------------------
   0 C :   -0.003658
   1 O :   -0.008104
   2 H :   -0.000307
   3 H :   -0.000214
   4 H :   -0.000233
   5 H :   -0.000067
   6 C :   -0.427832
   7 O :   -0.050344
   8 H :    0.189706
   9 H :    0.094732
  10 H :    0.090701
  11 H :    0.115620

  Mayer bond orders larger than 0.1
B(  6-C ,  7-O ) :   1.0023 B(  6-C ,  9-H ) :   0.9791 B(  6-C , 10-H ) :   0.9721
B(  6-C , 11-H ) :   0.9712 B(  7-O ,  8-H ) :   0.8949

Dispersion correction           -0.000246876
FINAL SINGLE POINT ENERGY      -115.730365178533

DIPOLE MOMENT
-------------
                                X             Y             Z
Electronic contribution:     -0.81771       1.10256       1.48661
Nuclear contribution   :      0.47999      -1.52630      -1.88366
                        -----------------------------------------
Total Dipole Moment    :     -0.33772      -0.42374      -0.39704
                        -----------------------------------------
Magnitude (a.u.)       :      0.67175
Magnitude (Debye)      :      1.70745

Rotational constants in cm-1:     4.374189     0.854146     0.804950
Rotational constants in MHz : 131134.895381 25606.662090 24131.782897

                             ****ORCA TERMINATED NORMALLY****
TOTAL RUN TIME: 0 days 0 hours 1 minutes 36 seconds 928 msec
