                         Program Version 4.1.2  - RELEASE  -
|  1> #Run DFT-D3 single point of the dimer
|  2> ! wB97X-D3 def2-TZVP TIGHTSCF CHELPG PMODEL PAL8
|  3>
|  4> %base "10-218_DFT_AB"
|  5>
|  6> %scf
|  7> MaxIter 1000
|  8> end
|  9>
| 10> * xyz 0 1
| 11>   C                      -1.317540            -4.116525            -0.831856
| 12>   O                      -2.596649            -3.719682            -0.393180
| 13>   H                      -2.812329            -2.915960            -0.926577
| 14>   H                      -1.308331            -5.199716            -1.104723
| 15>   H                      -1.039961            -3.543789            -1.693734
| 16>   H                      -0.520644            -3.873342            -0.139509
| 17>   C                      -5.099899            -0.314163            2.273971
| 18>   O                      -4.169031            -1.341223            2.297468
| 19>   H                      -3.967029            -1.630792            1.383608
| 20>   H                      -4.650917            0.664407             1.983989
| 21>   H                      -5.904849            -0.446509            1.523370
| 22>   H                      -5.640213            -0.184676            3.176502
| 23> *
| 24>
| 25> #Run DFT-D3 single point of the molecule with dimer basis set
| 26> $new_job
| 27> %base "10-218_DFT_A"
| 28> ! wB97X-D3 def2-TZVP TIGHTSCF CHELPG PMODEL
| 29>
| 30> %scf
| 31> MaxIter 1000
| 32> end
| 33>
| 34> * xyz 0 1
| 35>   C                      -1.317540            -4.116525            -0.831856
| 36>   O                      -2.596649            -3.719682            -0.393180
| 37>   H                      -2.812329            -2.915960            -0.926577
| 38>   H                      -1.308331            -5.199716            -1.104723
| 39>   H                      -1.039961            -3.543789            -1.693734
| 40>   H                      -0.520644            -3.873342            -0.139509
| 41>   C                    : -5.099899            -0.314163            2.273971
| 42>   O                    : -4.169031            -1.341223            2.297468
| 43>   H                    : -3.967029            -1.630792            1.383608
| 44>   H                    : -4.650917            0.664407             1.983989
| 45>   H                    : -5.904849            -0.446509            1.523370
| 46>   H                    : -5.640213            -0.184676            3.176502
| 47> *
| 48>
| 49> #Run DFT-D3 single point of the particle with dimer basis set
| 50> $new_job
| 51> %base "10-218_DFT_B"
| 52> ! wB97X-D3 def2-TZVP TIGHTSCF CHELPG PMODEL
| 53>
| 54> %scf
| 55> MaxIter 1000
| 56> end
| 57>
| 58> * xyz 0 1
| 59>   C                    : -1.317540            -4.116525            -0.831856
| 60>   O                    : -2.596649            -3.719682            -0.393180
| 61>   H                    : -2.812329            -2.915960            -0.926577
| 62>   H                    : -1.308331            -5.199716            -1.104723
| 63>   H                    : -1.039961            -3.543789            -1.693734
| 64>   H                    : -0.520644            -3.873342            -0.139509
| 65>   C                      -5.099899            -0.314163            2.273971
| 66>   O                      -4.169031            -1.341223            2.297468
| 67>   H                      -3.967029            -1.630792            1.383608
| 68>   H                      -4.650917            0.664407             1.983989
| 69>   H                      -5.904849            -0.446509            1.523370
| 70>   H                      -5.640213            -0.184676            3.176502
| 71> *
| 72>
| 73>                          ****END OF INPUT****
 Total Charge           Charge          ....    0
 Multiplicity           Mult            ....    1
 Number of Electrons    NEL             ....   36
Dispersion correction           -0.000979525
FINAL SINGLE POINT ENERGY      -231.465699154299
Dispersion correction           -0.000239809
FINAL SINGLE POINT ENERGY      -115.732161474252

CARTESIAN COORDINATES (ANGSTROEM)
---------------------------------
  C     -1.317540   -4.116525   -0.831856
  O     -2.596649   -3.719682   -0.393180
  H     -2.812329   -2.915960   -0.926577
  H     -1.308331   -5.199716   -1.104723
  H     -1.039961   -3.543789   -1.693734
  H     -0.520644   -3.873342   -0.139509
  C     -5.099899   -0.314163    2.273971
  O     -4.169031   -1.341223    2.297468
  H     -3.967029   -1.630792    1.383608
  H     -4.650917    0.664407    1.983989
  H     -5.904849   -0.446509    1.523370
  H     -5.640213   -0.184676    3.176502

 Multiplicity           Mult            ....    1
 Number of Electrons    NEL             ....   18
 Basis Dimension        Dim             ....  172

ORBITAL ENERGIES
----------------

  NO   OCC          E(Eh)            E(eV)
   0   2.0000     -19.234429      -523.3954
   1   2.0000     -10.310707      -280.5686
   2   2.0000      -1.141382       -31.0586
   3   2.0000      -0.796028       -21.6610
   4   2.0000      -0.617390       -16.8000
   5   2.0000      -0.543184       -14.7808
   6   2.0000      -0.529663       -14.4129
   7   2.0000      -0.429991       -11.7007
   8   2.0000      -0.371271       -10.1028
   9   0.0000       0.075826         2.0633
  10   0.0000       0.114856         3.1254
  11   0.0000       0.147470         4.0129
  12   0.0000       0.185135         5.0378
  13   0.0000       0.195197         5.3116

MULLIKEN ATOMIC CHARGES
-----------------------
   0 C :    0.000071
   1 O :   -0.000052
   2 H :   -0.000315
   3 H :   -0.000001
   4 H :   -0.000003
   5 H :   -0.000004
   6 C :   -0.163526
   7 O :   -0.469459
   8 H :    0.323235
   9 H :    0.091523
  10 H :    0.095081
  11 H :    0.123452
Sum of atomic charges:    0.0000000

LOEWDIN ATOMIC CHARGES
----------------------
   0 C :   -0.000044
   1 O :   -0.000594
   2 H :   -0.000848
   3 H :   -0.000001
   4 H :   -0.000001
   5 H :   -0.000003
   6 C :   -0.412572
   7 O :   -0.061838
   8 H :    0.185368
   9 H :    0.095546
  10 H :    0.095432
  11 H :    0.099555

  Mayer bond orders larger than 0.1
B(  6-C ,  7-O ) :   1.0111 B(  6-C ,  9-H ) :   0.9770 B(  6-C , 10-H ) :   0.9805
B(  6-C , 11-H ) :   0.9708 B(  7-O ,  8-H ) :   0.8905

Dispersion correction           -0.000248003
FINAL SINGLE POINT ENERGY      -115.733086710754

DIPOLE MOMENT
-------------
                                X             Y             Z
Electronic contribution:      1.29560      -1.44951       0.30112
Nuclear contribution   :     -1.54342       1.63744      -0.88680
                        -----------------------------------------
Total Dipole Moment    :     -0.24783       0.18793      -0.58568
                        -----------------------------------------
Magnitude (a.u.)       :      0.66314
Magnitude (Debye)      :      1.68558

Rotational constants in cm-1:     4.421525     0.842046     0.814007
Rotational constants in MHz : 132553.975818 25243.899617 24403.308023

                             ****ORCA TERMINATED NORMALLY****
TOTAL RUN TIME: 0 days 0 hours 1 minutes 2 seconds 818 msec
