                         Program Version 4.1.2  - RELEASE  -
|  1> #Run DFT-D3 single point of the dimer
|  2> ! wB97X-D3 def2-TZVP TIGHTSCF CHELPG PMODEL PAL8
|  3>
|  4> %base "11-58_DFT_AB"
|  5>
|  6> %scf
|  7> MaxIter 1000
|  8> end
|  9>
| 10> * xyz 0 1
| 11>   C                      -2.287004            -7.105774            -7.763036
| 12>   O                      -0.949285            -7.170664            -8.203545
| 13>   H                      -0.939735            -7.506460            -9.050222
| 14>   H                      -2.333886            -6.430946            -6.937260
| 15>   H                      -2.922818            -6.617067            -8.546304
| 16>   H                      -2.776979            -8.069040            -7.408969
| 17>   C                      -4.979729            -10.194261           -4.440011
| 18>   O                      -5.876140            -9.334104            -3.722812
| 19>   H                      -6.502014            -9.896957            -3.232383
| 20>   H                      -5.545413            -10.929987           -4.978695
| 21>   H                      -4.345334            -9.696676            -5.161990
| 22>   H                      -4.367641            -10.707767           -3.673316
| 23> *
| 24>
| 25> #Run DFT-D3 single point of the molecule with dimer basis set
| 26> $new_job
| 27> %base "11-58_DFT_A"
| 28> ! wB97X-D3 def2-TZVP TIGHTSCF CHELPG PMODEL
| 29>
| 30> %scf
| 31> MaxIter 1000
| 32> end
| 33>
| 34> * xyz 0 1
| 35>   C                      -2.287004            -7.105774            -7.763036
| 36>   O                      -0.949285            -7.170664            -8.203545
| 37>   H                      -0.939735            -7.506460            -9.050222
| 38>   H                      -2.333886            -6.430946            -6.937260
| 39>   H                      -2.922818            -6.617067            -8.546304
| 40>   H                      -2.776979            -8.069040            -7.408969
| 41>   C                    : -4.979729            -10.194261           -4.440011
| 42>   O                    : -5.876140            -9.334104            -3.722812
| 43>   H                    : -6.502014            -9.896957            -3.232383
| 44>   H                    : -5.545413            -10.929987           -4.978695
| 45>   H                    : -4.345334            -9.696676            -5.161990
| 46>   H                    : -4.367641            -10.707767           -3.673316
| 47> *
| 48>
| 49> #Run DFT-D3 single point of the particle with dimer basis set
| 50> $new_job
| 51> %base "11-58_DFT_B"
| 52> ! wB97X-D3 def2-TZVP TIGHTSCF CHELPG PMODEL
| 53>
| 54> %scf
| 55> MaxIter 1000
| 56> end
| 57>
| 58> * xyz 0 1
| 59>   C                    : -2.287004            -7.105774            -7.763036
| 60>   O                    : -0.949285            -7.170664            -8.203545
| 61>   H                    : -0.939735            -7.506460            -9.050222
| 62>   H                    : -2.333886            -6.430946            -6.937260
| 63>   H                    : -2.922818            -6.617067            -8.546304
| 64>   H                    : -2.776979            -8.069040            -7.408969
| 65>   C                      -4.979729            -10.194261           -4.440011
| 66>   O                      -5.876140            -9.334104            -3.722812
| 67>   H                      -6.502014            -9.896957            -3.232383
| 68>   H                      -5.545413            -10.929987           -4.978695
| 69>   H                      -4.345334            -9.696676            -5.161990
| 70>   H                      -4.367641            -10.707767           -3.673316
| 71> *
| 72>
| 73>                          ****END OF INPUT****
 Total Charge           Charge          ....    0
 Multiplicity           Mult            ....    1
 Number of Electrons    NEL             ....   36
Dispersion correction           -0.000752393
FINAL SINGLE POINT ENERGY      -231.465262507406
Dispersion correction           -0.000256816
FINAL SINGLE POINT ENERGY      -115.731667903814

CARTESIAN COORDINATES (ANGSTROEM)
---------------------------------
  C     -2.287004   -7.105774   -7.763036
  O     -0.949285   -7.170664   -8.203545
  H     -0.939735   -7.506460   -9.050222
  H     -2.333886   -6.430946   -6.937260
  H     -2.922818   -6.617067   -8.546304
  H     -2.776979   -8.069040   -7.408969
  C     -4.979729  -10.194261   -4.440011
  O     -5.876140   -9.334104   -3.722812
  H     -6.502014   -9.896957   -3.232383
  H     -5.545413  -10.929987   -4.978695
  H     -4.345334   -9.696676   -5.161990
  H     -4.367641  -10.707767   -3.673316

 Multiplicity           Mult            ....    1
 Number of Electrons    NEL             ....   18
 Basis Dimension        Dim             ....  172

ORBITAL ENERGIES
----------------

  NO   OCC          E(Eh)            E(eV)
   0   2.0000     -19.228149      -523.2245
   1   2.0000     -10.312909      -280.6285
   2   2.0000      -1.126071       -30.6420
   3   2.0000      -0.795786       -21.6544
   4   2.0000      -0.602708       -16.4005
   5   2.0000      -0.542494       -14.7620
   6   2.0000      -0.530481       -14.4351
   7   2.0000      -0.431762       -11.7488
   8   2.0000      -0.370593       -10.0843
   9   0.0000       0.086864         2.3637
  10   0.0000       0.113515         3.0889
  11   0.0000       0.146016         3.9733
  12   0.0000       0.169263         4.6059
  13   0.0000       0.190246         5.1769

MULLIKEN ATOMIC CHARGES
-----------------------
   0 C :   -0.000102
   1 O :    0.000004
   2 H :    0.000001
   3 H :   -0.000006
   4 H :   -0.000000
   5 H :    0.000064
   6 C :   -0.166659
   7 O :   -0.482862
   8 H :    0.316583
   9 H :    0.104083
  10 H :    0.126158
  11 H :    0.102735
Sum of atomic charges:    0.0000000

LOEWDIN ATOMIC CHARGES
----------------------
   0 C :   -0.000128
   1 O :   -0.000002
   2 H :   -0.000000
   3 H :   -0.000006
   4 H :   -0.000001
   5 H :   -0.000502
   6 C :   -0.366726
   7 O :   -0.103975
   8 H :    0.175866
   9 H :    0.090686
  10 H :    0.105514
  11 H :    0.099274

  Mayer bond orders larger than 0.1
B(  6-C ,  7-O ) :   0.9930 B(  6-C ,  9-H ) :   0.9811 B(  6-C , 10-H ) :   0.9690
B(  6-C , 11-H ) :   0.9843 B(  7-O ,  8-H ) :   0.8962

Dispersion correction           -0.000231046
FINAL SINGLE POINT ENERGY      -115.733313521129

DIPOLE MOMENT
-------------
                                X             Y             Z
Electronic contribution:     -1.01320       1.26606       0.74441
Nuclear contribution   :      0.98331      -1.97778      -0.75360
                        -----------------------------------------
Total Dipole Moment    :     -0.02990      -0.71172      -0.00920
                        -----------------------------------------
Magnitude (a.u.)       :      0.71240
Magnitude (Debye)      :      1.81078

Rotational constants in cm-1:     4.298953     0.814093     0.786586
Rotational constants in MHz : 128879.368425 24405.880171 23581.264595

                             ****ORCA TERMINATED NORMALLY****
TOTAL RUN TIME: 0 days 0 hours 1 minutes 7 seconds 639 msec
