                         Program Version 4.1.2  - RELEASE  -
|  1> #Run DFT-D3 single point of the dimer
|  2> ! wB97X-D3 def2-TZVP TIGHTSCF CHELPG PMODEL PAL8
|  3>
|  4> %base "21-189_DFT_AB"
|  5>
|  6> %scf
|  7> MaxIter 1000
|  8> end
|  9>
| 10> * xyz 0 1
| 11>   C                      3.238427             6.178181             -9.426286
| 12>   O                      4.048945             5.033788             -9.056436
| 13>   H                      4.846479             5.325362             -8.628553
| 14>   H                      2.895541             6.731841             -8.572065
| 15>   H                      3.792113             6.883283             -9.977120
| 16>   H                      2.425263             5.892164             -10.025981
| 17>   C                      6.273200             8.572645             -8.858405
| 18>   O                      5.514117             7.698686             -8.035635
| 19>   H                      4.720933             8.157221             -7.673106
| 20>   H                      7.202760             8.150822             -9.287278
| 21>   H                      5.582240             9.041065             -9.618333
| 22>   H                      6.701324             9.368686             -8.284676
| 23> *
| 24>
| 25> #Run DFT-D3 single point of the molecule with dimer basis set
| 26> $new_job
| 27> %base "21-189_DFT_A"
| 28> ! wB97X-D3 def2-TZVP TIGHTSCF CHELPG PMODEL
| 29>
| 30> %scf
| 31> MaxIter 1000
| 32> end
| 33>
| 34> * xyz 0 1
| 35>   C                      3.238427             6.178181             -9.426286
| 36>   O                      4.048945             5.033788             -9.056436
| 37>   H                      4.846479             5.325362             -8.628553
| 38>   H                      2.895541             6.731841             -8.572065
| 39>   H                      3.792113             6.883283             -9.977120
| 40>   H                      2.425263             5.892164             -10.025981
| 41>   C                    : 6.273200             8.572645             -8.858405
| 42>   O                    : 5.514117             7.698686             -8.035635
| 43>   H                    : 4.720933             8.157221             -7.673106
| 44>   H                    : 7.202760             8.150822             -9.287278
| 45>   H                    : 5.582240             9.041065             -9.618333
| 46>   H                    : 6.701324             9.368686             -8.284676
| 47> *
| 48>
| 49> #Run DFT-D3 single point of the particle with dimer basis set
| 50> $new_job
| 51> %base "21-189_DFT_B"
| 52> ! wB97X-D3 def2-TZVP TIGHTSCF CHELPG PMODEL
| 53>
| 54> %scf
| 55> MaxIter 1000
| 56> end
| 57>
| 58> * xyz 0 1
| 59>   C                    : 3.238427             6.178181             -9.426286
| 60>   O                    : 4.048945             5.033788             -9.056436
| 61>   H                    : 4.846479             5.325362             -8.628553
| 62>   H                    : 2.895541             6.731841             -8.572065
| 63>   H                    : 3.792113             6.883283             -9.977120
| 64>   H                    : 2.425263             5.892164             -10.025981
| 65>   C                      6.273200             8.572645             -8.858405
| 66>   O                      5.514117             7.698686             -8.035635
| 67>   H                      4.720933             8.157221             -7.673106
| 68>   H                      7.202760             8.150822             -9.287278
| 69>   H                      5.582240             9.041065             -9.618333
| 70>   H                      6.701324             9.368686             -8.284676
| 71> *
| 72>
| 73>                          ****END OF INPUT****
 Total Charge           Charge          ....    0
 Multiplicity           Mult            ....    1
 Number of Electrons    NEL             ....   36
Dispersion correction           -0.002250347
FINAL SINGLE POINT ENERGY      -231.467486474034
Dispersion correction           -0.000246425
FINAL SINGLE POINT ENERGY      -115.732760468031

CARTESIAN COORDINATES (ANGSTROEM)
---------------------------------
  C      3.238427    6.178181   -9.426286
  O      4.048945    5.033788   -9.056436
  H      4.846479    5.325362   -8.628553
  H      2.895541    6.731841   -8.572065
  H      3.792113    6.883283   -9.977120
  H      2.425263    5.892164  -10.025981
  C      6.273200    8.572645   -8.858405
  O      5.514117    7.698686   -8.035635
  H      4.720933    8.157221   -7.673106
  H      7.202760    8.150822   -9.287278
  H      5.582240    9.041065   -9.618333
  H      6.701324    9.368686   -8.284676

 Multiplicity           Mult            ....    1
 Number of Electrons    NEL             ....   18
 Basis Dimension        Dim             ....  172

ORBITAL ENERGIES
----------------

  NO   OCC          E(Eh)            E(eV)
   0   2.0000     -19.233195      -523.3618
   1   2.0000     -10.316915      -280.7375
   2   2.0000      -1.128866       -30.7180
   3   2.0000      -0.794988       -21.6327
   4   2.0000      -0.606987       -16.5170
   5   2.0000      -0.546515       -14.8714
   6   2.0000      -0.523613       -14.2482
   7   2.0000      -0.427522       -11.6335
   8   2.0000      -0.371369       -10.1055
   9   0.0000       0.090094         2.4516
  10   0.0000       0.134514         3.6603
  11   0.0000       0.146378         3.9831
  12   0.0000       0.176297         4.7973
  13   0.0000       0.196193         5.3387

MULLIKEN ATOMIC CHARGES
-----------------------
   0 C :   -0.001988
   1 O :    0.002249
   2 H :   -0.005361
   3 H :   -0.005858
   4 H :   -0.003354
   5 H :   -0.001517
   6 C :   -0.169123
   7 O :   -0.471600
   8 H :    0.322867
   9 H :    0.123292
  10 H :    0.102614
  11 H :    0.107778
Sum of atomic charges:   -0.0000000

LOEWDIN ATOMIC CHARGES
----------------------
   0 C :   -0.018771
   1 O :   -0.001897
   2 H :   -0.011213
   3 H :   -0.004231
   4 H :   -0.004954
   5 H :   -0.000306
   6 C :   -0.387144
   7 O :   -0.064283
   8 H :    0.186772
   9 H :    0.113080
  10 H :    0.102715
  11 H :    0.090231

  Mayer bond orders larger than 0.1
B(  6-C ,  7-O ) :   0.9890 B(  6-C ,  9-H ) :   0.9698 B(  6-C , 10-H ) :   0.9808
B(  6-C , 11-H ) :   0.9748 B(  7-O ,  8-H ) :   0.8868

Dispersion correction           -0.000250990
FINAL SINGLE POINT ENERGY      -115.730128299620

DIPOLE MOMENT
-------------
                                X             Y             Z
Electronic contribution:     -0.84189      -1.30979       0.99579
Nuclear contribution   :      0.69089       1.98130      -1.06820
                        -----------------------------------------
Total Dipole Moment    :     -0.15100       0.67151      -0.07241
                        -----------------------------------------
Magnitude (a.u.)       :      0.69207
Magnitude (Debye)      :      1.75911

Rotational constants in cm-1:     4.303296     0.817778     0.782500
Rotational constants in MHz : 129009.567618 24516.366840 23458.765497

                             ****ORCA TERMINATED NORMALLY****
TOTAL RUN TIME: 0 days 0 hours 1 minutes 6 seconds 285 msec
