                         Program Version 4.1.2  - RELEASE  -
|  1> #Run DFT-D3 single point of the dimer
|  2> ! wB97X-D3 def2-TZVP TIGHTSCF CHELPG PMODEL PAL8
|  3>
|  4> %base "15-210_DFT_AB"
|  5>
|  6> %scf
|  7> MaxIter 1000
|  8> end
|  9>
| 10> * xyz 0 1
| 11>   C                      2.779950             -1.881484            11.391923
| 12>   O                      2.055314             -1.730642            10.206373
| 13>   H                      1.464280             -2.459480            10.116337
| 14>   H                      2.367687             -1.310443            12.209301
| 15>   H                      2.822977             -2.920419            11.708778
| 16>   H                      3.771705             -1.426451            11.223731
| 17>   C                      0.394108             -5.205522            10.558296
| 18>   O                      0.573753             -4.235811            9.557318
| 19>   H                      -0.243373            -4.142558            9.060410
| 20>   H                      -0.667313            -5.047230            11.001182
| 21>   H                      0.368586             -6.303852            10.296663
| 22>   H                      1.165742             -5.092801            11.336747
| 23> *
| 24>
| 25> #Run DFT-D3 single point of the molecule with dimer basis set
| 26> $new_job
| 27> %base "15-210_DFT_A"
| 28> ! wB97X-D3 def2-TZVP TIGHTSCF CHELPG PMODEL
| 29>
| 30> %scf
| 31> MaxIter 1000
| 32> end
| 33>
| 34> * xyz 0 1
| 35>   C                      2.779950             -1.881484            11.391923
| 36>   O                      2.055314             -1.730642            10.206373
| 37>   H                      1.464280             -2.459480            10.116337
| 38>   H                      2.367687             -1.310443            12.209301
| 39>   H                      2.822977             -2.920419            11.708778
| 40>   H                      3.771705             -1.426451            11.223731
| 41>   C                    : 0.394108             -5.205522            10.558296
| 42>   O                    : 0.573753             -4.235811            9.557318
| 43>   H                    : -0.243373            -4.142558            9.060410
| 44>   H                    : -0.667313            -5.047230            11.001182
| 45>   H                    : 0.368586             -6.303852            10.296663
| 46>   H                    : 1.165742             -5.092801            11.336747
| 47> *
| 48>
| 49> #Run DFT-D3 single point of the particle with dimer basis set
| 50> $new_job
| 51> %base "15-210_DFT_B"
| 52> ! wB97X-D3 def2-TZVP TIGHTSCF CHELPG PMODEL
| 53>
| 54> %scf
| 55> MaxIter 1000
| 56> end
| 57>
| 58> * xyz 0 1
| 59>   C                    : 2.779950             -1.881484            11.391923
| 60>   O                    : 2.055314             -1.730642            10.206373
| 61>   H                    : 1.464280             -2.459480            10.116337
| 62>   H                    : 2.367687             -1.310443            12.209301
| 63>   H                    : 2.822977             -2.920419            11.708778
| 64>   H                    : 3.771705             -1.426451            11.223731
| 65>   C                      0.394108             -5.205522            10.558296
| 66>   O                      0.573753             -4.235811            9.557318
| 67>   H                      -0.243373            -4.142558            9.060410
| 68>   H                      -0.667313            -5.047230            11.001182
| 69>   H                      0.368586             -6.303852            10.296663
| 70>   H                      1.165742             -5.092801            11.336747
| 71> *
| 72>
| 73>                          ****END OF INPUT****
 Total Charge           Charge          ....    0
 Multiplicity           Mult            ....    1
 Number of Electrons    NEL             ....   36
Dispersion correction           -0.001834520
FINAL SINGLE POINT ENERGY      -231.472723257036
Dispersion correction           -0.000235080
FINAL SINGLE POINT ENERGY      -115.735035884946

CARTESIAN COORDINATES (ANGSTROEM)
---------------------------------
  C      2.779950   -1.881484   11.391923
  O      2.055314   -1.730642   10.206373
  H      1.464280   -2.459480   10.116337
  H      2.367687   -1.310443   12.209301
  H      2.822977   -2.920419   11.708778
  H      3.771705   -1.426451   11.223731
  C      0.394108   -5.205522   10.558296
  O      0.573753   -4.235811    9.557318
  H     -0.243373   -4.142558    9.060410
  H     -0.667313   -5.047230   11.001182
  H      0.368586   -6.303852   10.296663
  H      1.165742   -5.092801   11.336747

 Multiplicity           Mult            ....    1
 Number of Electrons    NEL             ....   18
 Basis Dimension        Dim             ....  172

ORBITAL ENERGIES
----------------

  NO   OCC          E(Eh)            E(eV)
   0   2.0000     -19.235828      -523.4335
   1   2.0000     -10.325556      -280.9727
   2   2.0000      -1.141860       -31.0716
   3   2.0000      -0.789678       -21.4882
   4   2.0000      -0.615943       -16.7607
   5   2.0000      -0.535678       -14.5765
   6   2.0000      -0.525391       -14.2966
   7   2.0000      -0.434294       -11.8177
   8   2.0000      -0.371189       -10.1006
   9   0.0000       0.097152         2.6436
  10   0.0000       0.118884         3.2350
  11   0.0000       0.148060         4.0289
  12   0.0000       0.186295         5.0693
  13   0.0000       0.197649         5.3783

MULLIKEN ATOMIC CHARGES
-----------------------
   0 C :    0.001299
   1 O :   -0.000271
   2 H :   -0.010805
   3 H :   -0.000060
   4 H :   -0.000242
   5 H :   -0.000067
   6 C :   -0.175317
   7 O :   -0.455841
   8 H :    0.318232
   9 H :    0.093457
  10 H :    0.101977
  11 H :    0.127637
Sum of atomic charges:    0.0000000

LOEWDIN ATOMIC CHARGES
----------------------
   0 C :   -0.001551
   1 O :   -0.004117
   2 H :   -0.034033
   3 H :   -0.000015
   4 H :   -0.001034
   5 H :   -0.000016
   6 C :   -0.406370
   7 O :   -0.034969
   8 H :    0.171775
   9 H :    0.103467
  10 H :    0.097982
  11 H :    0.108881

  Mayer bond orders larger than 0.1
B(  6-C ,  7-O ) :   0.9981 B(  6-C ,  9-H ) :   0.9876 B(  6-C , 10-H ) :   0.9558
B(  6-C , 11-H ) :   0.9755 B(  7-O ,  8-H ) :   0.8947

Dispersion correction           -0.000265795
FINAL SINGLE POINT ENERGY      -115.730596324705

DIPOLE MOMENT
-------------
                                X             Y             Z
Electronic contribution:      0.53610       1.31292      -1.36971
Nuclear contribution   :     -1.11624      -1.61669       1.42707
                        -----------------------------------------
Total Dipole Moment    :     -0.58014      -0.30377       0.05736
                        -----------------------------------------
Magnitude (a.u.)       :      0.65737
Magnitude (Debye)      :      1.67089

Rotational constants in cm-1:     4.179038     0.828724     0.790105
Rotational constants in MHz : 125284.408912 24844.506792 23686.742216

                             ****ORCA TERMINATED NORMALLY****
TOTAL RUN TIME: 0 days 0 hours 1 minutes 6 seconds 17 msec
