                         Program Version 4.1.2  - RELEASE  -
|  1> #Run DFT-D3 single point of the dimer
|  2> ! wB97X-D3 def2-TZVP TIGHTSCF CHELPG PMODEL PAL8
|  3>
|  4> %base "12-182_DFT_AB"
|  5>
|  6> %scf
|  7> MaxIter 1000
|  8> end
|  9>
| 10> * xyz 0 1
| 11>   C                      0.087920             11.308963            0.649486
| 12>   O                      0.017580             10.819536            1.936204
| 13>   H                      -0.128678            9.860366             1.843433
| 14>   H                      1.174347             11.138090            0.340180
| 15>   H                      -0.565153            10.669549            0.033992
| 16>   H                      -0.259076            12.386729            0.732022
| 17>   C                      0.291117             7.152671             2.904466
| 18>   O                      0.770029             8.084464             1.947282
| 19>   H                      1.747909             8.077446             1.964323
| 20>   H                      1.031792             6.918922             3.673868
| 21>   H                      -0.641739            7.632905             3.339170
| 22>   H                      0.051420             6.234753             2.473588
| 23> *
| 24>
| 25> #Run DFT-D3 single point of the molecule with dimer basis set
| 26> $new_job
| 27> %base "12-182_DFT_A"
| 28> ! wB97X-D3 def2-TZVP TIGHTSCF CHELPG PMODEL
| 29>
| 30> %scf
| 31> MaxIter 1000
| 32> end
| 33>
| 34> * xyz 0 1
| 35>   C                      0.087920             11.308963            0.649486
| 36>   O                      0.017580             10.819536            1.936204
| 37>   H                      -0.128678            9.860366             1.843433
| 38>   H                      1.174347             11.138090            0.340180
| 39>   H                      -0.565153            10.669549            0.033992
| 40>   H                      -0.259076            12.386729            0.732022
| 41>   C                    : 0.291117             7.152671             2.904466
| 42>   O                    : 0.770029             8.084464             1.947282
| 43>   H                    : 1.747909             8.077446             1.964323
| 44>   H                    : 1.031792             6.918922             3.673868
| 45>   H                    : -0.641739            7.632905             3.339170
| 46>   H                    : 0.051420             6.234753             2.473588
| 47> *
| 48>
| 49> #Run DFT-D3 single point of the particle with dimer basis set
| 50> $new_job
| 51> %base "12-182_DFT_B"
| 52> ! wB97X-D3 def2-TZVP TIGHTSCF CHELPG PMODEL
| 53>
| 54> %scf
| 55> MaxIter 1000
| 56> end
| 57>
| 58> * xyz 0 1
| 59>   C                    : 0.087920             11.308963            0.649486
| 60>   O                    : 0.017580             10.819536            1.936204
| 61>   H                    : -0.128678            9.860366             1.843433
| 62>   H                    : 1.174347             11.138090            0.340180
| 63>   H                    : -0.565153            10.669549            0.033992
| 64>   H                    : -0.259076            12.386729            0.732022
| 65>   C                      0.291117             7.152671             2.904466
| 66>   O                      0.770029             8.084464             1.947282
| 67>   H                      1.747909             8.077446             1.964323
| 68>   H                      1.031792             6.918922             3.673868
| 69>   H                      -0.641739            7.632905             3.339170
| 70>   H                      0.051420             6.234753             2.473588
| 71> *
| 72>
| 73>                          ****END OF INPUT****
 Total Charge           Charge          ....    0
 Multiplicity           Mult            ....    1
 Number of Electrons    NEL             ....   36
Dispersion correction           -0.001688404
FINAL SINGLE POINT ENERGY      -231.466069270027
Dispersion correction           -0.000202338
FINAL SINGLE POINT ENERGY      -115.726736033313

CARTESIAN COORDINATES (ANGSTROEM)
---------------------------------
  C      0.087920   11.308963    0.649486
  O      0.017580   10.819536    1.936204
  H     -0.128678    9.860366    1.843433
  H      1.174347   11.138090    0.340180
  H     -0.565153   10.669549    0.033992
  H     -0.259076   12.386729    0.732022
  C      0.291117    7.152671    2.904466
  O      0.770029    8.084464    1.947282
  H      1.747909    8.077446    1.964323
  H      1.031792    6.918922    3.673868
  H     -0.641739    7.632905    3.339170
  H      0.051420    6.234753    2.473588

 Multiplicity           Mult            ....    1
 Number of Electrons    NEL             ....   18
 Basis Dimension        Dim             ....  172

ORBITAL ENERGIES
----------------

  NO   OCC          E(Eh)            E(eV)
   0   2.0000     -19.230532      -523.2894
   1   2.0000     -10.311764      -280.5974
   2   2.0000      -1.130575       -30.7645
   3   2.0000      -0.795260       -21.6401
   4   2.0000      -0.612350       -16.6629
   5   2.0000      -0.542352       -14.7582
   6   2.0000      -0.520528       -14.1643
   7   2.0000      -0.435091       -11.8394
   8   2.0000      -0.372472       -10.1355
   9   0.0000       0.097670         2.6577
  10   0.0000       0.123585         3.3629
  11   0.0000       0.153743         4.1836
  12   0.0000       0.181235         4.9317
  13   0.0000       0.206790         5.6270

MULLIKEN ATOMIC CHARGES
-----------------------
   0 C :    0.002018
   1 O :   -0.000581
   2 H :   -0.007568
   3 H :   -0.001246
   4 H :   -0.001355
   5 H :   -0.000091
   6 C :   -0.158103
   7 O :   -0.471127
   8 H :    0.313536
   9 H :    0.103793
  10 H :    0.112913
  11 H :    0.107811
Sum of atomic charges:    0.0000000

LOEWDIN ATOMIC CHARGES
----------------------
   0 C :   -0.003736
   1 O :   -0.008050
   2 H :   -0.035417
   3 H :   -0.000455
   4 H :   -0.000511
   5 H :   -0.000058
   6 C :   -0.375531
   7 O :   -0.050780
   8 H :    0.178094
   9 H :    0.096314
  10 H :    0.116505
  11 H :    0.083626

  Mayer bond orders larger than 0.1
B(  6-C ,  7-O ) :   0.9965 B(  6-C ,  9-H ) :   0.9800 B(  6-C , 10-H ) :   0.9811
B(  6-C , 11-H ) :   0.9713 B(  7-O ,  8-H ) :   0.8970

Dispersion correction           -0.000243828
FINAL SINGLE POINT ENERGY      -115.732454145351

DIPOLE MOMENT
-------------
                                X             Y             Z
Electronic contribution:      0.50324       1.12969      -1.25888
Nuclear contribution   :     -0.05375      -1.53142       1.64965
                        -----------------------------------------
Total Dipole Moment    :      0.44949      -0.40173       0.39077
                        -----------------------------------------
Magnitude (a.u.)       :      0.71842
Magnitude (Debye)      :      1.82609

Rotational constants in cm-1:     4.246856     0.834650     0.794358
Rotational constants in MHz : 127317.542448 25022.187163 23814.262427

                             ****ORCA TERMINATED NORMALLY****
TOTAL RUN TIME: 0 days 0 hours 1 minutes 6 seconds 474 msec
