                         Program Version 4.1.2  - RELEASE  -
|  1> #Run DFT-D3 single point of the dimer
|  2> ! wB97X-D3 def2-TZVP TIGHTSCF CHELPG PMODEL PAL8
|  3>
|  4> %base "3-2_DFT_AB"
|  5>
|  6> %scf
|  7> MaxIter 1000
|  8> end
|  9>
| 10> * xyz 0 1
| 11>   C                      -7.942409            -2.379003            -9.459658
| 12>   O                      -7.867683            -3.795945            -9.391160
| 13>   H                      -8.719740            -4.186714            -9.465420
| 14>   H                      -7.748901            -1.924920            -8.467208
| 15>   H                      -7.233413            -1.909138            -10.170256
| 16>   H                      -8.967834            -2.145940            -9.738359
| 17>   C                      -10.334582           -4.254306            -5.781806
| 18>   O                      -9.139955            -3.452755            -5.800609
| 19>   H                      -8.833748            -3.296327            -6.693903
| 20>   H                      -10.701949           -4.294493            -4.818483
| 21>   H                      -11.133352           -3.759334            -6.328138
| 22>   H                      -10.229096           -5.277931            -6.251611
| 23> *
| 24>
| 25> #Run DFT-D3 single point of the molecule with dimer basis set
| 26> $new_job
| 27> %base "3-2_DFT_A"
| 28> ! wB97X-D3 def2-TZVP TIGHTSCF CHELPG PMODEL
| 29>
| 30> %scf
| 31> MaxIter 1000
| 32> end
| 33>
| 34> * xyz 0 1
| 35>   C                      -7.942409            -2.379003            -9.459658
| 36>   O                      -7.867683            -3.795945            -9.391160
| 37>   H                      -8.719740            -4.186714            -9.465420
| 38>   H                      -7.748901            -1.924920            -8.467208
| 39>   H                      -7.233413            -1.909138            -10.170256
| 40>   H                      -8.967834            -2.145940            -9.738359
| 41>   C                    : -10.334582           -4.254306            -5.781806
| 42>   O                    : -9.139955            -3.452755            -5.800609
| 43>   H                    : -8.833748            -3.296327            -6.693903
| 44>   H                    : -10.701949           -4.294493            -4.818483
| 45>   H                    : -11.133352           -3.759334            -6.328138
| 46>   H                    : -10.229096           -5.277931            -6.251611
| 47> *
| 48>
| 49> #Run DFT-D3 single point of the particle with dimer basis set
| 50> $new_job
| 51> %base "3-2_DFT_B"
| 52> ! wB97X-D3 def2-TZVP TIGHTSCF CHELPG PMODEL
| 53>
| 54> %scf
| 55> MaxIter 1000
| 56> end
| 57>
| 58> * xyz 0 1
| 59>   C                    : -7.942409            -2.379003            -9.459658
| 60>   O                    : -7.867683            -3.795945            -9.391160
| 61>   H                    : -8.719740            -4.186714            -9.465420
| 62>   H                    : -7.748901            -1.924920            -8.467208
| 63>   H                    : -7.233413            -1.909138            -10.170256
| 64>   H                    : -8.967834            -2.145940            -9.738359
| 65>   C                      -10.334582           -4.254306            -5.781806
| 66>   O                      -9.139955            -3.452755            -5.800609
| 67>   H                      -8.833748            -3.296327            -6.693903
| 68>   H                      -10.701949           -4.294493            -4.818483
| 69>   H                      -11.133352           -3.759334            -6.328138
| 70>   H                      -10.229096           -5.277931            -6.251611
| 71> *
| 72>
| 73>                          ****END OF INPUT****
 Total Charge           Charge          ....    0
 Multiplicity           Mult            ....    1
 Number of Electrons    NEL             ....   36
Dispersion correction           -0.001620119
FINAL SINGLE POINT ENERGY      -231.467104335056
Dispersion correction           -0.000250608
FINAL SINGLE POINT ENERGY      -115.733375197347

CARTESIAN COORDINATES (ANGSTROEM)
---------------------------------
  C     -7.942409   -2.379003   -9.459658
  O     -7.867683   -3.795945   -9.391160
  H     -8.719740   -4.186714   -9.465420
  H     -7.748901   -1.924920   -8.467208
  H     -7.233413   -1.909138  -10.170256
  H     -8.967834   -2.145940   -9.738359
  C    -10.334582   -4.254306   -5.781806
  O     -9.139955   -3.452755   -5.800609
  H     -8.833748   -3.296327   -6.693903
  H    -10.701949   -4.294493   -4.818483
  H    -11.133352   -3.759334   -6.328138
  H    -10.229096   -5.277931   -6.251611

 Multiplicity           Mult            ....    1
 Number of Electrons    NEL             ....   18
 Basis Dimension        Dim             ....  172

ORBITAL ENERGIES
----------------

  NO   OCC          E(Eh)            E(eV)
   0   2.0000     -19.229454      -523.2600
   1   2.0000     -10.312011      -280.6041
   2   2.0000      -1.126949       -30.6659
   3   2.0000      -0.803141       -21.8546
   4   2.0000      -0.607897       -16.5417
   5   2.0000      -0.538274       -14.6472
   6   2.0000      -0.527145       -14.3444
   7   2.0000      -0.434876       -11.8336
   8   2.0000      -0.373572       -10.1654
   9   0.0000       0.069509         1.8914
  10   0.0000       0.132004         3.5920
  11   0.0000       0.150041         4.0828
  12   0.0000       0.165258         4.4969
  13   0.0000       0.188052         5.1171

MULLIKEN ATOMIC CHARGES
-----------------------
   0 C :   -0.002034
   1 O :   -0.000311
   2 H :   -0.000158
   3 H :   -0.000123
   4 H :   -0.000083
   5 H :    0.000276
   6 C :   -0.160705
   7 O :   -0.485567
   8 H :    0.314477
   9 H :    0.130249
  10 H :    0.102096
  11 H :    0.101883
Sum of atomic charges:   -0.0000000

LOEWDIN ATOMIC CHARGES
----------------------
   0 C :   -0.003469
   1 O :   -0.000958
   2 H :   -0.000566
   3 H :   -0.001578
   4 H :   -0.000061
   5 H :   -0.000109
   6 C :   -0.360390
   7 O :   -0.089215
   8 H :    0.163673
   9 H :    0.094744
  10 H :    0.094905
  11 H :    0.103022

  Mayer bond orders larger than 0.1
B(  6-C ,  7-O ) :   0.9909 B(  6-C ,  9-H ) :   0.9743 B(  6-C , 10-H ) :   0.9782
B(  6-C , 11-H ) :   0.9711 B(  7-O ,  8-H ) :   0.9034

Dispersion correction           -0.000264101
FINAL SINGLE POINT ENERGY      -115.732141785270

DIPOLE MOMENT
-------------
                                X             Y             Z
Electronic contribution:      1.54076       0.96507       0.20634
Nuclear contribution   :     -1.86882      -1.17703      -0.75580
                        -----------------------------------------
Total Dipole Moment    :     -0.32806      -0.21196      -0.54946
                        -----------------------------------------
Magnitude (a.u.)       :      0.67414
Magnitude (Debye)      :      1.71352

Rotational constants in cm-1:     4.441692     0.801481     0.776614
Rotational constants in MHz : 133158.562119 24027.783844 23282.296233

                             ****ORCA TERMINATED NORMALLY****
TOTAL RUN TIME: 0 days 0 hours 6 minutes 14 seconds 428 msec
