                         Program Version 4.1.2  - RELEASE  -
|  1> #Run DFT-D3 single point of the dimer
|  2> ! wB97X-D3 def2-TZVP TIGHTSCF CHELPG PMODEL PAL8
|  3>
|  4> %base "16-144_DFT_AB"
|  5>
|  6> %scf
|  7> MaxIter 1000
|  8> end
|  9>
| 10> * xyz 0 1
| 11>   C                      -1.631992            1.956017             -9.277053
| 12>   O                      -1.772947            3.220567             -9.838238
| 13>   H                      -1.416225            3.163725             -10.735111
| 14>   H                      -1.824583            1.947769             -8.203156
| 15>   H                      -2.335217            1.321095             -9.892011
| 16>   H                      -0.550905            1.698402             -9.377842
| 17>   C                      -5.616573            1.488614             -10.703043
| 18>   O                      -5.556274            0.457298             -9.763606
| 19>   H                      -6.374246            0.536284             -9.227588
| 20>   H                      -5.787094            2.431074             -10.183057
| 21>   H                      -4.744052            1.605157             -11.282023
| 22>   H                      -6.466317            1.427160             -11.365703
| 23> *
| 24>
| 25> #Run DFT-D3 single point of the molecule with dimer basis set
| 26> $new_job
| 27> %base "16-144_DFT_A"
| 28> ! wB97X-D3 def2-TZVP TIGHTSCF CHELPG PMODEL
| 29>
| 30> %scf
| 31> MaxIter 1000
| 32> end
| 33>
| 34> * xyz 0 1
| 35>   C                      -1.631992            1.956017             -9.277053
| 36>   O                      -1.772947            3.220567             -9.838238
| 37>   H                      -1.416225            3.163725             -10.735111
| 38>   H                      -1.824583            1.947769             -8.203156
| 39>   H                      -2.335217            1.321095             -9.892011
| 40>   H                      -0.550905            1.698402             -9.377842
| 41>   C                    : -5.616573            1.488614             -10.703043
| 42>   O                    : -5.556274            0.457298             -9.763606
| 43>   H                    : -6.374246            0.536284             -9.227588
| 44>   H                    : -5.787094            2.431074             -10.183057
| 45>   H                    : -4.744052            1.605157             -11.282023
| 46>   H                    : -6.466317            1.427160             -11.365703
| 47> *
| 48>
| 49> #Run DFT-D3 single point of the particle with dimer basis set
| 50> $new_job
| 51> %base "16-144_DFT_B"
| 52> ! wB97X-D3 def2-TZVP TIGHTSCF CHELPG PMODEL
| 53>
| 54> %scf
| 55> MaxIter 1000
| 56> end
| 57>
| 58> * xyz 0 1
| 59>   C                    : -1.631992            1.956017             -9.277053
| 60>   O                    : -1.772947            3.220567             -9.838238
| 61>   H                    : -1.416225            3.163725             -10.735111
| 62>   H                    : -1.824583            1.947769             -8.203156
| 63>   H                    : -2.335217            1.321095             -9.892011
| 64>   H                    : -0.550905            1.698402             -9.377842
| 65>   C                      -5.616573            1.488614             -10.703043
| 66>   O                      -5.556274            0.457298             -9.763606
| 67>   H                      -6.374246            0.536284             -9.227588
| 68>   H                      -5.787094            2.431074             -10.183057
| 69>   H                      -4.744052            1.605157             -11.282023
| 70>   H                      -6.466317            1.427160             -11.365703
| 71> *
| 72>
| 73>                          ****END OF INPUT****
 Total Charge           Charge          ....    0
 Multiplicity           Mult            ....    1
 Number of Electrons    NEL             ....   36
Dispersion correction           -0.001328317
FINAL SINGLE POINT ENERGY      -231.463553084115
Dispersion correction           -0.000203318
FINAL SINGLE POINT ENERGY      -115.729329060221

CARTESIAN COORDINATES (ANGSTROEM)
---------------------------------
  C     -1.631992    1.956017   -9.277053
  O     -1.772947    3.220567   -9.838238
  H     -1.416225    3.163725  -10.735111
  H     -1.824583    1.947769   -8.203156
  H     -2.335217    1.321095   -9.892011
  H     -0.550905    1.698402   -9.377842
  C     -5.616573    1.488614  -10.703043
  O     -5.556274    0.457298   -9.763606
  H     -6.374246    0.536284   -9.227588
  H     -5.787094    2.431074  -10.183057
  H     -4.744052    1.605157  -11.282023
  H     -6.466317    1.427160  -11.365703

 Multiplicity           Mult            ....    1
 Number of Electrons    NEL             ....   18
 Basis Dimension        Dim             ....  172

ORBITAL ENERGIES
----------------

  NO   OCC          E(Eh)            E(eV)
   0   2.0000     -19.232866      -523.3529
   1   2.0000     -10.304507      -280.3999
   2   2.0000      -1.139455       -31.0062
   3   2.0000      -0.797746       -21.7078
   4   2.0000      -0.614583       -16.7236
   5   2.0000      -0.538677       -14.6582
   6   2.0000      -0.538024       -14.6404
   7   2.0000      -0.437981       -11.9181
   8   2.0000      -0.369713       -10.0604
   9   0.0000       0.091052         2.4777
  10   0.0000       0.115344         3.1387
  11   0.0000       0.152398         4.1470
  12   0.0000       0.176782         4.8105
  13   0.0000       0.194044         5.2802

MULLIKEN ATOMIC CHARGES
-----------------------
   0 C :   -0.000741
   1 O :   -0.000053
   2 H :   -0.000032
   3 H :   -0.000099
   4 H :    0.000501
   5 H :   -0.000002
   6 C :   -0.173241
   7 O :   -0.467517
   8 H :    0.317332
   9 H :    0.096076
  10 H :    0.125079
  11 H :    0.102698
Sum of atomic charges:    0.0000000

LOEWDIN ATOMIC CHARGES
----------------------
   0 C :   -0.001024
   1 O :   -0.000094
   2 H :   -0.000064
   3 H :   -0.000067
   4 H :   -0.001151
   5 H :   -0.000010
   6 C :   -0.397901
   7 O :   -0.070768
   8 H :    0.186145
   9 H :    0.094398
  10 H :    0.099580
  11 H :    0.090956

  Mayer bond orders larger than 0.1
B(  6-C ,  7-O ) :   0.9945 B(  6-C ,  9-H ) :   0.9888 B(  6-C , 10-H ) :   0.9731
B(  6-C , 11-H ) :   0.9757 B(  7-O ,  8-H ) :   0.8953

Dispersion correction           -0.000218258
FINAL SINGLE POINT ENERGY      -115.732960620401

DIPOLE MOMENT
-------------
                                X             Y             Z
Electronic contribution:      0.32544      -1.50753       1.10371
Nuclear contribution   :     -0.85467       1.96188      -1.13548
                        -----------------------------------------
Total Dipole Moment    :     -0.52923       0.45435      -0.03177
                        -----------------------------------------
Magnitude (a.u.)       :      0.69823
Magnitude (Debye)      :      1.77477

Rotational constants in cm-1:     4.436174     0.851948     0.814550
Rotational constants in MHz : 132993.142920 25540.749941 24419.600882

                             ****ORCA TERMINATED NORMALLY****
TOTAL RUN TIME: 0 days 0 hours 0 minutes 53 seconds 584 msec
