                         Program Version 4.1.2  - RELEASE  -
|  1> #Run DFT-D3 single point of the dimer
|  2> ! wB97X-D3 def2-TZVP TIGHTSCF CHELPG PMODEL PAL8
|  3>
|  4> %base "20-154_DFT_AB"
|  5>
|  6> %scf
|  7> MaxIter 1000
|  8> end
|  9>
| 10> * xyz 0 1
| 11>   C                      1.707652             -9.586707            1.253464
| 12>   O                      2.113823             -8.697729            2.235801
| 13>   H                      2.186513             -9.141480            3.106202
| 14>   H                      0.630820             -9.935662            1.490338
| 15>   H                      1.712268             -9.153807            0.292293
| 16>   H                      2.335662             -10.485198           1.058917
| 17>   C                      1.310005             -5.374597            1.050134
| 18>   O                      2.401512             -6.320147            0.794165
| 19>   H                      2.409136             -7.072881            1.458004
| 20>   H                      0.288380             -5.856881            0.838766
| 21>   H                      1.226147             -4.946307            2.050724
| 22>   H                      1.364170             -4.525090            0.270397
| 23> *
| 24>
| 25> #Run DFT-D3 single point of the molecule with dimer basis set
| 26> $new_job
| 27> %base "20-154_DFT_A"
| 28> ! wB97X-D3 def2-TZVP TIGHTSCF CHELPG PMODEL
| 29>
| 30> %scf
| 31> MaxIter 1000
| 32> end
| 33>
| 34> * xyz 0 1
| 35>   C                      1.707652             -9.586707            1.253464
| 36>   O                      2.113823             -8.697729            2.235801
| 37>   H                      2.186513             -9.141480            3.106202
| 38>   H                      0.630820             -9.935662            1.490338
| 39>   H                      1.712268             -9.153807            0.292293
| 40>   H                      2.335662             -10.485198           1.058917
| 41>   C                    : 1.310005             -5.374597            1.050134
| 42>   O                    : 2.401512             -6.320147            0.794165
| 43>   H                    : 2.409136             -7.072881            1.458004
| 44>   H                    : 0.288380             -5.856881            0.838766
| 45>   H                    : 1.226147             -4.946307            2.050724
| 46>   H                    : 1.364170             -4.525090            0.270397
| 47> *
| 48>
| 49> #Run DFT-D3 single point of the particle with dimer basis set
| 50> $new_job
| 51> %base "20-154_DFT_B"
| 52> ! wB97X-D3 def2-TZVP TIGHTSCF CHELPG PMODEL
| 53>
| 54> %scf
| 55> MaxIter 1000
| 56> end
| 57>
| 58> * xyz 0 1
| 59>   C                    : 1.707652             -9.586707            1.253464
| 60>   O                    : 2.113823             -8.697729            2.235801
| 61>   H                    : 2.186513             -9.141480            3.106202
| 62>   H                    : 0.630820             -9.935662            1.490338
| 63>   H                    : 1.712268             -9.153807            0.292293
| 64>   H                    : 2.335662             -10.485198           1.058917
| 65>   C                      1.310005             -5.374597            1.050134
| 66>   O                      2.401512             -6.320147            0.794165
| 67>   H                      2.409136             -7.072881            1.458004
| 68>   H                      0.288380             -5.856881            0.838766
| 69>   H                      1.226147             -4.946307            2.050724
| 70>   H                      1.364170             -4.525090            0.270397
| 71> *
| 72>
| 73>                          ****END OF INPUT****
 Total Charge           Charge          ....    0
 Multiplicity           Mult            ....    1
 Number of Electrons    NEL             ....   36
Dispersion correction           -0.001871720
FINAL SINGLE POINT ENERGY      -231.467314978178
Dispersion correction           -0.000260034
FINAL SINGLE POINT ENERGY      -115.730821283520

CARTESIAN COORDINATES (ANGSTROEM)
---------------------------------
  C      1.707652   -9.586707    1.253464
  O      2.113823   -8.697729    2.235801
  H      2.186513   -9.141480    3.106202
  H      0.630820   -9.935662    1.490338
  H      1.712268   -9.153807    0.292293
  H      2.335662  -10.485198    1.058917
  C      1.310005   -5.374597    1.050134
  O      2.401512   -6.320147    0.794165
  H      2.409136   -7.072881    1.458004
  H      0.288380   -5.856881    0.838766
  H      1.226147   -4.946307    2.050724
  H      1.364170   -4.525090    0.270397

 Multiplicity           Mult            ....    1
 Number of Electrons    NEL             ....   18
 Basis Dimension        Dim             ....  172

ORBITAL ENERGIES
----------------

  NO   OCC          E(Eh)            E(eV)
   0   2.0000     -19.238711      -523.5119
   1   2.0000     -10.330879      -281.1175
   2   2.0000      -1.113356       -30.2960
   3   2.0000      -0.789189       -21.4749
   4   2.0000      -0.600871       -16.3505
   5   2.0000      -0.527046       -14.3417
   6   2.0000      -0.513790       -13.9809
   7   2.0000      -0.432876       -11.7792
   8   2.0000      -0.375330       -10.2133
   9   0.0000       0.071069         1.9339
  10   0.0000       0.133480         3.6322
  11   0.0000       0.140912         3.8344
  12   0.0000       0.162019         4.4088
  13   0.0000       0.189882         5.1670

MULLIKEN ATOMIC CHARGES
-----------------------
   0 C :   -0.004192
   1 O :   -0.003851
   2 H :   -0.000290
   3 H :    0.000424
   4 H :   -0.005230
   5 H :   -0.000181
   6 C :   -0.181673
   7 O :   -0.475359
   8 H :    0.320524
   9 H :    0.104242
  10 H :    0.118680
  11 H :    0.126904
Sum of atomic charges:    0.0000000

LOEWDIN ATOMIC CHARGES
----------------------
   0 C :   -0.010330
   1 O :   -0.027359
   2 H :   -0.001241
   3 H :   -0.000125
   4 H :   -0.004355
   5 H :   -0.000156
   6 C :   -0.369144
   7 O :   -0.111785
   8 H :    0.206215
   9 H :    0.103353
  10 H :    0.093639
  11 H :    0.121288

  Mayer bond orders larger than 0.1
B(  6-C ,  7-O ) :   0.9988 B(  6-C ,  9-H ) :   0.9701 B(  6-C , 10-H ) :   0.9645
B(  6-C , 11-H ) :   0.9717 B(  7-O ,  8-H ) :   0.8909

Dispersion correction           -0.000312886
FINAL SINGLE POINT ENERGY      -115.727812184098

DIPOLE MOMENT
-------------
                                X             Y             Z
Electronic contribution:      1.54710      -1.07707      -0.29922
Nuclear contribution   :     -1.99797       1.02479       0.81982
                        -----------------------------------------
Total Dipole Moment    :     -0.45087      -0.05228       0.52060
                        -----------------------------------------
Magnitude (a.u.)       :      0.69068
Magnitude (Debye)      :      1.75557

Rotational constants in cm-1:     4.124726     0.763516     0.734197
Rotational constants in MHz : 123656.178349 22889.623981 22010.674379

                             ****ORCA TERMINATED NORMALLY****
TOTAL RUN TIME: 0 days 0 hours 1 minutes 9 seconds 97 msec
