                         Program Version 4.1.2  - RELEASE  -
|  1> #Run DFT-D3 single point of the dimer
|  2> ! wB97X-D3 def2-TZVP TIGHTSCF CHELPG PMODEL PAL8
|  3>
|  4> %base "8-66_DFT_AB"
|  5>
|  6> %scf
|  7> MaxIter 1000
|  8> end
|  9>
| 10> * xyz 0 1
| 11>   C                      3.247449             0.489047             6.955197
| 12>   O                      3.339960             1.502602             5.982111
| 13>   H                      2.459960             1.640455             5.585835
| 14>   H                      2.534463             0.868375             7.717436
| 15>   H                      2.934831             -0.454493            6.529917
| 16>   H                      4.259433             0.461948             7.314150
| 17>   C                      3.227038             0.299315             2.583247
| 18>   O                      2.666419             0.055697             1.319139
| 19>   H                      2.532418             -0.879725            1.086573
| 20>   H                      4.019190             -0.355166            2.838296
| 21>   H                      3.630524             1.336282             2.668777
| 22>   H                      2.489073             0.331264             3.443880
| 23> *
| 24>
| 25> #Run DFT-D3 single point of the molecule with dimer basis set
| 26> $new_job
| 27> %base "8-66_DFT_A"
| 28> ! wB97X-D3 def2-TZVP TIGHTSCF CHELPG PMODEL
| 29>
| 30> %scf
| 31> MaxIter 1000
| 32> end
| 33>
| 34> * xyz 0 1
| 35>   C                      3.247449             0.489047             6.955197
| 36>   O                      3.339960             1.502602             5.982111
| 37>   H                      2.459960             1.640455             5.585835
| 38>   H                      2.534463             0.868375             7.717436
| 39>   H                      2.934831             -0.454493            6.529917
| 40>   H                      4.259433             0.461948             7.314150
| 41>   C                    : 3.227038             0.299315             2.583247
| 42>   O                    : 2.666419             0.055697             1.319139
| 43>   H                    : 2.532418             -0.879725            1.086573
| 44>   H                    : 4.019190             -0.355166            2.838296
| 45>   H                    : 3.630524             1.336282             2.668777
| 46>   H                    : 2.489073             0.331264             3.443880
| 47> *
| 48>
| 49> #Run DFT-D3 single point of the particle with dimer basis set
| 50> $new_job
| 51> %base "8-66_DFT_B"
| 52> ! wB97X-D3 def2-TZVP TIGHTSCF CHELPG PMODEL
| 53>
| 54> %scf
| 55> MaxIter 1000
| 56> end
| 57>
| 58> * xyz 0 1
| 59>   C                    : 3.247449             0.489047             6.955197
| 60>   O                    : 3.339960             1.502602             5.982111
| 61>   H                    : 2.459960             1.640455             5.585835
| 62>   H                    : 2.534463             0.868375             7.717436
| 63>   H                    : 2.934831             -0.454493            6.529917
| 64>   H                    : 4.259433             0.461948             7.314150
| 65>   C                      3.227038             0.299315             2.583247
| 66>   O                      2.666419             0.055697             1.319139
| 67>   H                      2.532418             -0.879725            1.086573
| 68>   H                      4.019190             -0.355166            2.838296
| 69>   H                      3.630524             1.336282             2.668777
| 70>   H                      2.489073             0.331264             3.443880
| 71> *
| 72>
| 73>                          ****END OF INPUT****
 Total Charge           Charge          ....    0
 Multiplicity           Mult            ....    1
 Number of Electrons    NEL             ....   36
Dispersion correction           -0.001564722
FINAL SINGLE POINT ENERGY      -231.466370855331
Dispersion correction           -0.000215506
FINAL SINGLE POINT ENERGY      -115.734041803468

CARTESIAN COORDINATES (ANGSTROEM)
---------------------------------
  C      3.247449    0.489047    6.955197
  O      3.339960    1.502602    5.982111
  H      2.459960    1.640455    5.585835
  H      2.534463    0.868375    7.717436
  H      2.934831   -0.454493    6.529917
  H      4.259433    0.461948    7.314150
  C      3.227038    0.299315    2.583247
  O      2.666419    0.055697    1.319139
  H      2.532418   -0.879725    1.086573
  H      4.019190   -0.355166    2.838296
  H      3.630524    1.336282    2.668777
  H      2.489073    0.331264    3.443880

 Multiplicity           Mult            ....    1
 Number of Electrons    NEL             ....   18
 Basis Dimension        Dim             ....  172

ORBITAL ENERGIES
----------------

  NO   OCC          E(Eh)            E(eV)
   0   2.0000     -19.232317      -523.3380
   1   2.0000     -10.315713      -280.7048
   2   2.0000      -1.133171       -30.8351
   3   2.0000      -0.797826       -21.7100
   4   2.0000      -0.616795       -16.7838
   5   2.0000      -0.541721       -14.7410
   6   2.0000      -0.522385       -14.2148
   7   2.0000      -0.423897       -11.5348
   8   2.0000      -0.371994       -10.1225
   9   0.0000       0.083315         2.2671
  10   0.0000       0.116908         3.1812
  11   0.0000       0.144770         3.9394
  12   0.0000       0.175753         4.7825
  13   0.0000       0.187645         5.1061

MULLIKEN ATOMIC CHARGES
-----------------------
   0 C :    0.000576
   1 O :   -0.000211
   2 H :   -0.000970
   3 H :   -0.000018
   4 H :   -0.000833
   5 H :   -0.000015
   6 C :   -0.152765
   7 O :   -0.487430
   8 H :    0.322739
   9 H :    0.109259
  10 H :    0.116220
  11 H :    0.093449
Sum of atomic charges:   -0.0000000

LOEWDIN ATOMIC CHARGES
----------------------
   0 C :   -0.001036
   1 O :   -0.001305
   2 H :   -0.003388
   3 H :   -0.000006
   4 H :   -0.000536
   5 H :   -0.000009
   6 C :   -0.399281
   7 O :   -0.074098
   8 H :    0.176996
   9 H :    0.087471
  10 H :    0.113932
  11 H :    0.101260

  Mayer bond orders larger than 0.1
B(  6-C ,  7-O ) :   1.0049 B(  6-C ,  9-H ) :   0.9760 B(  6-C , 10-H ) :   0.9709
B(  6-C , 11-H ) :   0.9734 B(  7-O ,  8-H ) :   0.8876

Dispersion correction           -0.000278452
FINAL SINGLE POINT ENERGY      -115.730983964175

DIPOLE MOMENT
-------------
                                X             Y             Z
Electronic contribution:     -0.68677      -0.34299      -1.77566
Nuclear contribution   :      0.85211      -0.17203       2.11712
                        -----------------------------------------
Total Dipole Moment    :      0.16533      -0.51502       0.34145
                        -----------------------------------------
Magnitude (a.u.)       :      0.63967
Magnitude (Debye)      :      1.62591

Rotational constants in cm-1:     4.491271     0.814365     0.789673
Rotational constants in MHz : 134644.902491 24414.057547 23673.789803

                             ****ORCA TERMINATED NORMALLY****
TOTAL RUN TIME: 0 days 0 hours 0 minutes 44 seconds 784 msec
