                         Program Version 4.1.2  - RELEASE  -
|  1> #Run DFT-D3 single point of the dimer
|  2> ! wB97X-D3 def2-TZVP TIGHTSCF CHELPG PMODEL PAL8
|  3>
|  4> %base "2-11_DFT_AB"
|  5>
|  6> %scf
|  7> MaxIter 1000
|  8> end
|  9>
| 10> * xyz 0 1
| 11>   C                      3.632446             -6.994954            3.184119
| 12>   O                      4.407674             -7.329784            1.949356
| 13>   H                      4.084722             -6.757850            1.277197
| 14>   H                      3.654814             -7.907382            3.783212
| 15>   H                      4.085916             -6.202538            3.691906
| 16>   H                      2.536765             -6.837212            2.963092
| 17>   C                      4.375305             -6.590619            8.570160
| 18>   O                      3.198486             -6.577218            7.791134
| 19>   H                      3.032970             -7.405576            7.363455
| 20>   H                      5.218908             -6.092983            8.186280
| 21>   H                      4.268135             -6.210172            9.560701
| 22>   H                      4.850639             -7.577461            8.626271
| 23> *
| 24>
| 25> #Run DFT-D3 single point of the molecule with dimer basis set
| 26> $new_job
| 27> %base "2-11_DFT_A"
| 28> ! wB97X-D3 def2-TZVP TIGHTSCF CHELPG PMODEL
| 29>
| 30> %scf
| 31> MaxIter 1000
| 32> end
| 33>
| 34> * xyz 0 1
| 35>   C                      3.632446             -6.994954            3.184119
| 36>   O                      4.407674             -7.329784            1.949356
| 37>   H                      4.084722             -6.757850            1.277197
| 38>   H                      3.654814             -7.907382            3.783212
| 39>   H                      4.085916             -6.202538            3.691906
| 40>   H                      2.536765             -6.837212            2.963092
| 41>   C                    : 4.375305             -6.590619            8.570160
| 42>   O                    : 3.198486             -6.577218            7.791134
| 43>   H                    : 3.032970             -7.405576            7.363455
| 44>   H                    : 5.218908             -6.092983            8.186280
| 45>   H                    : 4.268135             -6.210172            9.560701
| 46>   H                    : 4.850639             -7.577461            8.626271
| 47> *
| 48>
| 49> #Run DFT-D3 single point of the particle with dimer basis set
| 50> $new_job
| 51> %base "2-11_DFT_B"
| 52> ! wB97X-D3 def2-TZVP TIGHTSCF CHELPG PMODEL
| 53>
| 54> %scf
| 55> MaxIter 1000
| 56> end
| 57>
| 58> * xyz 0 1
| 59>   C                    : 3.632446             -6.994954            3.184119
| 60>   O                    : 4.407674             -7.329784            1.949356
| 61>   H                    : 4.084722             -6.757850            1.277197
| 62>   H                    : 3.654814             -7.907382            3.783212
| 63>   H                    : 4.085916             -6.202538            3.691906
| 64>   H                    : 2.536765             -6.837212            2.963092
| 65>   C                      4.375305             -6.590619            8.570160
| 66>   O                      3.198486             -6.577218            7.791134
| 67>   H                      3.032970             -7.405576            7.363455
| 68>   H                      5.218908             -6.092983            8.186280
| 69>   H                      4.268135             -6.210172            9.560701
| 70>   H                      4.850639             -7.577461            8.626271
| 71> *
| 72>
| 73>                          ****END OF INPUT****
 Total Charge           Charge          ....    0
 Multiplicity           Mult            ....    1
 Number of Electrons    NEL             ....   36
Dispersion correction           -0.000844645
FINAL SINGLE POINT ENERGY      -231.458641711579
Dispersion correction           -0.000266601
FINAL SINGLE POINT ENERGY      -115.730299761008

CARTESIAN COORDINATES (ANGSTROEM)
---------------------------------
  C      3.632446   -6.994954    3.184119
  O      4.407674   -7.329784    1.949356
  H      4.084722   -6.757850    1.277197
  H      3.654814   -7.907382    3.783212
  H      4.085916   -6.202538    3.691906
  H      2.536765   -6.837212    2.963092
  C      4.375305   -6.590619    8.570160
  O      3.198486   -6.577218    7.791134
  H      3.032970   -7.405576    7.363455
  H      5.218908   -6.092983    8.186280
  H      4.268135   -6.210172    9.560701
  H      4.850639   -7.577461    8.626271

 Multiplicity           Mult            ....    1
 Number of Electrons    NEL             ....   18
 Basis Dimension        Dim             ....  172

ORBITAL ENERGIES
----------------

  NO   OCC          E(Eh)            E(eV)
   0   2.0000     -19.231193      -523.3074
   1   2.0000     -10.306342      -280.4498
   2   2.0000      -1.137492       -30.9527
   3   2.0000      -0.808533       -22.0013
   4   2.0000      -0.622967       -16.9518
   5   2.0000      -0.540617       -14.7109
   6   2.0000      -0.529011       -14.3951
   7   2.0000      -0.428491       -11.6598
   8   2.0000      -0.375351       -10.2138
   9   0.0000       0.083336         2.2677
  10   0.0000       0.116361         3.1664
  11   0.0000       0.148712         4.0467
  12   0.0000       0.175149         4.7660
  13   0.0000       0.192779         5.2458

MULLIKEN ATOMIC CHARGES
-----------------------
   0 C :   -0.000107
   1 O :   -0.000026
   2 H :   -0.000008
   3 H :   -0.000447
   4 H :   -0.000632
   5 H :   -0.000008
   6 C :   -0.163818
   7 O :   -0.479504
   8 H :    0.321662
   9 H :    0.105661
  10 H :    0.117151
  11 H :    0.100076
Sum of atomic charges:    0.0000000

LOEWDIN ATOMIC CHARGES
----------------------
   0 C :   -0.000633
   1 O :   -0.000009
   2 H :   -0.000006
   3 H :   -0.000213
   4 H :   -0.000253
   5 H :   -0.000005
   6 C :   -0.384918
   7 O :   -0.064974
   8 H :    0.162454
   9 H :    0.090086
  10 H :    0.098177
  11 H :    0.100294

  Mayer bond orders larger than 0.1
B(  6-C ,  7-O ) :   1.0130 B(  6-C ,  9-H ) :   0.9710 B(  6-C , 10-H ) :   0.9779
B(  6-C , 11-H ) :   0.9867 B(  7-O ,  8-H ) :   0.8961

Dispersion correction           -0.000264469
FINAL SINGLE POINT ENERGY      -115.727771394192

DIPOLE MOMENT
-------------
                                X             Y             Z
Electronic contribution:     -1.69529       0.21142      -0.97863
Nuclear contribution   :      2.08936      -0.78214       1.00811
                        -----------------------------------------
Total Dipole Moment    :      0.39407      -0.57072       0.02949
                        -----------------------------------------
Magnitude (a.u.)       :      0.69418
Magnitude (Debye)      :      1.76447

Rotational constants in cm-1:     4.771106     0.819328     0.785913
Rotational constants in MHz : 143034.162163 24562.844746 23561.092985

                             ****ORCA TERMINATED NORMALLY****
TOTAL RUN TIME: 0 days 0 hours 6 minutes 0 seconds 241 msec
