                         Program Version 4.1.2  - RELEASE  -
|  1> #Run DFT-D3 single point of the dimer
|  2> ! wB97X-D3 def2-TZVP TIGHTSCF CHELPG PMODEL PAL8
|  3>
|  4> %base "8-75_DFT_AB"
|  5>
|  6> %scf
|  7> MaxIter 1000
|  8> end
|  9>
| 10> * xyz 0 1
| 11>   C                      6.555521             2.875121             5.302771
| 12>   O                      5.960526             2.912413             6.541502
| 13>   H                      5.034107             2.707951             6.433674
| 14>   H                      6.880396             3.815636             4.981021
| 15>   H                      7.546284             2.419773             5.320943
| 16>   H                      5.929050             2.395693             4.578541
| 17>   C                      6.823729             6.653392             4.663200
| 18>   O                      5.853408             7.293050             3.735871
| 19>   H                      5.958699             6.875321             2.844677
| 20>   H                      6.405214             6.361899             5.666741
| 21>   H                      7.327214             5.758224             4.307533
| 22>   H                      7.632612             7.335827             4.701187
| 23> *
| 24>
| 25> #Run DFT-D3 single point of the molecule with dimer basis set
| 26> $new_job
| 27> %base "8-75_DFT_A"
| 28> ! wB97X-D3 def2-TZVP TIGHTSCF CHELPG PMODEL
| 29>
| 30> %scf
| 31> MaxIter 1000
| 32> end
| 33>
| 34> * xyz 0 1
| 35>   C                      6.555521             2.875121             5.302771
| 36>   O                      5.960526             2.912413             6.541502
| 37>   H                      5.034107             2.707951             6.433674
| 38>   H                      6.880396             3.815636             4.981021
| 39>   H                      7.546284             2.419773             5.320943
| 40>   H                      5.929050             2.395693             4.578541
| 41>   C                    : 6.823729             6.653392             4.663200
| 42>   O                    : 5.853408             7.293050             3.735871
| 43>   H                    : 5.958699             6.875321             2.844677
| 44>   H                    : 6.405214             6.361899             5.666741
| 45>   H                    : 7.327214             5.758224             4.307533
| 46>   H                    : 7.632612             7.335827             4.701187
| 47> *
| 48>
| 49> #Run DFT-D3 single point of the particle with dimer basis set
| 50> $new_job
| 51> %base "8-75_DFT_B"
| 52> ! wB97X-D3 def2-TZVP TIGHTSCF CHELPG PMODEL
| 53>
| 54> %scf
| 55> MaxIter 1000
| 56> end
| 57>
| 58> * xyz 0 1
| 59>   C                    : 6.555521             2.875121             5.302771
| 60>   O                    : 5.960526             2.912413             6.541502
| 61>   H                    : 5.034107             2.707951             6.433674
| 62>   H                    : 6.880396             3.815636             4.981021
| 63>   H                    : 7.546284             2.419773             5.320943
| 64>   H                    : 5.929050             2.395693             4.578541
| 65>   C                      6.823729             6.653392             4.663200
| 66>   O                      5.853408             7.293050             3.735871
| 67>   H                      5.958699             6.875321             2.844677
| 68>   H                      6.405214             6.361899             5.666741
| 69>   H                      7.327214             5.758224             4.307533
| 70>   H                      7.632612             7.335827             4.701187
| 71> *
| 72>
| 73>                          ****END OF INPUT****
 Total Charge           Charge          ....    0
 Multiplicity           Mult            ....    1
 Number of Electrons    NEL             ....   36
Dispersion correction           -0.001535637
FINAL SINGLE POINT ENERGY      -231.453937811971
Dispersion correction           -0.000227656
FINAL SINGLE POINT ENERGY      -115.728711259451

CARTESIAN COORDINATES (ANGSTROEM)
---------------------------------
  C      6.555521    2.875121    5.302771
  O      5.960526    2.912413    6.541502
  H      5.034107    2.707951    6.433674
  H      6.880396    3.815636    4.981021
  H      7.546284    2.419773    5.320943
  H      5.929050    2.395693    4.578541
  C      6.823729    6.653392    4.663200
  O      5.853408    7.293050    3.735871
  H      5.958699    6.875321    2.844677
  H      6.405214    6.361899    5.666741
  H      7.327214    5.758224    4.307533
  H      7.632612    7.335827    4.701187

 Multiplicity           Mult            ....    1
 Number of Electrons    NEL             ....   18
 Basis Dimension        Dim             ....  172

ORBITAL ENERGIES
----------------

  NO   OCC          E(Eh)            E(eV)
   0   2.0000     -19.233456      -523.3690
   1   2.0000     -10.318179      -280.7719
   2   2.0000      -1.109995       -30.2045
   3   2.0000      -0.799099       -21.7446
   4   2.0000      -0.597816       -16.2674
   5   2.0000      -0.541944       -14.7471
   6   2.0000      -0.505630       -13.7589
   7   2.0000      -0.437551       -11.9064
   8   2.0000      -0.375522       -10.2185
   9   0.0000       0.084325         2.2946
  10   0.0000       0.113740         3.0950
  11   0.0000       0.149211         4.0602
  12   0.0000       0.156163         4.2494
  13   0.0000       0.192720         5.2442

MULLIKEN ATOMIC CHARGES
-----------------------
   0 C :    0.005102
   1 O :   -0.000049
   2 H :   -0.000012
   3 H :   -0.008065
   4 H :   -0.000032
   5 H :   -0.000425
   6 C :   -0.163646
   7 O :   -0.486516
   8 H :    0.317331
   9 H :    0.115010
  10 H :    0.107669
  11 H :    0.113634
Sum of atomic charges:   -0.0000000

LOEWDIN ATOMIC CHARGES
----------------------
   0 C :   -0.003828
   1 O :   -0.000102
   2 H :   -0.000025
   3 H :   -0.009975
   4 H :   -0.000049
   5 H :   -0.000043
   6 C :   -0.335800
   7 O :   -0.139324
   8 H :    0.181050
   9 H :    0.113768
  10 H :    0.100311
  11 H :    0.094017

  Mayer bond orders larger than 0.1
B(  6-C ,  7-O ) :   1.0045 B(  6-C ,  9-H ) :   0.9712 B(  6-C , 10-H ) :   0.9768
B(  6-C , 11-H ) :   0.9718 B(  7-O ,  8-H ) :   0.8965

Dispersion correction           -0.000287315
FINAL SINGLE POINT ENERGY      -115.725050068315

DIPOLE MOMENT
-------------
                                X             Y             Z
Electronic contribution:     -1.32655       0.86929      -0.98614
Nuclear contribution   :      1.83460      -1.42523       0.80235
                        -----------------------------------------
Total Dipole Moment    :      0.50806      -0.55593      -0.18380
                        -----------------------------------------
Magnitude (a.u.)       :      0.77522
Magnitude (Debye)      :      1.97045

Rotational constants in cm-1:     4.347411     0.757947     0.733318
Rotational constants in MHz : 130332.117770 22722.675959 21984.318866

                             ****ORCA TERMINATED NORMALLY****
TOTAL RUN TIME: 0 days 0 hours 0 minutes 44 seconds 962 msec
