                         Program Version 4.1.2  - RELEASE  -
|  1> #Run DFT-D3 single point of the dimer
|  2> ! wB97X-D3 def2-TZVP TIGHTSCF CHELPG PMODEL PAL8
|  3>
|  4> %base "22-121_DFT_AB"
|  5>
|  6> %scf
|  7> MaxIter 1000
|  8> end
|  9>
| 10> * xyz 0 1
| 11>   C                      4.528630             2.039462             -5.128029
| 12>   O                      4.867166             0.760606             -4.647254
| 13>   H                      4.537975             0.701861             -3.774986
| 14>   H                      3.432986             2.102369             -5.175460
| 15>   H                      4.983056             2.835476             -4.470874
| 16>   H                      5.000534             2.221187             -6.109668
| 17>   C                      1.758582             -1.437780            -2.185095
| 18>   O                      1.633150             -0.040761            -2.412999
| 19>   H                      1.922239             0.409102             -1.638238
| 20>   H                      2.724347             -1.540067            -1.692715
| 21>   H                      0.986000             -1.690466            -1.515458
| 22>   H                      1.769196             -1.988602            -3.101469
| 23> *
| 24>
| 25> #Run DFT-D3 single point of the molecule with dimer basis set
| 26> $new_job
| 27> %base "22-121_DFT_A"
| 28> ! wB97X-D3 def2-TZVP TIGHTSCF CHELPG PMODEL
| 29>
| 30> %scf
| 31> MaxIter 1000
| 32> end
| 33>
| 34> * xyz 0 1
| 35>   C                      4.528630             2.039462             -5.128029
| 36>   O                      4.867166             0.760606             -4.647254
| 37>   H                      4.537975             0.701861             -3.774986
| 38>   H                      3.432986             2.102369             -5.175460
| 39>   H                      4.983056             2.835476             -4.470874
| 40>   H                      5.000534             2.221187             -6.109668
| 41>   C                    : 1.758582             -1.437780            -2.185095
| 42>   O                    : 1.633150             -0.040761            -2.412999
| 43>   H                    : 1.922239             0.409102             -1.638238
| 44>   H                    : 2.724347             -1.540067            -1.692715
| 45>   H                    : 0.986000             -1.690466            -1.515458
| 46>   H                    : 1.769196             -1.988602            -3.101469
| 47> *
| 48>
| 49> #Run DFT-D3 single point of the particle with dimer basis set
| 50> $new_job
| 51> %base "22-121_DFT_B"
| 52> ! wB97X-D3 def2-TZVP TIGHTSCF CHELPG PMODEL
| 53>
| 54> %scf
| 55> MaxIter 1000
| 56> end
| 57>
| 58> * xyz 0 1
| 59>   C                    : 4.528630             2.039462             -5.128029
| 60>   O                    : 4.867166             0.760606             -4.647254
| 61>   H                    : 4.537975             0.701861             -3.774986
| 62>   H                    : 3.432986             2.102369             -5.175460
| 63>   H                    : 4.983056             2.835476             -4.470874
| 64>   H                    : 5.000534             2.221187             -6.109668
| 65>   C                      1.758582             -1.437780            -2.185095
| 66>   O                      1.633150             -0.040761            -2.412999
| 67>   H                      1.922239             0.409102             -1.638238
| 68>   H                      2.724347             -1.540067            -1.692715
| 69>   H                      0.986000             -1.690466            -1.515458
| 70>   H                      1.769196             -1.988602            -3.101469
| 71> *
| 72>
| 73>                          ****END OF INPUT****
 Total Charge           Charge          ....    0
 Multiplicity           Mult            ....    1
 Number of Electrons    NEL             ....   36
Dispersion correction           -0.001094611
FINAL SINGLE POINT ENERGY      -231.467471904279
Dispersion correction           -0.000226650
FINAL SINGLE POINT ENERGY      -115.734448009665

CARTESIAN COORDINATES (ANGSTROEM)
---------------------------------
  C      4.528630    2.039462   -5.128029
  O      4.867166    0.760606   -4.647254
  H      4.537975    0.701861   -3.774986
  H      3.432986    2.102369   -5.175460
  H      4.983056    2.835476   -4.470874
  H      5.000534    2.221187   -6.109668
  C      1.758582   -1.437780   -2.185095
  O      1.633150   -0.040761   -2.412999
  H      1.922239    0.409102   -1.638238
  H      2.724347   -1.540067   -1.692715
  H      0.986000   -1.690466   -1.515458
  H      1.769196   -1.988602   -3.101469

 Multiplicity           Mult            ....    1
 Number of Electrons    NEL             ....   18
 Basis Dimension        Dim             ....  172

ORBITAL ENERGIES
----------------

  NO   OCC          E(Eh)            E(eV)
   0   2.0000     -19.220863      -523.0263
   1   2.0000     -10.306150      -280.4446
   2   2.0000      -1.135457       -30.8974
   3   2.0000      -0.799856       -21.7652
   4   2.0000      -0.607411       -16.5285
   5   2.0000      -0.554329       -15.0841
   6   2.0000      -0.533553       -14.5187
   7   2.0000      -0.430095       -11.7035
   8   2.0000      -0.370150       -10.0723
   9   0.0000       0.091846         2.4992
  10   0.0000       0.119047         3.2394
  11   0.0000       0.160660         4.3718
  12   0.0000       0.180219         4.9040
  13   0.0000       0.195530         5.3206

MULLIKEN ATOMIC CHARGES
-----------------------
   0 C :    0.001103
   1 O :    0.000391
   2 H :   -0.004216
   3 H :   -0.001531
   4 H :    0.000005
   5 H :   -0.000063
   6 C :   -0.163660
   7 O :   -0.482845
   8 H :    0.310798
   9 H :    0.102364
  10 H :    0.113047
  11 H :    0.124606
Sum of atomic charges:   -0.0000000

LOEWDIN ATOMIC CHARGES
----------------------
   0 C :   -0.000579
   1 O :   -0.000250
   2 H :   -0.003142
   3 H :   -0.000534
   4 H :   -0.000003
   5 H :   -0.000010
   6 C :   -0.361003
   7 O :   -0.080746
   8 H :    0.154476
   9 H :    0.097963
  10 H :    0.089834
  11 H :    0.103993

  Mayer bond orders larger than 0.1
B(  6-C ,  7-O ) :   0.9747 B(  6-C ,  9-H ) :   0.9934 B(  6-C , 10-H ) :   0.9787
B(  6-C , 11-H ) :   0.9709 B(  7-O ,  8-H ) :   0.9044

Dispersion correction           -0.000199885
FINAL SINGLE POINT ENERGY      -115.731368648304

DIPOLE MOMENT
-------------
                                X             Y             Z
Electronic contribution:     -0.29808       1.53230      -0.47907
Nuclear contribution   :      0.53529      -1.83599       1.07493
                        -----------------------------------------
Total Dipole Moment    :      0.23721      -0.30369       0.59586
                        -----------------------------------------
Magnitude (a.u.)       :      0.70961
Magnitude (Debye)      :      1.80367

Rotational constants in cm-1:     4.345106     0.844837     0.814861
Rotational constants in MHz : 130263.014268 25327.576050 24428.921486

                             ****ORCA TERMINATED NORMALLY****
TOTAL RUN TIME: 0 days 0 hours 1 minutes 5 seconds 98 msec
