                         Program Version 4.1.2  - RELEASE  -
|  1> #Run DFT-D3 single point of the dimer
|  2> ! wB97X-D3 def2-TZVP TIGHTSCF CHELPG PMODEL PAL8
|  3>
|  4> %base "8-129_DFT_AB"
|  5>
|  6> %scf
|  7> MaxIter 1000
|  8> end
|  9>
| 10> * xyz 0 1
| 11>   C                      -5.209357            -7.911210            -7.642439
| 12>   O                      -4.306561            -7.095879            -8.320891
| 13>   H                      -4.088143            -7.384407            -9.210955
| 14>   H                      -6.268734            -7.795851            -7.834305
| 15>   H                      -4.851726            -9.038732            -7.718675
| 16>   H                      -5.098145            -7.774347            -6.550540
| 17>   C                      -2.777689            -7.211392            -3.956291
| 18>   O                      -3.585356            -6.113868            -4.081193
| 19>   H                      -4.096781            -6.082679            -3.274285
| 20>   H                      -2.257111            -7.294132            -2.998504
| 21>   H                      -3.385381            -8.071290            -4.182716
| 22>   H                      -2.046691            -7.163911            -4.738484
| 23> *
| 24>
| 25> #Run DFT-D3 single point of the molecule with dimer basis set
| 26> $new_job
| 27> %base "8-129_DFT_A"
| 28> ! wB97X-D3 def2-TZVP TIGHTSCF CHELPG PMODEL
| 29>
| 30> %scf
| 31> MaxIter 1000
| 32> end
| 33>
| 34> * xyz 0 1
| 35>   C                      -5.209357            -7.911210            -7.642439
| 36>   O                      -4.306561            -7.095879            -8.320891
| 37>   H                      -4.088143            -7.384407            -9.210955
| 38>   H                      -6.268734            -7.795851            -7.834305
| 39>   H                      -4.851726            -9.038732            -7.718675
| 40>   H                      -5.098145            -7.774347            -6.550540
| 41>   C                    : -2.777689            -7.211392            -3.956291
| 42>   O                    : -3.585356            -6.113868            -4.081193
| 43>   H                    : -4.096781            -6.082679            -3.274285
| 44>   H                    : -2.257111            -7.294132            -2.998504
| 45>   H                    : -3.385381            -8.071290            -4.182716
| 46>   H                    : -2.046691            -7.163911            -4.738484
| 47> *
| 48>
| 49> #Run DFT-D3 single point of the particle with dimer basis set
| 50> $new_job
| 51> %base "8-129_DFT_B"
| 52> ! wB97X-D3 def2-TZVP TIGHTSCF CHELPG PMODEL
| 53>
| 54> %scf
| 55> MaxIter 1000
| 56> end
| 57>
| 58> * xyz 0 1
| 59>   C                    : -5.209357            -7.911210            -7.642439
| 60>   O                    : -4.306561            -7.095879            -8.320891
| 61>   H                    : -4.088143            -7.384407            -9.210955
| 62>   H                    : -6.268734            -7.795851            -7.834305
| 63>   H                    : -4.851726            -9.038732            -7.718675
| 64>   H                    : -5.098145            -7.774347            -6.550540
| 65>   C                      -2.777689            -7.211392            -3.956291
| 66>   O                      -3.585356            -6.113868            -4.081193
| 67>   H                      -4.096781            -6.082679            -3.274285
| 68>   H                      -2.257111            -7.294132            -2.998504
| 69>   H                      -3.385381            -8.071290            -4.182716
| 70>   H                      -2.046691            -7.163911            -4.738484
| 71> *
| 72>
| 73>                          ****END OF INPUT****
 Total Charge           Charge          ....    0
 Multiplicity           Mult            ....    1
 Number of Electrons    NEL             ....   36
Dispersion correction           -0.001249921
FINAL SINGLE POINT ENERGY      -231.461473055514
Dispersion correction           -0.000276838
FINAL SINGLE POINT ENERGY      -115.728147984992

CARTESIAN COORDINATES (ANGSTROEM)
---------------------------------
  C     -5.209357   -7.911210   -7.642439
  O     -4.306561   -7.095879   -8.320891
  H     -4.088143   -7.384407   -9.210955
  H     -6.268734   -7.795851   -7.834305
  H     -4.851726   -9.038732   -7.718675
  H     -5.098145   -7.774347   -6.550540
  C     -2.777689   -7.211392   -3.956291
  O     -3.585356   -6.113868   -4.081193
  H     -4.096781   -6.082679   -3.274285
  H     -2.257111   -7.294132   -2.998504
  H     -3.385381   -8.071290   -4.182716
  H     -2.046691   -7.163911   -4.738484

 Multiplicity           Mult            ....    1
 Number of Electrons    NEL             ....   18
 Basis Dimension        Dim             ....  172

ORBITAL ENERGIES
----------------

  NO   OCC          E(Eh)            E(eV)
   0   2.0000     -19.228155      -523.2247
   1   2.0000     -10.303366      -280.3689
   2   2.0000      -1.153414       -31.3860
   3   2.0000      -0.795072       -21.6350
   4   2.0000      -0.617466       -16.8021
   5   2.0000      -0.554132       -15.0787
   6   2.0000      -0.532877       -14.5003
   7   2.0000      -0.433416       -11.7938
   8   2.0000      -0.370571       -10.0838
   9   0.0000       0.090042         2.4502
  10   0.0000       0.118916         3.2359
  11   0.0000       0.159042         4.3277
  12   0.0000       0.167713         4.5637
  13   0.0000       0.194121         5.2823

MULLIKEN ATOMIC CHARGES
-----------------------
   0 C :    0.000064
   1 O :   -0.000071
   2 H :   -0.000005
   3 H :    0.000058
   4 H :   -0.000021
   5 H :   -0.000714
   6 C :   -0.160784
   7 O :   -0.464520
   8 H :    0.313115
   9 H :    0.104318
  10 H :    0.099269
  11 H :    0.109291
Sum of atomic charges:   -0.0000000

LOEWDIN ATOMIC CHARGES
----------------------
   0 C :   -0.000655
   1 O :   -0.000027
   2 H :   -0.000002
   3 H :   -0.000002
   4 H :   -0.000030
   5 H :   -0.001494
   6 C :   -0.418458
   7 O :   -0.041129
   8 H :    0.170939
   9 H :    0.094950
  10 H :    0.092212
  11 H :    0.103698

  Mayer bond orders larger than 0.1
B(  6-C ,  7-O ) :   0.9972 B(  6-C ,  9-H ) :   0.9757 B(  6-C , 10-H ) :   0.9869
B(  6-C , 11-H ) :   0.9762 B(  7-O ,  8-H ) :   0.9018

Dispersion correction           -0.000203514
FINAL SINGLE POINT ENERGY      -115.733189519968

DIPOLE MOMENT
-------------
                                X             Y             Z
Electronic contribution:     -0.96637       1.48146      -0.20207
Nuclear contribution   :      0.95397      -1.85695       0.75046
                        -----------------------------------------
Total Dipole Moment    :     -0.01240      -0.37549       0.54839
                        -----------------------------------------
Magnitude (a.u.)       :      0.66474
Magnitude (Debye)      :      1.68964

Rotational constants in cm-1:     4.324418     0.888005     0.856527
Rotational constants in MHz : 129642.792566 26621.712508 25678.028444

                             ****ORCA TERMINATED NORMALLY****
TOTAL RUN TIME: 0 days 0 hours 0 minutes 43 seconds 537 msec
