                         Program Version 4.1.2  - RELEASE  -
|  1> #Run DFT-D3 single point of the dimer
|  2> ! wB97X-D3 def2-TZVP TIGHTSCF CHELPG PMODEL PAL8
|  3>
|  4> %base "15-16_DFT_AB"
|  5>
|  6> %scf
|  7> MaxIter 1000
|  8> end
|  9>
| 10> * xyz 0 1
| 11>   C                      -9.116109            5.828608             -3.149760
| 12>   O                      -8.666366            7.180685             -3.469790
| 13>   H                      -8.814491            7.394887             -4.363041
| 14>   H                      -9.459913            5.864401             -2.148955
| 15>   H                      -9.944737            5.470337             -3.807818
| 16>   H                      -8.309017            5.140862             -3.188582
| 17>   C                      -9.322901            11.078570            -2.047191
| 18>   O                      -9.225321            9.984224             -2.949248
| 19>   H                      -9.121819            9.197441             -2.412125
| 20>   H                      -9.874648            10.829413            -1.138850
| 21>   H                      -8.353701            11.301344            -1.708211
| 22>   H                      -9.668864            11.916965            -2.614837
| 23> *
| 24>
| 25> #Run DFT-D3 single point of the molecule with dimer basis set
| 26> $new_job
| 27> %base "15-16_DFT_A"
| 28> ! wB97X-D3 def2-TZVP TIGHTSCF CHELPG PMODEL
| 29>
| 30> %scf
| 31> MaxIter 1000
| 32> end
| 33>
| 34> * xyz 0 1
| 35>   C                      -9.116109            5.828608             -3.149760
| 36>   O                      -8.666366            7.180685             -3.469790
| 37>   H                      -8.814491            7.394887             -4.363041
| 38>   H                      -9.459913            5.864401             -2.148955
| 39>   H                      -9.944737            5.470337             -3.807818
| 40>   H                      -8.309017            5.140862             -3.188582
| 41>   C                    : -9.322901            11.078570            -2.047191
| 42>   O                    : -9.225321            9.984224             -2.949248
| 43>   H                    : -9.121819            9.197441             -2.412125
| 44>   H                    : -9.874648            10.829413            -1.138850
| 45>   H                    : -8.353701            11.301344            -1.708211
| 46>   H                    : -9.668864            11.916965            -2.614837
| 47> *
| 48>
| 49> #Run DFT-D3 single point of the particle with dimer basis set
| 50> $new_job
| 51> %base "15-16_DFT_B"
| 52> ! wB97X-D3 def2-TZVP TIGHTSCF CHELPG PMODEL
| 53>
| 54> %scf
| 55> MaxIter 1000
| 56> end
| 57>
| 58> * xyz 0 1
| 59>   C                    : -9.116109            5.828608             -3.149760
| 60>   O                    : -8.666366            7.180685             -3.469790
| 61>   H                    : -8.814491            7.394887             -4.363041
| 62>   H                    : -9.459913            5.864401             -2.148955
| 63>   H                    : -9.944737            5.470337             -3.807818
| 64>   H                    : -8.309017            5.140862             -3.188582
| 65>   C                      -9.322901            11.078570            -2.047191
| 66>   O                      -9.225321            9.984224             -2.949248
| 67>   H                      -9.121819            9.197441             -2.412125
| 68>   H                      -9.874648            10.829413            -1.138850
| 69>   H                      -8.353701            11.301344            -1.708211
| 70>   H                      -9.668864            11.916965            -2.614837
| 71> *
| 72>
| 73>                          ****END OF INPUT****
 Total Charge           Charge          ....    0
 Multiplicity           Mult            ....    1
 Number of Electrons    NEL             ....   36
Dispersion correction           -0.001340828
FINAL SINGLE POINT ENERGY      -231.470729082207
Dispersion correction           -0.000266839
FINAL SINGLE POINT ENERGY      -115.732903179240

CARTESIAN COORDINATES (ANGSTROEM)
---------------------------------
  C     -9.116109    5.828608   -3.149760
  O     -8.666366    7.180685   -3.469790
  H     -8.814491    7.394887   -4.363041
  H     -9.459913    5.864401   -2.148955
  H     -9.944737    5.470337   -3.807818
  H     -8.309017    5.140862   -3.188582
  C     -9.322901   11.078570   -2.047191
  O     -9.225321    9.984224   -2.949248
  H     -9.121819    9.197441   -2.412125
  H     -9.874648   10.829413   -1.138850
  H     -8.353701   11.301344   -1.708211
  H     -9.668864   11.916965   -2.614837

 Multiplicity           Mult            ....    1
 Number of Electrons    NEL             ....   18
 Basis Dimension        Dim             ....  172

ORBITAL ENERGIES
----------------

  NO   OCC          E(Eh)            E(eV)
   0   2.0000     -19.226833      -523.1887
   1   2.0000     -10.305413      -280.4246
   2   2.0000      -1.133789       -30.8520
   3   2.0000      -0.799817       -21.7641
   4   2.0000      -0.613760       -16.7013
   5   2.0000      -0.538632       -14.6569
   6   2.0000      -0.528708       -14.3869
   7   2.0000      -0.443182       -12.0596
   8   2.0000      -0.369560       -10.0562
   9   0.0000       0.079624         2.1667
  10   0.0000       0.123808         3.3690
  11   0.0000       0.155354         4.2274
  12   0.0000       0.178004         4.8437
  13   0.0000       0.199346         5.4245

MULLIKEN ATOMIC CHARGES
-----------------------
   0 C :   -0.000438
   1 O :   -0.000725
   2 H :   -0.001559
   3 H :   -0.000031
   4 H :    0.000024
   5 H :    0.000006
   6 C :   -0.161384
   7 O :   -0.469880
   8 H :    0.309699
   9 H :    0.102104
  10 H :    0.099983
  11 H :    0.122199
Sum of atomic charges:   -0.0000000

LOEWDIN ATOMIC CHARGES
----------------------
   0 C :   -0.000900
   1 O :   -0.008423
   2 H :   -0.002556
   3 H :   -0.000145
   4 H :   -0.000013
   5 H :   -0.000018
   6 C :   -0.367015
   7 O :   -0.078278
   8 H :    0.168872
   9 H :    0.096385
  10 H :    0.086101
  11 H :    0.105991

  Mayer bond orders larger than 0.1
B(  6-C ,  7-O ) :   0.9931 B(  6-C ,  9-H ) :   0.9801 B(  6-C , 10-H ) :   0.9813
B(  6-C , 11-H ) :   0.9758 B(  7-O ,  8-H ) :   0.9033

Dispersion correction           -0.000217156
FINAL SINGLE POINT ENERGY      -115.732993482296

DIPOLE MOMENT
-------------
                                X             Y             Z
Electronic contribution:      0.00430      -1.20755      -1.22856
Nuclear contribution   :      0.04129       1.16615       1.94155
                        -----------------------------------------
Total Dipole Moment    :      0.04559      -0.04141       0.71299
                        -----------------------------------------
Magnitude (a.u.)       :      0.71564
Magnitude (Debye)      :      1.81902

Rotational constants in cm-1:     4.352845     0.845187     0.800613
Rotational constants in MHz : 130495.011623 25338.070546 24001.778706

                             ****ORCA TERMINATED NORMALLY****
TOTAL RUN TIME: 0 days 0 hours 1 minutes 3 seconds 695 msec
