                         Program Version 4.1.2  - RELEASE  -
|  1> #Run DFT-D3 single point of the dimer
|  2> ! wB97X-D3 def2-TZVP TIGHTSCF CHELPG PMODEL PAL8
|  3>
|  4> %base "16-71_DFT_AB"
|  5>
|  6> %scf
|  7> MaxIter 1000
|  8> end
|  9>
| 10> * xyz 0 1
| 11>   C                      1.882657             -5.473259            -4.311445
| 12>   O                      1.200089             -6.616802            -4.829966
| 13>   H                      0.588911             -6.281126            -5.540718
| 14>   H                      2.877696             -5.712606            -3.843402
| 15>   H                      2.170245             -4.752331            -5.142988
| 16>   H                      1.250145             -4.869591            -3.657311
| 17>   C                      1.223260             -1.480674            -8.357908
| 18>   O                      0.775474             -0.222044            -8.690268
| 19>   H                      -0.158119            -0.431225            -8.811252
| 20>   H                      2.308091             -1.483279            -8.461027
| 21>   H                      1.210435             -1.708440            -7.310833
| 22>   H                      0.795470             -2.240952            -8.929470
| 23> *
| 24>
| 25> #Run DFT-D3 single point of the molecule with dimer basis set
| 26> $new_job
| 27> %base "16-71_DFT_A"
| 28> ! wB97X-D3 def2-TZVP TIGHTSCF CHELPG PMODEL
| 29>
| 30> %scf
| 31> MaxIter 1000
| 32> end
| 33>
| 34> * xyz 0 1
| 35>   C                      1.882657             -5.473259            -4.311445
| 36>   O                      1.200089             -6.616802            -4.829966
| 37>   H                      0.588911             -6.281126            -5.540718
| 38>   H                      2.877696             -5.712606            -3.843402
| 39>   H                      2.170245             -4.752331            -5.142988
| 40>   H                      1.250145             -4.869591            -3.657311
| 41>   C                    : 1.223260             -1.480674            -8.357908
| 42>   O                    : 0.775474             -0.222044            -8.690268
| 43>   H                    : -0.158119            -0.431225            -8.811252
| 44>   H                    : 2.308091             -1.483279            -8.461027
| 45>   H                    : 1.210435             -1.708440            -7.310833
| 46>   H                    : 0.795470             -2.240952            -8.929470
| 47> *
| 48>
| 49> #Run DFT-D3 single point of the particle with dimer basis set
| 50> $new_job
| 51> %base "16-71_DFT_B"
| 52> ! wB97X-D3 def2-TZVP TIGHTSCF CHELPG PMODEL
| 53>
| 54> %scf
| 55> MaxIter 1000
| 56> end
| 57>
| 58> * xyz 0 1
| 59>   C                    : 1.882657             -5.473259            -4.311445
| 60>   O                    : 1.200089             -6.616802            -4.829966
| 61>   H                    : 0.588911             -6.281126            -5.540718
| 62>   H                    : 2.877696             -5.712606            -3.843402
| 63>   H                    : 2.170245             -4.752331            -5.142988
| 64>   H                    : 1.250145             -4.869591            -3.657311
| 65>   C                      1.223260             -1.480674            -8.357908
| 66>   O                      0.775474             -0.222044            -8.690268
| 67>   H                      -0.158119            -0.431225            -8.811252
| 68>   H                      2.308091             -1.483279            -8.461027
| 69>   H                      1.210435             -1.708440            -7.310833
| 70>   H                      0.795470             -2.240952            -8.929470
| 71> *
| 72>
| 73>                          ****END OF INPUT****
 Total Charge           Charge          ....    0
 Multiplicity           Mult            ....    1
 Number of Electrons    NEL             ....   36
Dispersion correction           -0.000633387
FINAL SINGLE POINT ENERGY      -231.457421846638
Dispersion correction           -0.000260539
FINAL SINGLE POINT ENERGY      -115.731139807184

CARTESIAN COORDINATES (ANGSTROEM)
---------------------------------
  C      1.882657   -5.473259   -4.311445
  O      1.200089   -6.616802   -4.829966
  H      0.588911   -6.281126   -5.540718
  H      2.877696   -5.712606   -3.843402
  H      2.170245   -4.752331   -5.142988
  H      1.250145   -4.869591   -3.657311
  C      1.223260   -1.480674   -8.357908
  O      0.775474   -0.222044   -8.690268
  H     -0.158119   -0.431225   -8.811252
  H      2.308091   -1.483279   -8.461027
  H      1.210435   -1.708440   -7.310833
  H      0.795470   -2.240952   -8.929470

 Multiplicity           Mult            ....    1
 Number of Electrons    NEL             ....   18
 Basis Dimension        Dim             ....  172

ORBITAL ENERGIES
----------------

  NO   OCC          E(Eh)            E(eV)
   0   2.0000     -19.234243      -523.3904
   1   2.0000     -10.300021      -280.2778
   2   2.0000      -1.155190       -31.4343
   3   2.0000      -0.797186       -21.6925
   4   2.0000      -0.621439       -16.9102
   5   2.0000      -0.555631       -15.1195
   6   2.0000      -0.526304       -14.3215
   7   2.0000      -0.442716       -12.0469
   8   2.0000      -0.371632       -10.1126
   9   0.0000       0.082285         2.2391
  10   0.0000       0.115314         3.1379
  11   0.0000       0.148540         4.0420
  12   0.0000       0.162621         4.4251
  13   0.0000       0.192380         5.2349

MULLIKEN ATOMIC CHARGES
-----------------------
   0 C :    0.000049
   1 O :    0.000000
   2 H :   -0.000008
   3 H :   -0.000005
   4 H :   -0.000131
   5 H :   -0.000010
   6 C :   -0.172970
   7 O :   -0.447055
   8 H :    0.314435
   9 H :    0.106499
  10 H :    0.094381
  11 H :    0.104814
Sum of atomic charges:   -0.0000000

LOEWDIN ATOMIC CHARGES
----------------------
   0 C :   -0.000039
   1 O :   -0.000001
   2 H :   -0.000003
   3 H :   -0.000000
   4 H :   -0.000150
   5 H :   -0.000003
   6 C :   -0.421371
   7 O :   -0.044187
   8 H :    0.181037
   9 H :    0.108833
  10 H :    0.090911
  11 H :    0.084975

  Mayer bond orders larger than 0.1
B(  6-C ,  7-O ) :   1.0214 B(  6-C ,  9-H ) :   0.9805 B(  6-C , 10-H ) :   0.9725
B(  6-C , 11-H ) :   0.9837 B(  7-O ,  8-H ) :   0.9041

Dispersion correction           -0.000205301
FINAL SINGLE POINT ENERGY      -115.726313629125

DIPOLE MOMENT
-------------
                                X             Y             Z
Electronic contribution:     -0.62791       1.71332      -0.51505
Nuclear contribution   :      0.23152      -2.30088       0.55396
                        -----------------------------------------
Total Dipole Moment    :     -0.39639      -0.58756       0.03890
                        -----------------------------------------
Magnitude (a.u.)       :      0.70984
Magnitude (Debye)      :      1.80426

Rotational constants in cm-1:     4.450361     0.885857     0.841837
Rotational constants in MHz : 133418.452948 26557.328767 25237.623592

                             ****ORCA TERMINATED NORMALLY****
TOTAL RUN TIME: 0 days 0 hours 0 minutes 55 seconds 655 msec
