                         Program Version 4.1.2  - RELEASE  -
|  1> #Run DFT-D3 single point of the dimer
|  2> ! wB97X-D3 def2-TZVP TIGHTSCF CHELPG PMODEL PAL8
|  3>
|  4> %base "9-34_DFT_AB"
|  5>
|  6> %scf
|  7> MaxIter 1000
|  8> end
|  9>
| 10> * xyz 0 1
| 11>   C                      -2.236262            -7.219065            -3.038028
| 12>   O                      -2.089203            -8.488530            -3.702297
| 13>   H                      -2.620605            -8.479153            -4.503310
| 14>   H                      -1.906942            -6.405743            -3.624474
| 15>   H                      -3.225869            -6.961767            -2.730361
| 16>   H                      -1.644495            -7.133655            -2.155844
| 17>   C                      -4.903874            -9.442278            -0.677737
| 18>   O                      -3.989815            -9.223129            0.357628
| 19>   H                      -4.262222            -9.680427            1.180958
| 20>   H                      -5.967884            -9.465559            -0.415941
| 21>   H                      -4.794855            -8.731898            -1.421318
| 22>   H                      -4.878456            -10.406002           -1.126017
| 23> *
| 24>
| 25> #Run DFT-D3 single point of the molecule with dimer basis set
| 26> $new_job
| 27> %base "9-34_DFT_A"
| 28> ! wB97X-D3 def2-TZVP TIGHTSCF CHELPG PMODEL
| 29>
| 30> %scf
| 31> MaxIter 1000
| 32> end
| 33>
| 34> * xyz 0 1
| 35>   C                      -2.236262            -7.219065            -3.038028
| 36>   O                      -2.089203            -8.488530            -3.702297
| 37>   H                      -2.620605            -8.479153            -4.503310
| 38>   H                      -1.906942            -6.405743            -3.624474
| 39>   H                      -3.225869            -6.961767            -2.730361
| 40>   H                      -1.644495            -7.133655            -2.155844
| 41>   C                    : -4.903874            -9.442278            -0.677737
| 42>   O                    : -3.989815            -9.223129            0.357628
| 43>   H                    : -4.262222            -9.680427            1.180958
| 44>   H                    : -5.967884            -9.465559            -0.415941
| 45>   H                    : -4.794855            -8.731898            -1.421318
| 46>   H                    : -4.878456            -10.406002           -1.126017
| 47> *
| 48>
| 49> #Run DFT-D3 single point of the particle with dimer basis set
| 50> $new_job
| 51> %base "9-34_DFT_B"
| 52> ! wB97X-D3 def2-TZVP TIGHTSCF CHELPG PMODEL
| 53>
| 54> %scf
| 55> MaxIter 1000
| 56> end
| 57>
| 58> * xyz 0 1
| 59>   C                    : -2.236262            -7.219065            -3.038028
| 60>   O                    : -2.089203            -8.488530            -3.702297
| 61>   H                    : -2.620605            -8.479153            -4.503310
| 62>   H                    : -1.906942            -6.405743            -3.624474
| 63>   H                    : -3.225869            -6.961767            -2.730361
| 64>   H                    : -1.644495            -7.133655            -2.155844
| 65>   C                      -4.903874            -9.442278            -0.677737
| 66>   O                      -3.989815            -9.223129            0.357628
| 67>   H                      -4.262222            -9.680427            1.180958
| 68>   H                      -5.967884            -9.465559            -0.415941
| 69>   H                      -4.794855            -8.731898            -1.421318
| 70>   H                      -4.878456            -10.406002           -1.126017
| 71> *
| 72>
| 73>                          ****END OF INPUT****
 Total Charge           Charge          ....    0
 Multiplicity           Mult            ....    1
 Number of Electrons    NEL             ....   36
Dispersion correction           -0.001387186
FINAL SINGLE POINT ENERGY      -231.461866496040
Dispersion correction           -0.000258077
FINAL SINGLE POINT ENERGY      -115.732315252097

CARTESIAN COORDINATES (ANGSTROEM)
---------------------------------
  C     -2.236262   -7.219065   -3.038028
  O     -2.089203   -8.488530   -3.702297
  H     -2.620605   -8.479153   -4.503310
  H     -1.906942   -6.405743   -3.624474
  H     -3.225869   -6.961767   -2.730361
  H     -1.644495   -7.133655   -2.155844
  C     -4.903874   -9.442278   -0.677737
  O     -3.989815   -9.223129    0.357628
  H     -4.262222   -9.680427    1.180958
  H     -5.967884   -9.465559   -0.415941
  H     -4.794855   -8.731898   -1.421318
  H     -4.878456  -10.406002   -1.126017

 Multiplicity           Mult            ....    1
 Number of Electrons    NEL             ....   18
 Basis Dimension        Dim             ....  172

ORBITAL ENERGIES
----------------

  NO   OCC          E(Eh)            E(eV)
   0   2.0000     -19.234423      -523.3953
   1   2.0000     -10.301613      -280.3211
   2   2.0000      -1.135982       -30.9116
   3   2.0000      -0.805667       -21.9233
   4   2.0000      -0.622442       -16.9375
   5   2.0000      -0.540626       -14.7112
   6   2.0000      -0.525925       -14.3111
   7   2.0000      -0.437546       -11.9062
   8   2.0000      -0.370659       -10.0861
   9   0.0000       0.090508         2.4628
  10   0.0000       0.116165         3.1610
  11   0.0000       0.152631         4.1533
  12   0.0000       0.170748         4.6463
  13   0.0000       0.192158         5.2289

MULLIKEN ATOMIC CHARGES
-----------------------
   0 C :    0.001040
   1 O :   -0.000112
   2 H :   -0.000064
   3 H :    0.000095
   4 H :    0.000093
   5 H :   -0.000533
   6 C :   -0.165270
   7 O :   -0.478323
   8 H :    0.319664
   9 H :    0.098555
  10 H :    0.126569
  11 H :    0.098287
Sum of atomic charges:   -0.0000000

LOEWDIN ATOMIC CHARGES
----------------------
   0 C :   -0.001323
   1 O :   -0.000057
   2 H :   -0.000040
   3 H :   -0.000005
   4 H :   -0.001289
   5 H :   -0.000155
   6 C :   -0.394080
   7 O :   -0.067657
   8 H :    0.183081
   9 H :    0.096847
  10 H :    0.095428
  11 H :    0.089251

  Mayer bond orders larger than 0.1
B(  6-C ,  7-O ) :   1.0105 B(  6-C ,  9-H ) :   0.9791 B(  6-C , 10-H ) :   0.9757
B(  6-C , 11-H ) :   0.9760 B(  7-O ,  8-H ) :   0.8918

Dispersion correction           -0.000255442
FINAL SINGLE POINT ENERGY      -115.729022564057

DIPOLE MOMENT
-------------
                                X             Y             Z
Electronic contribution:      1.39560       0.44779       1.29080
Nuclear contribution   :     -1.94197      -0.83095      -1.17122
                        -----------------------------------------
Total Dipole Moment    :     -0.54637      -0.38316       0.11958
                        -----------------------------------------
Magnitude (a.u.)       :      0.67796
Magnitude (Debye)      :      1.72325

Rotational constants in cm-1:     4.696232     0.836950     0.798641
Rotational constants in MHz : 140789.488047 25091.144375 23942.669767

                             ****ORCA TERMINATED NORMALLY****
TOTAL RUN TIME: 0 days 0 hours 0 minutes 43 seconds 27 msec
