                         Program Version 4.1.2  - RELEASE  -
|  1> #Run DFT-D3 single point of the dimer
|  2> ! wB97X-D3 def2-TZVP TIGHTSCF CHELPG PMODEL PAL8
|  3>
|  4> %base "2-40_DFT_AB"
|  5>
|  6> %scf
|  7> MaxIter 1000
|  8> end
|  9>
| 10> * xyz 0 1
| 11>   C                      -10.786374           -2.434926            6.102013
| 12>   O                      -9.534967            -2.920032            6.721126
| 13>   H                      -9.546065            -3.876163            6.859019
| 14>   H                      -10.700096           -1.362841            6.063289
| 15>   H                      -10.879818           -2.671802            5.082183
| 16>   H                      -11.722517           -2.729585            6.503359
| 17>   C                      -9.194448            -7.165680            8.606012
| 18>   O                      -9.483807            -8.443194            7.922237
| 19>   H                      -8.780202            -9.018449            8.087057
| 20>   H                      -8.510834            -6.560886            7.980636
| 21>   H                      -10.076085           -6.566288            8.744051
| 22>   H                      -8.775180            -7.380842            9.649389
| 23> *
| 24>
| 25> #Run DFT-D3 single point of the molecule with dimer basis set
| 26> $new_job
| 27> %base "2-40_DFT_A"
| 28> ! wB97X-D3 def2-TZVP TIGHTSCF CHELPG PMODEL
| 29>
| 30> %scf
| 31> MaxIter 1000
| 32> end
| 33>
| 34> * xyz 0 1
| 35>   C                      -10.786374           -2.434926            6.102013
| 36>   O                      -9.534967            -2.920032            6.721126
| 37>   H                      -9.546065            -3.876163            6.859019
| 38>   H                      -10.700096           -1.362841            6.063289
| 39>   H                      -10.879818           -2.671802            5.082183
| 40>   H                      -11.722517           -2.729585            6.503359
| 41>   C                    : -9.194448            -7.165680            8.606012
| 42>   O                    : -9.483807            -8.443194            7.922237
| 43>   H                    : -8.780202            -9.018449            8.087057
| 44>   H                    : -8.510834            -6.560886            7.980636
| 45>   H                    : -10.076085           -6.566288            8.744051
| 46>   H                    : -8.775180            -7.380842            9.649389
| 47> *
| 48>
| 49> #Run DFT-D3 single point of the particle with dimer basis set
| 50> $new_job
| 51> %base "2-40_DFT_B"
| 52> ! wB97X-D3 def2-TZVP TIGHTSCF CHELPG PMODEL
| 53>
| 54> %scf
| 55> MaxIter 1000
| 56> end
| 57>
| 58> * xyz 0 1
| 59>   C                    : -10.786374           -2.434926            6.102013
| 60>   O                    : -9.534967            -2.920032            6.721126
| 61>   H                    : -9.546065            -3.876163            6.859019
| 62>   H                    : -10.700096           -1.362841            6.063289
| 63>   H                    : -10.879818           -2.671802            5.082183
| 64>   H                    : -11.722517           -2.729585            6.503359
| 65>   C                      -9.194448            -7.165680            8.606012
| 66>   O                      -9.483807            -8.443194            7.922237
| 67>   H                      -8.780202            -9.018449            8.087057
| 68>   H                      -8.510834            -6.560886            7.980636
| 69>   H                      -10.076085           -6.566288            8.744051
| 70>   H                      -8.775180            -7.380842            9.649389
| 71> *
| 72>
| 73>                          ****END OF INPUT****
 Total Charge           Charge          ....    0
 Multiplicity           Mult            ....    1
 Number of Electrons    NEL             ....   36
Dispersion correction           -0.000963946
FINAL SINGLE POINT ENERGY      -231.458774345431
Dispersion correction           -0.000293167
FINAL SINGLE POINT ENERGY      -115.727820812701

CARTESIAN COORDINATES (ANGSTROEM)
---------------------------------
  C    -10.786374   -2.434926    6.102013
  O     -9.534967   -2.920032    6.721126
  H     -9.546065   -3.876163    6.859019
  H    -10.700096   -1.362841    6.063289
  H    -10.879818   -2.671802    5.082183
  H    -11.722517   -2.729585    6.503359
  C     -9.194448   -7.165680    8.606012
  O     -9.483807   -8.443194    7.922237
  H     -8.780202   -9.018449    8.087057
  H     -8.510834   -6.560886    7.980636
  H    -10.076085   -6.566288    8.744051
  H     -8.775180   -7.380842    9.649389

 Multiplicity           Mult            ....    1
 Number of Electrons    NEL             ....   18
 Basis Dimension        Dim             ....  172

ORBITAL ENERGIES
----------------

  NO   OCC          E(Eh)            E(eV)
   0   2.0000     -19.225498      -523.1524
   1   2.0000     -10.325029      -280.9583
   2   2.0000      -1.125129       -30.6163
   3   2.0000      -0.798393       -21.7254
   4   2.0000      -0.597696       -16.2641
   5   2.0000      -0.536927       -14.6105
   6   2.0000      -0.526177       -14.3180
   7   2.0000      -0.433487       -11.7958
   8   2.0000      -0.376618       -10.2483
   9   0.0000       0.085222         2.3190
  10   0.0000       0.117440         3.1957
  11   0.0000       0.138533         3.7697
  12   0.0000       0.177548         4.8313
  13   0.0000       0.191595         5.2136

MULLIKEN ATOMIC CHARGES
-----------------------
   0 C :    0.000033
   1 O :    0.000018
   2 H :   -0.000433
   3 H :   -0.000001
   4 H :   -0.000005
   5 H :   -0.000011
   6 C :   -0.178506
   7 O :   -0.477717
   8 H :    0.307204
   9 H :    0.111861
  10 H :    0.128929
  11 H :    0.108627
Sum of atomic charges:   -0.0000000

LOEWDIN ATOMIC CHARGES
----------------------
   0 C :   -0.000014
   1 O :   -0.000029
   2 H :   -0.000825
   3 H :   -0.000000
   4 H :   -0.000000
   5 H :   -0.000003
   6 C :   -0.341200
   7 O :   -0.105046
   8 H :    0.138142
   9 H :    0.099170
  10 H :    0.102392
  11 H :    0.107414

  Mayer bond orders larger than 0.1
B(  6-C ,  7-O ) :   0.9898 B(  6-C ,  9-H ) :   0.9723 B(  6-C , 10-H ) :   0.9718
B(  6-C , 11-H ) :   0.9754 B(  7-O ,  8-H ) :   0.9100

Dispersion correction           -0.000270809
FINAL SINGLE POINT ENERGY      -115.730454313003

DIPOLE MOMENT
-------------
                                X             Y             Z
Electronic contribution:     -0.50548      -1.48661      -0.90353
Nuclear contribution   :      1.06094       1.67634       1.30658
                        -----------------------------------------
Total Dipole Moment    :      0.55545       0.18973       0.40305
                        -----------------------------------------
Magnitude (a.u.)       :      0.71202
Magnitude (Debye)      :      1.80981

Rotational constants in cm-1:     4.237934     0.769990     0.749765
Rotational constants in MHz : 127050.066991 23083.706625 22477.391688

                             ****ORCA TERMINATED NORMALLY****
TOTAL RUN TIME: 0 days 0 hours 5 minutes 24 seconds 749 msec
