                         Program Version 4.1.2  - RELEASE  -
|  1> #Run DFT-D3 single point of the dimer
|  2> ! wB97X-D3 def2-TZVP TIGHTSCF CHELPG PMODEL PAL8
|  3>
|  4> %base "6-125_DFT_AB"
|  5>
|  6> %scf
|  7> MaxIter 1000
|  8> end
|  9>
| 10> * xyz 0 1
| 11>   C                      -1.936839            -7.101095            -2.876770
| 12>   O                      -3.061484            -6.946725            -2.043370
| 13>   H                      -3.335684            -6.055807            -2.122500
| 14>   H                      -1.004453            -6.991422            -2.356135
| 15>   H                      -1.884352            -8.095574            -3.432958
| 16>   H                      -1.945391            -6.367581            -3.715468
| 17>   C                      -0.256012            -9.851537            -1.349977
| 18>   O                      -0.282630            -9.037021            -0.175052
| 19>   H                      -0.437417            -8.170426            -0.545344
| 20>   H                      -1.283493            -10.104946           -1.656995
| 21>   H                      0.322564             -9.305297            -2.135499
| 22>   H                      0.330582             -10.797342           -1.153834
| 23> *
| 24>
| 25> #Run DFT-D3 single point of the molecule with dimer basis set
| 26> $new_job
| 27> %base "6-125_DFT_A"
| 28> ! wB97X-D3 def2-TZVP TIGHTSCF CHELPG PMODEL
| 29>
| 30> %scf
| 31> MaxIter 1000
| 32> end
| 33>
| 34> * xyz 0 1
| 35>   C                      -1.936839            -7.101095            -2.876770
| 36>   O                      -3.061484            -6.946725            -2.043370
| 37>   H                      -3.335684            -6.055807            -2.122500
| 38>   H                      -1.004453            -6.991422            -2.356135
| 39>   H                      -1.884352            -8.095574            -3.432958
| 40>   H                      -1.945391            -6.367581            -3.715468
| 41>   C                    : -0.256012            -9.851537            -1.349977
| 42>   O                    : -0.282630            -9.037021            -0.175052
| 43>   H                    : -0.437417            -8.170426            -0.545344
| 44>   H                    : -1.283493            -10.104946           -1.656995
| 45>   H                    : 0.322564             -9.305297            -2.135499
| 46>   H                    : 0.330582             -10.797342           -1.153834
| 47> *
| 48>
| 49> #Run DFT-D3 single point of the particle with dimer basis set
| 50> $new_job
| 51> %base "6-125_DFT_B"
| 52> ! wB97X-D3 def2-TZVP TIGHTSCF CHELPG PMODEL
| 53>
| 54> %scf
| 55> MaxIter 1000
| 56> end
| 57>
| 58> * xyz 0 1
| 59>   C                    : -1.936839            -7.101095            -2.876770
| 60>   O                    : -3.061484            -6.946725            -2.043370
| 61>   H                    : -3.335684            -6.055807            -2.122500
| 62>   H                    : -1.004453            -6.991422            -2.356135
| 63>   H                    : -1.884352            -8.095574            -3.432958
| 64>   H                    : -1.945391            -6.367581            -3.715468
| 65>   C                      -0.256012            -9.851537            -1.349977
| 66>   O                      -0.282630            -9.037021            -0.175052
| 67>   H                      -0.437417            -8.170426            -0.545344
| 68>   H                      -1.283493            -10.104946           -1.656995
| 69>   H                      0.322564             -9.305297            -2.135499
| 70>   H                      0.330582             -10.797342           -1.153834
| 71> *
| 72>
| 73>                          ****END OF INPUT****
 Total Charge           Charge          ....    0
 Multiplicity           Mult            ....    1
 Number of Electrons    NEL             ....   36
Dispersion correction           -0.002114911
FINAL SINGLE POINT ENERGY      -231.466933246804
Dispersion correction           -0.000252825
FINAL SINGLE POINT ENERGY      -115.732430095789

CARTESIAN COORDINATES (ANGSTROEM)
---------------------------------
  C     -1.936839   -7.101095   -2.876770
  O     -3.061484   -6.946725   -2.043370
  H     -3.335684   -6.055807   -2.122500
  H     -1.004453   -6.991422   -2.356135
  H     -1.884352   -8.095574   -3.432958
  H     -1.945391   -6.367581   -3.715468
  C     -0.256012   -9.851537   -1.349977
  O     -0.282630   -9.037021   -0.175052
  H     -0.437417   -8.170426   -0.545344
  H     -1.283493  -10.104946   -1.656995
  H      0.322564   -9.305297   -2.135499
  H      0.330582  -10.797342   -1.153834

 Multiplicity           Mult            ....    1
 Number of Electrons    NEL             ....   18
 Basis Dimension        Dim             ....  172

ORBITAL ENERGIES
----------------

  NO   OCC          E(Eh)            E(eV)
   0   2.0000     -19.230574      -523.2905
   1   2.0000     -10.322091      -280.8784
   2   2.0000      -1.136880       -30.9361
   3   2.0000      -0.787252       -21.4222
   4   2.0000      -0.603655       -16.4263
   5   2.0000      -0.547125       -14.8880
   6   2.0000      -0.521227       -14.1833
   7   2.0000      -0.434680       -11.8282
   8   2.0000      -0.375864       -10.2278
   9   0.0000       0.072255         1.9662
  10   0.0000       0.131464         3.5773
  11   0.0000       0.145182         3.9506
  12   0.0000       0.164002         4.4627
  13   0.0000       0.187732         5.1085

MULLIKEN ATOMIC CHARGES
-----------------------
   0 C :    0.001720
   1 O :    0.000292
   2 H :    0.000025
   3 H :   -0.003273
   4 H :   -0.002836
   5 H :    0.000043
   6 C :   -0.182977
   7 O :   -0.461591
   8 H :    0.312368
   9 H :    0.105321
  10 H :    0.106248
  11 H :    0.124660
Sum of atomic charges:   -0.0000000

LOEWDIN ATOMIC CHARGES
----------------------
   0 C :   -0.007866
   1 O :   -0.000259
   2 H :   -0.000019
   3 H :   -0.004217
   4 H :   -0.002599
   5 H :   -0.000048
   6 C :   -0.379761
   7 O :   -0.084598
   8 H :    0.166078
   9 H :    0.097488
  10 H :    0.102052
  11 H :    0.113748

  Mayer bond orders larger than 0.1
B(  6-C ,  7-O ) :   0.9921 B(  6-C ,  9-H ) :   0.9736 B(  6-C , 10-H ) :   0.9833
B(  6-C , 11-H ) :   0.9710 B(  7-O ,  8-H ) :   0.9101

Dispersion correction           -0.000231830
FINAL SINGLE POINT ENERGY      -115.733582480824

DIPOLE MOMENT
-------------
                                X             Y             Z
Electronic contribution:     -0.08300       0.89041       1.58580
Nuclear contribution   :      0.01385      -0.67747      -2.26806
                        -----------------------------------------
Total Dipole Moment    :     -0.06915       0.21294      -0.68226
                        -----------------------------------------
Magnitude (a.u.)       :      0.71806
Magnitude (Debye)      :      1.82516

Rotational constants in cm-1:     4.053606     0.821956     0.796620
Rotational constants in MHz : 121524.036637 24641.627311 23882.065465

                             ****ORCA TERMINATED NORMALLY****
TOTAL RUN TIME: 0 days 0 hours 1 minutes 4 seconds 742 msec
