                         Program Version 4.1.2  - RELEASE  -
|  1> #Run DFT-D3 single point of the dimer
|  2> ! wB97X-D3 def2-TZVP TIGHTSCF CHELPG PMODEL PAL8
|  3>
|  4> %base "14-134_DFT_AB"
|  5>
|  6> %scf
|  7> MaxIter 1000
|  8> end
|  9>
| 10> * xyz 0 1
| 11>   C                      6.240257             -3.486396            0.328244
| 12>   O                      7.407682             -3.671008            -0.383972
| 13>   H                      7.952128             -4.335552            -0.003175
| 14>   H                      6.224370             -4.059562            1.284200
| 15>   H                      6.097100             -2.413471            0.559097
| 16>   H                      5.374843             -3.919506            -0.240133
| 17>   C                      7.548775             -1.697386            -3.925522
| 18>   O                      7.061342             -1.520387            -2.631500
| 19>   H                      7.008686             -2.286555            -2.178237
| 20>   H                      7.399783             -2.658482            -4.371133
| 21>   H                      7.098118             -0.881284            -4.541368
| 22>   H                      8.643408             -1.609599            -3.899933
| 23> *
| 24>
| 25> #Run DFT-D3 single point of the molecule with dimer basis set
| 26> $new_job
| 27> %base "14-134_DFT_A"
| 28> ! wB97X-D3 def2-TZVP TIGHTSCF CHELPG PMODEL
| 29>
| 30> %scf
| 31> MaxIter 1000
| 32> end
| 33>
| 34> * xyz 0 1
| 35>   C                      6.240257             -3.486396            0.328244
| 36>   O                      7.407682             -3.671008            -0.383972
| 37>   H                      7.952128             -4.335552            -0.003175
| 38>   H                      6.224370             -4.059562            1.284200
| 39>   H                      6.097100             -2.413471            0.559097
| 40>   H                      5.374843             -3.919506            -0.240133
| 41>   C                    : 7.548775             -1.697386            -3.925522
| 42>   O                    : 7.061342             -1.520387            -2.631500
| 43>   H                    : 7.008686             -2.286555            -2.178237
| 44>   H                    : 7.399783             -2.658482            -4.371133
| 45>   H                    : 7.098118             -0.881284            -4.541368
| 46>   H                    : 8.643408             -1.609599            -3.899933
| 47> *
| 48>
| 49> #Run DFT-D3 single point of the particle with dimer basis set
| 50> $new_job
| 51> %base "14-134_DFT_B"
| 52> ! wB97X-D3 def2-TZVP TIGHTSCF CHELPG PMODEL
| 53>
| 54> %scf
| 55> MaxIter 1000
| 56> end
| 57>
| 58> * xyz 0 1
| 59>   C                    : 6.240257             -3.486396            0.328244
| 60>   O                    : 7.407682             -3.671008            -0.383972
| 61>   H                    : 7.952128             -4.335552            -0.003175
| 62>   H                    : 6.224370             -4.059562            1.284200
| 63>   H                    : 6.097100             -2.413471            0.559097
| 64>   H                    : 5.374843             -3.919506            -0.240133
| 65>   C                      7.548775             -1.697386            -3.925522
| 66>   O                      7.061342             -1.520387            -2.631500
| 67>   H                      7.008686             -2.286555            -2.178237
| 68>   H                      7.399783             -2.658482            -4.371133
| 69>   H                      7.098118             -0.881284            -4.541368
| 70>   H                      8.643408             -1.609599            -3.899933
| 71> *
| 72>
| 73>                          ****END OF INPUT****
 Total Charge           Charge          ....    0
 Multiplicity           Mult            ....    1
 Number of Electrons    NEL             ....   36
Dispersion correction           -0.001539427
FINAL SINGLE POINT ENERGY      -231.467684196211
Dispersion correction           -0.000246373
FINAL SINGLE POINT ENERGY      -115.733580781363

CARTESIAN COORDINATES (ANGSTROEM)
---------------------------------
  C      6.240257   -3.486396    0.328244
  O      7.407682   -3.671008   -0.383972
  H      7.952128   -4.335552   -0.003175
  H      6.224370   -4.059562    1.284200
  H      6.097100   -2.413471    0.559097
  H      5.374843   -3.919506   -0.240133
  C      7.548775   -1.697386   -3.925522
  O      7.061342   -1.520387   -2.631500
  H      7.008686   -2.286555   -2.178237
  H      7.399783   -2.658482   -4.371133
  H      7.098118   -0.881284   -4.541368
  H      8.643408   -1.609599   -3.899933

 Multiplicity           Mult            ....    1
 Number of Electrons    NEL             ....   18
 Basis Dimension        Dim             ....  172

ORBITAL ENERGIES
----------------

  NO   OCC          E(Eh)            E(eV)
   0   2.0000     -19.221748      -523.0504
   1   2.0000     -10.312307      -280.6121
   2   2.0000      -1.153840       -31.3976
   3   2.0000      -0.804021       -21.8785
   4   2.0000      -0.629416       -17.1273
   5   2.0000      -0.540431       -14.7059
   6   2.0000      -0.526120       -14.3164
   7   2.0000      -0.436693       -11.8830
   8   2.0000      -0.371246       -10.1021
   9   0.0000       0.075588         2.0569
  10   0.0000       0.132363         3.6018
  11   0.0000       0.161043         4.3822
  12   0.0000       0.163488         4.4487
  13   0.0000       0.191230         5.2036

MULLIKEN ATOMIC CHARGES
-----------------------
   0 C :   -0.000548
   1 O :   -0.001228
   2 H :   -0.000102
   3 H :    0.000065
   4 H :   -0.000442
   5 H :   -0.000353
   6 C :   -0.156684
   7 O :   -0.456287
   8 H :    0.293095
   9 H :    0.107412
  10 H :    0.117499
  11 H :    0.097574
Sum of atomic charges:   -0.0000000

LOEWDIN ATOMIC CHARGES
----------------------
   0 C :   -0.003903
   1 O :   -0.007133
   2 H :   -0.000338
   3 H :   -0.000045
   4 H :   -0.000477
   5 H :   -0.000331
   6 C :   -0.389515
   7 O :   -0.020252
   8 H :    0.121544
   9 H :    0.089830
  10 H :    0.114619
  11 H :    0.096000

  Mayer bond orders larger than 0.1
B(  6-C ,  7-O ) :   0.9935 B(  6-C ,  9-H ) :   0.9764 B(  6-C , 10-H ) :   0.9765
B(  6-C , 11-H ) :   0.9775 B(  7-O ,  8-H ) :   0.9217

Dispersion correction           -0.000236910
FINAL SINGLE POINT ENERGY      -115.728936790274

DIPOLE MOMENT
-------------
                                X             Y             Z
Electronic contribution:     -0.72299       0.24935       1.62244
Nuclear contribution   :      0.87276      -0.86015      -1.83201
                        -----------------------------------------
Total Dipole Moment    :      0.14977      -0.61080      -0.20957
                        -----------------------------------------
Magnitude (a.u.)       :      0.66289
Magnitude (Debye)      :      1.68494

Rotational constants in cm-1:     4.434955     0.852909     0.820621
Rotational constants in MHz : 132956.600042 25569.576907 24601.592450

                             ****ORCA TERMINATED NORMALLY****
TOTAL RUN TIME: 0 days 0 hours 1 minutes 10 seconds 710 msec
