                         Program Version 4.1.2  - RELEASE  -
|  1> #Run DFT-D3 single point of the dimer
|  2> ! wB97X-D3 def2-TZVP TIGHTSCF CHELPG PMODEL PAL8
|  3>
|  4> %base "2-176_DFT_AB"
|  5>
|  6> %scf
|  7> MaxIter 1000
|  8> end
|  9>
| 10> * xyz 0 1
| 11>   C                      -4.070602            0.009870             -0.947759
| 12>   O                      -3.177493            0.651207             -1.839378
| 13>   H                      -3.644926            1.332124             -2.268377
| 14>   H                      -3.956544            -1.097930            -0.905748
| 15>   H                      -3.984569            0.469919             0.004968
| 16>   H                      -5.138028            0.195817             -1.267886
| 17>   C                      -2.197106            2.999726             0.244676
| 18>   O                      -2.077694            3.934402             -0.773243
| 19>   H                      -1.174624            4.272420             -0.698068
| 20>   H                      -2.433682            3.459096             1.167180
| 21>   H                      -2.846017            2.155096             0.044249
| 22>   H                      -1.193848            2.548132             0.440142
| 23> *
| 24>
| 25> #Run DFT-D3 single point of the molecule with dimer basis set
| 26> $new_job
| 27> %base "2-176_DFT_A"
| 28> ! wB97X-D3 def2-TZVP TIGHTSCF CHELPG PMODEL
| 29>
| 30> %scf
| 31> MaxIter 1000
| 32> end
| 33>
| 34> * xyz 0 1
| 35>   C                      -4.070602            0.009870             -0.947759
| 36>   O                      -3.177493            0.651207             -1.839378
| 37>   H                      -3.644926            1.332124             -2.268377
| 38>   H                      -3.956544            -1.097930            -0.905748
| 39>   H                      -3.984569            0.469919             0.004968
| 40>   H                      -5.138028            0.195817             -1.267886
| 41>   C                    : -2.197106            2.999726             0.244676
| 42>   O                    : -2.077694            3.934402             -0.773243
| 43>   H                    : -1.174624            4.272420             -0.698068
| 44>   H                    : -2.433682            3.459096             1.167180
| 45>   H                    : -2.846017            2.155096             0.044249
| 46>   H                    : -1.193848            2.548132             0.440142
| 47> *
| 48>
| 49> #Run DFT-D3 single point of the particle with dimer basis set
| 50> $new_job
| 51> %base "2-176_DFT_B"
| 52> ! wB97X-D3 def2-TZVP TIGHTSCF CHELPG PMODEL
| 53>
| 54> %scf
| 55> MaxIter 1000
| 56> end
| 57>
| 58> * xyz 0 1
| 59>   C                    : -4.070602            0.009870             -0.947759
| 60>   O                    : -3.177493            0.651207             -1.839378
| 61>   H                    : -3.644926            1.332124             -2.268377
| 62>   H                    : -3.956544            -1.097930            -0.905748
| 63>   H                    : -3.984569            0.469919             0.004968
| 64>   H                    : -5.138028            0.195817             -1.267886
| 65>   C                      -2.197106            2.999726             0.244676
| 66>   O                      -2.077694            3.934402             -0.773243
| 67>   H                      -1.174624            4.272420             -0.698068
| 68>   H                      -2.433682            3.459096             1.167180
| 69>   H                      -2.846017            2.155096             0.044249
| 70>   H                      -1.193848            2.548132             0.440142
| 71> *
| 72>
| 73>                          ****END OF INPUT****
 Total Charge           Charge          ....    0
 Multiplicity           Mult            ....    1
 Number of Electrons    NEL             ....   36
Dispersion correction           -0.001827658
FINAL SINGLE POINT ENERGY      -231.464684472550
Dispersion correction           -0.000237519
FINAL SINGLE POINT ENERGY      -115.732442189624

CARTESIAN COORDINATES (ANGSTROEM)
---------------------------------
  C     -4.070602    0.009870   -0.947759
  O     -3.177493    0.651207   -1.839378
  H     -3.644926    1.332124   -2.268377
  H     -3.956544   -1.097930   -0.905748
  H     -3.984569    0.469919    0.004968
  H     -5.138028    0.195817   -1.267886
  C     -2.197106    2.999726    0.244676
  O     -2.077694    3.934402   -0.773243
  H     -1.174624    4.272420   -0.698068
  H     -2.433682    3.459096    1.167180
  H     -2.846017    2.155096    0.044249
  H     -1.193848    2.548132    0.440142

 Multiplicity           Mult            ....    1
 Number of Electrons    NEL             ....   18
 Basis Dimension        Dim             ....  172

ORBITAL ENERGIES
----------------

  NO   OCC          E(Eh)            E(eV)
   0   2.0000     -19.231468      -523.3149
   1   2.0000     -10.308101      -280.4977
   2   2.0000      -1.145928       -31.1823
   3   2.0000      -0.794686       -21.6245
   4   2.0000      -0.616811       -16.7843
   5   2.0000      -0.549844       -14.9620
   6   2.0000      -0.531853       -14.4725
   7   2.0000      -0.430445       -11.7130
   8   2.0000      -0.372708       -10.1419
   9   0.0000       0.090459         2.4615
  10   0.0000       0.112568         3.0631
  11   0.0000       0.159229         4.3328
  12   0.0000       0.175264         4.7692
  13   0.0000       0.195754         5.3267

MULLIKEN ATOMIC CHARGES
-----------------------
   0 C :   -0.000834
   1 O :    0.001918
   2 H :   -0.000081
   3 H :    0.000175
   4 H :    0.001987
   5 H :   -0.000344
   6 C :   -0.168998
   7 O :   -0.461590
   8 H :    0.320609
   9 H :    0.104828
  10 H :    0.111319
  11 H :    0.091011
Sum of atomic charges:   -0.0000000

LOEWDIN ATOMIC CHARGES
----------------------
   0 C :   -0.010241
   1 O :   -0.004416
   2 H :   -0.001438
   3 H :   -0.000086
   4 H :   -0.007602
   5 H :   -0.000148
   6 C :   -0.399381
   7 O :   -0.058252
   8 H :    0.180260
   9 H :    0.087132
  10 H :    0.114070
  11 H :    0.100101

  Mayer bond orders larger than 0.1
B(  6-C ,  7-O ) :   1.0166 B(  6-C ,  9-H ) :   0.9808 B(  6-C , 10-H ) :   0.9706
B(  6-C , 11-H ) :   0.9943 B(  7-O ,  8-H ) :   0.8965

Dispersion correction           -0.000217076
FINAL SINGLE POINT ENERGY      -115.731288809531

DIPOLE MOMENT
-------------
                                X             Y             Z
Electronic contribution:     -0.17586       1.24212      -1.44528
Nuclear contribution   :      0.71175      -1.38721       1.87916
                        -----------------------------------------
Total Dipole Moment    :      0.53589      -0.14510       0.43388
                        -----------------------------------------
Magnitude (a.u.)       :      0.70462
Magnitude (Debye)      :      1.79099

Rotational constants in cm-1:     4.369207     0.860383     0.824851
Rotational constants in MHz : 130985.539299 25793.638173 24728.416844

                             ****ORCA TERMINATED NORMALLY****
TOTAL RUN TIME: 0 days 0 hours 6 minutes 23 seconds 440 msec
