                         Program Version 4.1.2  - RELEASE  -
|  1> #Run DFT-D3 single point of the dimer
|  2> ! wB97X-D3 def2-TZVP TIGHTSCF  CHELPG PAL8
|  3>
|  4> %base "147_charges"
|  5>
|  6> %scf
|  7> MaxIter 1000
|  8> end
|  9> %output
| 10>   Print[ P_Mayer ] 1
| 11>   Print[ P_NatPop ] 1
| 12>   Print[ P_Hirshfeld ] 1
| 13>   Print[ P_Mulliken ] 1
| 14>   Print [ P_Loewdin ] 1
| 15> end
| 16>
| 17> * xyz 0 1
| 18>   C                      10.564742            -10.912262           6.272384
| 19>   O                      9.557693             -11.620470           6.948213
| 20>   H                      9.963255             -11.744914           7.822806
| 21>   H                      11.450827            -10.696361           6.971431
| 22>   H                      10.987180            -11.475277           5.407344
| 23>   H                      10.217103            -9.957112            5.859336
| 24> *
| 25>
| 26>                          ****END OF INPUT****

CARTESIAN COORDINATES (ANGSTROEM)
---------------------------------
  C     10.564742  -10.912262    6.272384
  O      9.557693  -11.620470    6.948213
  H      9.963255  -11.744914    7.822806
  H     11.450827  -10.696361    6.971431
  H     10.987180  -11.475277    5.407344
  H     10.217103   -9.957112    5.859336

 Total Charge           Charge          ....    0
 Multiplicity           Mult            ....    1
 Number of Electrons    NEL             ....   18
 Basis Dimension        Dim             ....   86

ORBITAL ENERGIES
----------------

  NO   OCC          E(Eh)            E(eV)
   0   2.0000     -19.235683      -523.4295
   1   2.0000     -10.321420      -280.8601
   2   2.0000      -1.143289       -31.1105
   3   2.0000      -0.786041       -21.3893
   4   2.0000      -0.610903       -16.6235
   5   2.0000      -0.537358       -14.6222
   6   2.0000      -0.530535       -14.4366
   7   2.0000      -0.435363       -11.8468
   8   2.0000      -0.373944       -10.1755
   9   0.0000       0.107266         2.9188
  10   0.0000       0.153394         4.1741
  11   0.0000       0.193144         5.2557
  12   0.0000       0.208328         5.6689
  13   0.0000       0.236073         6.4239

MULLIKEN ATOMIC CHARGES
-----------------------
   0 C :   -0.173555
   1 O :   -0.454978
   2 H :    0.322134
   3 H :    0.093784
   4 H :    0.104526
   5 H :    0.108089
Sum of atomic charges:    0.0000000

LOEWDIN ATOMIC CHARGES
----------------------
   0 C :   -0.408770
   1 O :   -0.075305
   2 H :    0.183443
   3 H :    0.103445
   4 H :    0.099790
   5 H :    0.097396

  Mayer bond orders larger than 0.1
B(  0-C ,  1-O ) :   1.0198 B(  0-C ,  3-H ) :   0.9901 B(  0-C ,  4-H ) :   0.9714
B(  0-C ,  5-H ) :   0.9731 B(  1-O ,  2-H ) :   0.8983

Dispersion correction           -0.000249850
FINAL SINGLE POINT ENERGY      -115.731345532597

DIPOLE MOMENT
-------------
                                X             Y             Z
Electronic contribution:     -1.55000      -0.95310       0.76963
Nuclear contribution   :      2.17411       1.13767      -0.46515
                        -----------------------------------------
Total Dipole Moment    :      0.62411       0.18458       0.30448
                        -----------------------------------------
Magnitude (a.u.)       :      0.71854
Magnitude (Debye)      :      1.82637

Rotational constants in cm-1:     4.118600     0.840256     0.801607
Rotational constants in MHz : 123472.527575 25190.228795 24031.573885

                             ****ORCA TERMINATED NORMALLY****
TOTAL RUN TIME: 0 days 0 hours 0 minutes 42 seconds 516 msec
