                         Program Version 4.1.2  - RELEASE  -
|  1> #Run DFT-D3 single point of the dimer
|  2> ! wB97X-D3 def2-TZVP TIGHTSCF CHELPG PMODEL PAL8
|  3>
|  4> %base "14-193_DFT_AB"
|  5>
|  6> %scf
|  7> MaxIter 1000
|  8> end
|  9>
| 10> * xyz 0 1
| 11>   C                      6.986506             2.047789             -2.200333
| 12>   O                      6.307595             0.991818             -1.559872
| 13>   H                      6.518807             0.152621             -1.956444
| 14>   H                      6.572234             2.347307             -3.163301
| 15>   H                      7.039332             2.945016             -1.502398
| 16>   H                      8.056236             1.852572             -2.339109
| 17>   C                      7.548775             -1.697386            -3.925522
| 18>   O                      7.061342             -1.520387            -2.631500
| 19>   H                      7.008686             -2.286555            -2.178237
| 20>   H                      7.399783             -2.658482            -4.371133
| 21>   H                      7.098118             -0.881284            -4.541368
| 22>   H                      8.643408             -1.609599            -3.899933
| 23> *
| 24>
| 25> #Run DFT-D3 single point of the molecule with dimer basis set
| 26> $new_job
| 27> %base "14-193_DFT_A"
| 28> ! wB97X-D3 def2-TZVP TIGHTSCF CHELPG PMODEL
| 29>
| 30> %scf
| 31> MaxIter 1000
| 32> end
| 33>
| 34> * xyz 0 1
| 35>   C                      6.986506             2.047789             -2.200333
| 36>   O                      6.307595             0.991818             -1.559872
| 37>   H                      6.518807             0.152621             -1.956444
| 38>   H                      6.572234             2.347307             -3.163301
| 39>   H                      7.039332             2.945016             -1.502398
| 40>   H                      8.056236             1.852572             -2.339109
| 41>   C                    : 7.548775             -1.697386            -3.925522
| 42>   O                    : 7.061342             -1.520387            -2.631500
| 43>   H                    : 7.008686             -2.286555            -2.178237
| 44>   H                    : 7.399783             -2.658482            -4.371133
| 45>   H                    : 7.098118             -0.881284            -4.541368
| 46>   H                    : 8.643408             -1.609599            -3.899933
| 47> *
| 48>
| 49> #Run DFT-D3 single point of the particle with dimer basis set
| 50> $new_job
| 51> %base "14-193_DFT_B"
| 52> ! wB97X-D3 def2-TZVP TIGHTSCF CHELPG PMODEL
| 53>
| 54> %scf
| 55> MaxIter 1000
| 56> end
| 57>
| 58> * xyz 0 1
| 59>   C                    : 6.986506             2.047789             -2.200333
| 60>   O                    : 6.307595             0.991818             -1.559872
| 61>   H                    : 6.518807             0.152621             -1.956444
| 62>   H                    : 6.572234             2.347307             -3.163301
| 63>   H                    : 7.039332             2.945016             -1.502398
| 64>   H                    : 8.056236             1.852572             -2.339109
| 65>   C                      7.548775             -1.697386            -3.925522
| 66>   O                      7.061342             -1.520387            -2.631500
| 67>   H                      7.008686             -2.286555            -2.178237
| 68>   H                      7.399783             -2.658482            -4.371133
| 69>   H                      7.098118             -0.881284            -4.541368
| 70>   H                      8.643408             -1.609599            -3.899933
| 71> *
| 72>
| 73>                          ****END OF INPUT****
 Total Charge           Charge          ....    0
 Multiplicity           Mult            ....    1
 Number of Electrons    NEL             ....   36
Dispersion correction           -0.001831995
FINAL SINGLE POINT ENERGY      -231.471723653457
Dispersion correction           -0.000263327
FINAL SINGLE POINT ENERGY      -115.734400299191

CARTESIAN COORDINATES (ANGSTROEM)
---------------------------------
  C      6.986506    2.047789   -2.200333
  O      6.307595    0.991818   -1.559872
  H      6.518807    0.152621   -1.956444
  H      6.572234    2.347307   -3.163301
  H      7.039332    2.945016   -1.502398
  H      8.056236    1.852572   -2.339109
  C      7.548775   -1.697386   -3.925522
  O      7.061342   -1.520387   -2.631500
  H      7.008686   -2.286555   -2.178237
  H      7.399783   -2.658482   -4.371133
  H      7.098118   -0.881284   -4.541368
  H      8.643408   -1.609599   -3.899933

 Multiplicity           Mult            ....    1
 Number of Electrons    NEL             ....   18
 Basis Dimension        Dim             ....  172

ORBITAL ENERGIES
----------------

  NO   OCC          E(Eh)            E(eV)
   0   2.0000     -19.222141      -523.0611
   1   2.0000     -10.312373      -280.6139
   2   2.0000      -1.154125       -31.4053
   3   2.0000      -0.804190       -21.8831
   4   2.0000      -0.629653       -17.1337
   5   2.0000      -0.540546       -14.7090
   6   2.0000      -0.526302       -14.3214
   7   2.0000      -0.436942       -11.8898
   8   2.0000      -0.371393       -10.1061
   9   0.0000       0.098048         2.6680
  10   0.0000       0.129631         3.5274
  11   0.0000       0.156754         4.2655
  12   0.0000       0.184999         5.0341
  13   0.0000       0.197791         5.3822

MULLIKEN ATOMIC CHARGES
-----------------------
   0 C :    0.001819
   1 O :    0.000402
   2 H :   -0.012032
   3 H :   -0.000345
   4 H :   -0.000039
   5 H :   -0.000795
   6 C :   -0.153861
   7 O :   -0.456906
   8 H :    0.295561
   9 H :    0.108898
  10 H :    0.119713
  11 H :    0.097585
Sum of atomic charges:   -0.0000000

LOEWDIN ATOMIC CHARGES
----------------------
   0 C :   -0.001948
   1 O :   -0.006165
   2 H :   -0.048178
   3 H :   -0.000092
   4 H :   -0.000018
   5 H :   -0.000323
   6 C :   -0.387066
   7 O :    0.019843
   8 H :    0.120564
   9 H :    0.091313
  10 H :    0.115478
  11 H :    0.096592

  Mayer bond orders larger than 0.1
B(  6-C ,  7-O ) :   0.9818 B(  6-C ,  9-H ) :   0.9701 B(  6-C , 10-H ) :   0.9792
B(  6-C , 11-H ) :   0.9781 B(  7-O ,  8-H ) :   0.9160

Dispersion correction           -0.000236910
FINAL SINGLE POINT ENERGY      -115.728984206856

DIPOLE MOMENT
-------------
                                X             Y             Z
Electronic contribution:     -0.72289       0.23446       1.62504
Nuclear contribution   :      0.87276      -0.86015      -1.83201
                        -----------------------------------------
Total Dipole Moment    :      0.14987      -0.62569      -0.20697
                        -----------------------------------------
Magnitude (a.u.)       :      0.67586
Magnitude (Debye)      :      1.71790

Rotational constants in cm-1:     4.434955     0.852909     0.820621
Rotational constants in MHz : 132956.600042 25569.576907 24601.592450

                             ****ORCA TERMINATED NORMALLY****
TOTAL RUN TIME: 0 days 0 hours 1 minutes 8 seconds 106 msec
