                         Program Version 4.1.2  - RELEASE  -
|  1> #Run DFT-D3 single point of the dimer
|  2> ! wB97X-D3 def2-TZVP TIGHTSCF CHELPG PMODEL PAL8
|  3>
|  4> %base "4-41_DFT_AB"
|  5>
|  6> %scf
|  7> MaxIter 1000
|  8> end
|  9>
| 10> * xyz 0 1
| 11>   C                      -5.908820            9.914225             2.928473
| 12>   O                      -5.230822            9.218383             3.952010
| 13>   H                      -5.789429            8.456262             4.113283
| 14>   H                      -5.594980            9.513840             1.948550
| 15>   H                      -6.928582            9.598080             2.978379
| 16>   H                      -5.841982            11.018729            3.005331
| 17>   C                      -2.198624            9.615270             1.579089
| 18>   O                      -2.591249            8.515751             2.357670
| 19>   H                      -3.042198            8.817431             3.150511
| 20>   H                      -2.964768            10.342810            1.400862
| 21>   H                      -1.380174            10.190098            2.092665
| 22>   H                      -1.801923            9.420872             0.610234
| 23> *
| 24>
| 25> #Run DFT-D3 single point of the molecule with dimer basis set
| 26> $new_job
| 27> %base "4-41_DFT_A"
| 28> ! wB97X-D3 def2-TZVP TIGHTSCF CHELPG PMODEL
| 29>
| 30> %scf
| 31> MaxIter 1000
| 32> end
| 33>
| 34> * xyz 0 1
| 35>   C                      -5.908820            9.914225             2.928473
| 36>   O                      -5.230822            9.218383             3.952010
| 37>   H                      -5.789429            8.456262             4.113283
| 38>   H                      -5.594980            9.513840             1.948550
| 39>   H                      -6.928582            9.598080             2.978379
| 40>   H                      -5.841982            11.018729            3.005331
| 41>   C                    : -2.198624            9.615270             1.579089
| 42>   O                    : -2.591249            8.515751             2.357670
| 43>   H                    : -3.042198            8.817431             3.150511
| 44>   H                    : -2.964768            10.342810            1.400862
| 45>   H                    : -1.380174            10.190098            2.092665
| 46>   H                    : -1.801923            9.420872             0.610234
| 47> *
| 48>
| 49> #Run DFT-D3 single point of the particle with dimer basis set
| 50> $new_job
| 51> %base "4-41_DFT_B"
| 52> ! wB97X-D3 def2-TZVP TIGHTSCF CHELPG PMODEL
| 53>
| 54> %scf
| 55> MaxIter 1000
| 56> end
| 57>
| 58> * xyz 0 1
| 59>   C                    : -5.908820            9.914225             2.928473
| 60>   O                    : -5.230822            9.218383             3.952010
| 61>   H                    : -5.789429            8.456262             4.113283
| 62>   H                    : -5.594980            9.513840             1.948550
| 63>   H                    : -6.928582            9.598080             2.978379
| 64>   H                    : -5.841982            11.018729            3.005331
| 65>   C                      -2.198624            9.615270             1.579089
| 66>   O                      -2.591249            8.515751             2.357670
| 67>   H                      -3.042198            8.817431             3.150511
| 68>   H                      -2.964768            10.342810            1.400862
| 69>   H                      -1.380174            10.190098            2.092665
| 70>   H                      -1.801923            9.420872             0.610234
| 71> *
| 72>
| 73>                          ****END OF INPUT****
 Total Charge           Charge          ....    0
 Multiplicity           Mult            ....    1
 Number of Electrons    NEL             ....   36
Dispersion correction           -0.001978354
FINAL SINGLE POINT ENERGY      -231.470143468424
Dispersion correction           -0.000218551
FINAL SINGLE POINT ENERGY      -115.730945800361

CARTESIAN COORDINATES (ANGSTROEM)
---------------------------------
  C     -5.908820    9.914225    2.928473
  O     -5.230822    9.218383    3.952010
  H     -5.789429    8.456262    4.113283
  H     -5.594980    9.513840    1.948550
  H     -6.928582    9.598080    2.978379
  H     -5.841982   11.018729    3.005331
  C     -2.198624    9.615270    1.579089
  O     -2.591249    8.515751    2.357670
  H     -3.042198    8.817431    3.150511
  H     -2.964768   10.342810    1.400862
  H     -1.380174   10.190098    2.092665
  H     -1.801923    9.420872    0.610234

 Multiplicity           Mult            ....    1
 Number of Electrons    NEL             ....   18
 Basis Dimension        Dim             ....  172

ORBITAL ENERGIES
----------------

  NO   OCC          E(Eh)            E(eV)
   0   2.0000     -19.233885      -523.3806
   1   2.0000     -10.310990      -280.5763
   2   2.0000      -1.139904       -31.0184
   3   2.0000      -0.801460       -21.8088
   4   2.0000      -0.617762       -16.8102
   5   2.0000      -0.537367       -14.6225
   6   2.0000      -0.535770       -14.5790
   7   2.0000      -0.432004       -11.7554
   8   2.0000      -0.372856       -10.1459
   9   0.0000       0.075441         2.0528
  10   0.0000       0.137136         3.7317
  11   0.0000       0.139869         3.8060
  12   0.0000       0.173953         4.7335
  13   0.0000       0.187834         5.1112

MULLIKEN ATOMIC CHARGES
-----------------------
   0 C :   -0.003512
   1 O :   -0.001174
   2 H :   -0.000128
   3 H :   -0.000755
   4 H :   -0.000077
   5 H :   -0.000003
   6 C :   -0.171413
   7 O :   -0.471212
   8 H :    0.320501
   9 H :    0.106104
  10 H :    0.098401
  11 H :    0.123267
Sum of atomic charges:    0.0000000

LOEWDIN ATOMIC CHARGES
----------------------
   0 C :   -0.005468
   1 O :   -0.006769
   2 H :   -0.000605
   3 H :   -0.002037
   4 H :   -0.000059
   5 H :   -0.000165
   6 C :   -0.393270
   7 O :   -0.058119
   8 H :    0.174212
   9 H :    0.090228
  10 H :    0.099791
  11 H :    0.102261

  Mayer bond orders larger than 0.1
B(  6-C ,  7-O ) :   1.0008 B(  6-C ,  9-H ) :   0.9714 B(  6-C , 10-H ) :   0.9877
B(  6-C , 11-H ) :   0.9723 B(  7-O ,  8-H ) :   0.8958

Dispersion correction           -0.000249903
FINAL SINGLE POINT ENERGY      -115.732403985759

DIPOLE MOMENT
-------------
                                X             Y             Z
Electronic contribution:     -0.54750      -1.68204       0.85874
Nuclear contribution   :      0.40937       2.30631      -0.68435
                        -----------------------------------------
Total Dipole Moment    :     -0.13813       0.62427       0.17438
                        -----------------------------------------
Magnitude (a.u.)       :      0.66272
Magnitude (Debye)      :      1.68451

Rotational constants in cm-1:     4.553178     0.824702     0.799546
Rotational constants in MHz : 136500.854554 24723.930135 23969.772548

                             ****ORCA TERMINATED NORMALLY****
TOTAL RUN TIME: 0 days 0 hours 1 minutes 29 seconds 898 msec
