                         Program Version 4.1.2  - RELEASE  -
|  1> #Run DFT-D3 single point of the dimer
|  2> ! wB97X-D3 def2-TZVP TIGHTSCF CHELPG PMODEL PAL8
|  3>
|  4> %base "12-99_DFT_AB"
|  5>
|  6> %scf
|  7> MaxIter 1000
|  8> end
|  9>
| 10> * xyz 0 1
| 11>   C                      7.069487             6.948817             1.348319
| 12>   O                      6.833436             7.462442             0.067141
| 13>   H                      6.469724             6.786522             -0.512093
| 14>   H                      6.543788             6.020128             1.325691
| 15>   H                      8.106300             6.629288             1.569079
| 16>   H                      6.689718             7.616708             2.082214
| 17>   C                      4.501213             9.694876             2.436544
| 18>   O                      3.663614             8.551303             2.178854
| 19>   H                      3.863532             7.881030             2.839845
| 20>   H                      5.518683             9.629017             1.891389
| 21>   H                      4.050312             10.602869            2.109450
| 22>   H                      4.865483             9.896784             3.449164
| 23> *
| 24>
| 25> #Run DFT-D3 single point of the molecule with dimer basis set
| 26> $new_job
| 27> %base "12-99_DFT_A"
| 28> ! wB97X-D3 def2-TZVP TIGHTSCF CHELPG PMODEL
| 29>
| 30> %scf
| 31> MaxIter 1000
| 32> end
| 33>
| 34> * xyz 0 1
| 35>   C                      7.069487             6.948817             1.348319
| 36>   O                      6.833436             7.462442             0.067141
| 37>   H                      6.469724             6.786522             -0.512093
| 38>   H                      6.543788             6.020128             1.325691
| 39>   H                      8.106300             6.629288             1.569079
| 40>   H                      6.689718             7.616708             2.082214
| 41>   C                    : 4.501213             9.694876             2.436544
| 42>   O                    : 3.663614             8.551303             2.178854
| 43>   H                    : 3.863532             7.881030             2.839845
| 44>   H                    : 5.518683             9.629017             1.891389
| 45>   H                    : 4.050312             10.602869            2.109450
| 46>   H                    : 4.865483             9.896784             3.449164
| 47> *
| 48>
| 49> #Run DFT-D3 single point of the particle with dimer basis set
| 50> $new_job
| 51> %base "12-99_DFT_B"
| 52> ! wB97X-D3 def2-TZVP TIGHTSCF CHELPG PMODEL
| 53>
| 54> %scf
| 55> MaxIter 1000
| 56> end
| 57>
| 58> * xyz 0 1
| 59>   C                    : 7.069487             6.948817             1.348319
| 60>   O                    : 6.833436             7.462442             0.067141
| 61>   H                    : 6.469724             6.786522             -0.512093
| 62>   H                    : 6.543788             6.020128             1.325691
| 63>   H                    : 8.106300             6.629288             1.569079
| 64>   H                    : 6.689718             7.616708             2.082214
| 65>   C                      4.501213             9.694876             2.436544
| 66>   O                      3.663614             8.551303             2.178854
| 67>   H                      3.863532             7.881030             2.839845
| 68>   H                      5.518683             9.629017             1.891389
| 69>   H                      4.050312             10.602869            2.109450
| 70>   H                      4.865483             9.896784             3.449164
| 71> *
| 72>
| 73>                          ****END OF INPUT****
 Total Charge           Charge          ....    0
 Multiplicity           Mult            ....    1
 Number of Electrons    NEL             ....   36
Dispersion correction           -0.001869050
FINAL SINGLE POINT ENERGY      -231.459760142787
Dispersion correction           -0.000230809
FINAL SINGLE POINT ENERGY      -115.729166268308

CARTESIAN COORDINATES (ANGSTROEM)
---------------------------------
  C      7.069487    6.948817    1.348319
  O      6.833436    7.462442    0.067141
  H      6.469724    6.786522   -0.512093
  H      6.543788    6.020128    1.325691
  H      8.106300    6.629288    1.569079
  H      6.689718    7.616708    2.082214
  C      4.501213    9.694876    2.436544
  O      3.663614    8.551303    2.178854
  H      3.863532    7.881030    2.839845
  H      5.518683    9.629017    1.891389
  H      4.050312   10.602869    2.109450
  H      4.865483    9.896784    3.449164

 Multiplicity           Mult            ....    1
 Number of Electrons    NEL             ....   18
 Basis Dimension        Dim             ....  172

ORBITAL ENERGIES
----------------

  NO   OCC          E(Eh)            E(eV)
   0   2.0000     -19.238134      -523.4962
   1   2.0000     -10.319444      -280.8063
   2   2.0000      -1.131264       -30.7833
   3   2.0000      -0.798346       -21.7241
   4   2.0000      -0.613629       -16.6977
   5   2.0000      -0.531869       -14.4729
   6   2.0000      -0.516767       -14.0619
   7   2.0000      -0.443957       -12.0807
   8   2.0000      -0.374236       -10.1835
   9   0.0000       0.083748         2.2789
  10   0.0000       0.126766         3.4495
  11   0.0000       0.143765         3.9120
  12   0.0000       0.168077         4.5736
  13   0.0000       0.186996         5.0884

MULLIKEN ATOMIC CHARGES
-----------------------
   0 C :   -0.000998
   1 O :    0.000026
   2 H :   -0.000009
   3 H :    0.000003
   4 H :    0.000136
   5 H :   -0.000277
   6 C :   -0.186528
   7 O :   -0.467346
   8 H :    0.317298
   9 H :    0.092943
  10 H :    0.131992
  11 H :    0.112761
Sum of atomic charges:    0.0000000

LOEWDIN ATOMIC CHARGES
----------------------
   0 C :   -0.005218
   1 O :   -0.000477
   2 H :   -0.000072
   3 H :   -0.000191
   4 H :   -0.000042
   5 H :   -0.004633
   6 C :   -0.376995
   7 O :   -0.086138
   8 H :    0.170240
   9 H :    0.106835
  10 H :    0.099815
  11 H :    0.096876

  Mayer bond orders larger than 0.1
B(  6-C ,  7-O ) :   1.0088 B(  6-C ,  9-H ) :   0.9734 B(  6-C , 10-H ) :   0.9784
B(  6-C , 11-H ) :   0.9700 B(  7-O ,  8-H ) :   0.8989

Dispersion correction           -0.000292033
FINAL SINGLE POINT ENERGY      -115.729811341731

DIPOLE MOMENT
-------------
                                X             Y             Z
Electronic contribution:     -1.36359      -1.46147      -0.37339
Nuclear contribution   :      1.80356       1.50336       0.92657
                        -----------------------------------------
Total Dipole Moment    :      0.43997       0.04189       0.55318
                        -----------------------------------------
Magnitude (a.u.)       :      0.70805
Magnitude (Debye)      :      1.79972

Rotational constants in cm-1:     4.422492     0.786949     0.761267
Rotational constants in MHz : 132582.978105 23592.150225 22822.196406

                             ****ORCA TERMINATED NORMALLY****
TOTAL RUN TIME: 0 days 0 hours 0 minutes 46 seconds 946 msec
