                         Program Version 4.1.2  - RELEASE  -
|  1> #Run DFT-D3 single point of the dimer
|  2> ! wB97X-D3 def2-TZVP TIGHTSCF CHELPG PMODEL PAL8
|  3>
|  4> %base "20-179_DFT_AB"
|  5>
|  6> %scf
|  7> MaxIter 1000
|  8> end
|  9>
| 10> * xyz 0 1
| 11>   C                      -4.271362            -6.781263            8.274301
| 12>   O                      -5.717525            -6.698937            8.025540
| 13>   H                      -5.953044            -5.734474            8.061774
| 14>   H                      -3.764510            -6.621116            7.333833
| 15>   H                      -3.943642            -6.008711            8.938294
| 16>   H                      -4.094203            -7.727645            8.672132
| 17>   C                      -6.980682            -3.287969            5.853607
| 18>   O                      -6.599467            -2.790154            7.111817
| 19>   H                      -7.028270            -3.384493            7.749280
| 20>   H                      -7.681012            -4.109412            5.997408
| 21>   H                      -7.493825            -2.515695            5.337518
| 22>   H                      -6.164806            -3.675723            5.310850
| 23> *
| 24>
| 25> #Run DFT-D3 single point of the molecule with dimer basis set
| 26> $new_job
| 27> %base "20-179_DFT_A"
| 28> ! wB97X-D3 def2-TZVP TIGHTSCF CHELPG PMODEL
| 29>
| 30> %scf
| 31> MaxIter 1000
| 32> end
| 33>
| 34> * xyz 0 1
| 35>   C                      -4.271362            -6.781263            8.274301
| 36>   O                      -5.717525            -6.698937            8.025540
| 37>   H                      -5.953044            -5.734474            8.061774
| 38>   H                      -3.764510            -6.621116            7.333833
| 39>   H                      -3.943642            -6.008711            8.938294
| 40>   H                      -4.094203            -7.727645            8.672132
| 41>   C                    : -6.980682            -3.287969            5.853607
| 42>   O                    : -6.599467            -2.790154            7.111817
| 43>   H                    : -7.028270            -3.384493            7.749280
| 44>   H                    : -7.681012            -4.109412            5.997408
| 45>   H                    : -7.493825            -2.515695            5.337518
| 46>   H                    : -6.164806            -3.675723            5.310850
| 47> *
| 48>
| 49> #Run DFT-D3 single point of the particle with dimer basis set
| 50> $new_job
| 51> %base "20-179_DFT_B"
| 52> ! wB97X-D3 def2-TZVP TIGHTSCF CHELPG PMODEL
| 53>
| 54> %scf
| 55> MaxIter 1000
| 56> end
| 57>
| 58> * xyz 0 1
| 59>   C                    : -4.271362            -6.781263            8.274301
| 60>   O                    : -5.717525            -6.698937            8.025540
| 61>   H                    : -5.953044            -5.734474            8.061774
| 62>   H                    : -3.764510            -6.621116            7.333833
| 63>   H                    : -3.943642            -6.008711            8.938294
| 64>   H                    : -4.094203            -7.727645            8.672132
| 65>   C                      -6.980682            -3.287969            5.853607
| 66>   O                      -6.599467            -2.790154            7.111817
| 67>   H                      -7.028270            -3.384493            7.749280
| 68>   H                      -7.681012            -4.109412            5.997408
| 69>   H                      -7.493825            -2.515695            5.337518
| 70>   H                      -6.164806            -3.675723            5.310850
| 71> *
| 72>
| 73>                          ****END OF INPUT****
 Total Charge           Charge          ....    0
 Multiplicity           Mult            ....    1
 Number of Electrons    NEL             ....   36
Dispersion correction           -0.001328175
FINAL SINGLE POINT ENERGY      -231.465201494323
Dispersion correction           -0.000240246
FINAL SINGLE POINT ENERGY      -115.731951372281

CARTESIAN COORDINATES (ANGSTROEM)
---------------------------------
  C     -4.271362   -6.781263    8.274301
  O     -5.717525   -6.698937    8.025540
  H     -5.953044   -5.734474    8.061774
  H     -3.764510   -6.621116    7.333833
  H     -3.943642   -6.008711    8.938294
  H     -4.094203   -7.727645    8.672132
  C     -6.980682   -3.287969    5.853607
  O     -6.599467   -2.790154    7.111817
  H     -7.028270   -3.384493    7.749280
  H     -7.681012   -4.109412    5.997408
  H     -7.493825   -2.515695    5.337518
  H     -6.164806   -3.675723    5.310850

 Multiplicity           Mult            ....    1
 Number of Electrons    NEL             ....   18
 Basis Dimension        Dim             ....  172

ORBITAL ENERGIES
----------------

  NO   OCC          E(Eh)            E(eV)
   0   2.0000     -19.228722      -523.2401
   1   2.0000     -10.302901      -280.3562
   2   2.0000      -1.137835       -30.9621
   3   2.0000      -0.797314       -21.6960
   4   2.0000      -0.611946       -16.6519
   5   2.0000      -0.553753       -15.0684
   6   2.0000      -0.527527       -14.3547
   7   2.0000      -0.432917       -11.7803
   8   2.0000      -0.374704       -10.1962
   9   0.0000       0.079948         2.1755
  10   0.0000       0.116241         3.1631
  11   0.0000       0.157831         4.2948
  12   0.0000       0.184923         5.0320
  13   0.0000       0.188561         5.1310

MULLIKEN ATOMIC CHARGES
-----------------------
   0 C :    0.000893
   1 O :    0.000996
   2 H :   -0.007097
   3 H :   -0.000090
   4 H :   -0.000168
   5 H :   -0.000051
   6 C :   -0.167080
   7 O :   -0.470505
   8 H :    0.317859
   9 H :    0.097533
  10 H :    0.116317
  11 H :    0.111392
Sum of atomic charges:    0.0000000

LOEWDIN ATOMIC CHARGES
----------------------
   0 C :   -0.000159
   1 O :   -0.000126
   2 H :   -0.004051
   3 H :   -0.000008
   4 H :   -0.000046
   5 H :   -0.000008
   6 C :   -0.381135
   7 O :   -0.076671
   8 H :    0.177707
   9 H :    0.096804
  10 H :    0.096282
  11 H :    0.091412

  Mayer bond orders larger than 0.1
B(  6-C ,  7-O ) :   0.9965 B(  6-C ,  9-H ) :   0.9950 B(  6-C , 10-H ) :   0.9812
B(  6-C , 11-H ) :   0.9742 B(  7-O ,  8-H ) :   0.9020

Dispersion correction           -0.000218011
FINAL SINGLE POINT ENERGY      -115.732565452198

DIPOLE MOMENT
-------------
                                X             Y             Z
Electronic contribution:      0.64208       0.78982       1.44797
Nuclear contribution   :     -1.07639      -1.36635      -1.54451
                        -----------------------------------------
Total Dipole Moment    :     -0.43431      -0.57653      -0.09654
                        -----------------------------------------
Magnitude (a.u.)       :      0.72824
Magnitude (Debye)      :      1.85103

Rotational constants in cm-1:     4.352563     0.853309     0.822277
Rotational constants in MHz : 130486.553249 25581.571916 24651.229560

                             ****ORCA TERMINATED NORMALLY****
TOTAL RUN TIME: 0 days 0 hours 1 minutes 6 seconds 299 msec
