                         Program Version 4.1.2  - RELEASE  -
|  1> #Run DFT-D3 single point of the dimer
|  2> ! wB97X-D3 def2-TZVP TIGHTSCF CHELPG PMODEL PAL8
|  3>
|  4> %base "3-12_DFT_AB"
|  5>
|  6> %scf
|  7> MaxIter 1000
|  8> end
|  9>
| 10> * xyz 0 1
| 11>   C                      0.141561             6.247437             4.342902
| 12>   O                      -0.671210            6.055133             5.470995
| 13>   H                      -0.143852            5.652897             6.120910
| 14>   H                      0.997028             6.871239             4.544806
| 15>   H                      0.411989             5.326716             3.898990
| 16>   H                      -0.387381            6.739469             3.540981
| 17>   C                      2.386429             2.995195             8.591899
| 18>   O                      1.849610             4.090954             7.926021
| 19>   H                      0.922716             3.954351             7.668493
| 20>   H                      3.472603             3.087747             8.957386
| 21>   H                      1.871403             2.819979             9.530052
| 22>   H                      2.375562             2.106276             7.946624
| 23> *
| 24>
| 25> #Run DFT-D3 single point of the molecule with dimer basis set
| 26> $new_job
| 27> %base "3-12_DFT_A"
| 28> ! wB97X-D3 def2-TZVP TIGHTSCF CHELPG PMODEL
| 29>
| 30> %scf
| 31> MaxIter 1000
| 32> end
| 33>
| 34> * xyz 0 1
| 35>   C                      0.141561             6.247437             4.342902
| 36>   O                      -0.671210            6.055133             5.470995
| 37>   H                      -0.143852            5.652897             6.120910
| 38>   H                      0.997028             6.871239             4.544806
| 39>   H                      0.411989             5.326716             3.898990
| 40>   H                      -0.387381            6.739469             3.540981
| 41>   C                    : 2.386429             2.995195             8.591899
| 42>   O                    : 1.849610             4.090954             7.926021
| 43>   H                    : 0.922716             3.954351             7.668493
| 44>   H                    : 3.472603             3.087747             8.957386
| 45>   H                    : 1.871403             2.819979             9.530052
| 46>   H                    : 2.375562             2.106276             7.946624
| 47> *
| 48>
| 49> #Run DFT-D3 single point of the particle with dimer basis set
| 50> $new_job
| 51> %base "3-12_DFT_B"
| 52> ! wB97X-D3 def2-TZVP TIGHTSCF CHELPG PMODEL
| 53>
| 54> %scf
| 55> MaxIter 1000
| 56> end
| 57>
| 58> * xyz 0 1
| 59>   C                    : 0.141561             6.247437             4.342902
| 60>   O                    : -0.671210            6.055133             5.470995
| 61>   H                    : -0.143852            5.652897             6.120910
| 62>   H                    : 0.997028             6.871239             4.544806
| 63>   H                    : 0.411989             5.326716             3.898990
| 64>   H                    : -0.387381            6.739469             3.540981
| 65>   C                      2.386429             2.995195             8.591899
| 66>   O                      1.849610             4.090954             7.926021
| 67>   H                      0.922716             3.954351             7.668493
| 68>   H                      3.472603             3.087747             8.957386
| 69>   H                      1.871403             2.819979             9.530052
| 70>   H                      2.375562             2.106276             7.946624
| 71> *
| 72>
| 73>                          ****END OF INPUT****
 Total Charge           Charge          ....    0
 Multiplicity           Mult            ....    1
 Number of Electrons    NEL             ....   36
Dispersion correction           -0.001060313
FINAL SINGLE POINT ENERGY      -231.464652514689
Dispersion correction           -0.000225441
FINAL SINGLE POINT ENERGY      -115.733708004488

CARTESIAN COORDINATES (ANGSTROEM)
---------------------------------
  C      0.141561    6.247437    4.342902
  O     -0.671210    6.055133    5.470995
  H     -0.143852    5.652897    6.120910
  H      0.997028    6.871239    4.544806
  H      0.411989    5.326716    3.898990
  H     -0.387381    6.739469    3.540981
  C      2.386429    2.995195    8.591899
  O      1.849610    4.090954    7.926021
  H      0.922716    3.954351    7.668493
  H      3.472603    3.087747    8.957386
  H      1.871403    2.819979    9.530052
  H      2.375562    2.106276    7.946624

 Multiplicity           Mult            ....    1
 Number of Electrons    NEL             ....   18
 Basis Dimension        Dim             ....  172

ORBITAL ENERGIES
----------------

  NO   OCC          E(Eh)            E(eV)
   0   2.0000     -19.230600      -523.2912
   1   2.0000     -10.316715      -280.7321
   2   2.0000      -1.139321       -31.0025
   3   2.0000      -0.792664       -21.5695
   4   2.0000      -0.613543       -16.6954
   5   2.0000      -0.549364       -14.9490
   6   2.0000      -0.527020       -14.3409
   7   2.0000      -0.416682       -11.3385
   8   2.0000      -0.373492       -10.1632
   9   0.0000       0.085365         2.3229
  10   0.0000       0.121384         3.3030
  11   0.0000       0.144901         3.9429
  12   0.0000       0.186437         5.0732
  13   0.0000       0.202011         5.4970

MULLIKEN ATOMIC CHARGES
-----------------------
   0 C :   -0.000544
   1 O :    0.000142
   2 H :   -0.000807
   3 H :   -0.000010
   4 H :   -0.000065
   5 H :   -0.000049
   6 C :   -0.158554
   7 O :   -0.482325
   8 H :    0.325475
   9 H :    0.114726
  10 H :    0.101643
  11 H :    0.100367
Sum of atomic charges:   -0.0000000

LOEWDIN ATOMIC CHARGES
----------------------
   0 C :   -0.000419
   1 O :   -0.000082
   2 H :   -0.001830
   3 H :   -0.000038
   4 H :   -0.000053
   5 H :   -0.000018
   6 C :   -0.412684
   7 O :   -0.068033
   8 H :    0.179619
   9 H :    0.118931
  10 H :    0.090870
  11 H :    0.093737

  Mayer bond orders larger than 0.1
B(  6-C ,  7-O ) :   0.9980 B(  6-C ,  9-H ) :   0.9674 B(  6-C , 10-H ) :   0.9791
B(  6-C , 11-H ) :   0.9808 B(  7-O ,  8-H ) :   0.8841

Dispersion correction           -0.000251316
FINAL SINGLE POINT ENERGY      -115.730694869222

DIPOLE MOMENT
-------------
                                X             Y             Z
Electronic contribution:     -0.64647       1.53783      -0.91504
Nuclear contribution   :      0.26140      -2.05528       1.02553
                        -----------------------------------------
Total Dipole Moment    :     -0.38507      -0.51745       0.11049
                        -----------------------------------------
Magnitude (a.u.)       :      0.65440
Magnitude (Debye)      :      1.66336

Rotational constants in cm-1:     4.366271     0.832106     0.808997
Rotational constants in MHz : 130897.507086 24945.895788 24253.108085

                             ****ORCA TERMINATED NORMALLY****
TOTAL RUN TIME: 0 days 0 hours 6 minutes 24 seconds 886 msec
