                         Program Version 4.1.2  - RELEASE  -
|  1> #Run DFT-D3 single point of the dimer
|  2> ! wB97X-D3 def2-TZVP TIGHTSCF CHELPG PMODEL PAL8
|  3>
|  4> %base "6-208_DFT_AB"
|  5>
|  6> %scf
|  7> MaxIter 1000
|  8> end
|  9>
| 10> * xyz 0 1
| 11>   C                      11.075448            7.740027             -1.530898
| 12>   O                      9.691084             7.385987             -1.478256
| 13>   H                      9.346065             7.036753             -2.299962
| 14>   H                      11.511421            8.219477             -0.667872
| 15>   H                      11.698489            6.897840             -1.774028
| 16>   H                      11.210044            8.405456             -2.364584
| 17>   C                      8.708879             6.463553             1.934085
| 18>   O                      8.796697             7.774992             1.389935
| 19>   H                      9.348000             7.728287             0.602697
| 20>   H                      8.947508             5.678067             1.221697
| 21>   H                      9.303052             6.525427             2.839559
| 22>   H                      7.697816             6.244833             2.153379
| 23> *
| 24>
| 25> #Run DFT-D3 single point of the molecule with dimer basis set
| 26> $new_job
| 27> %base "6-208_DFT_A"
| 28> ! wB97X-D3 def2-TZVP TIGHTSCF CHELPG PMODEL
| 29>
| 30> %scf
| 31> MaxIter 1000
| 32> end
| 33>
| 34> * xyz 0 1
| 35>   C                      11.075448            7.740027             -1.530898
| 36>   O                      9.691084             7.385987             -1.478256
| 37>   H                      9.346065             7.036753             -2.299962
| 38>   H                      11.511421            8.219477             -0.667872
| 39>   H                      11.698489            6.897840             -1.774028
| 40>   H                      11.210044            8.405456             -2.364584
| 41>   C                    : 8.708879             6.463553             1.934085
| 42>   O                    : 8.796697             7.774992             1.389935
| 43>   H                    : 9.348000             7.728287             0.602697
| 44>   H                    : 8.947508             5.678067             1.221697
| 45>   H                    : 9.303052             6.525427             2.839559
| 46>   H                    : 7.697816             6.244833             2.153379
| 47> *
| 48>
| 49> #Run DFT-D3 single point of the particle with dimer basis set
| 50> $new_job
| 51> %base "6-208_DFT_B"
| 52> ! wB97X-D3 def2-TZVP TIGHTSCF CHELPG PMODEL
| 53>
| 54> %scf
| 55> MaxIter 1000
| 56> end
| 57>
| 58> * xyz 0 1
| 59>   C                    : 11.075448            7.740027             -1.530898
| 60>   O                    : 9.691084             7.385987             -1.478256
| 61>   H                    : 9.346065             7.036753             -2.299962
| 62>   H                    : 11.511421            8.219477             -0.667872
| 63>   H                    : 11.698489            6.897840             -1.774028
| 64>   H                    : 11.210044            8.405456             -2.364584
| 65>   C                      8.708879             6.463553             1.934085
| 66>   O                      8.796697             7.774992             1.389935
| 67>   H                      9.348000             7.728287             0.602697
| 68>   H                      8.947508             5.678067             1.221697
| 69>   H                      9.303052             6.525427             2.839559
| 70>   H                      7.697816             6.244833             2.153379
| 71> *
| 72>
| 73>                          ****END OF INPUT****
 Total Charge           Charge          ....    0
 Multiplicity           Mult            ....    1
 Number of Electrons    NEL             ....   36
Dispersion correction           -0.001725131
FINAL SINGLE POINT ENERGY      -231.467901267566
Dispersion correction           -0.000249780
FINAL SINGLE POINT ENERGY      -115.730782190056

CARTESIAN COORDINATES (ANGSTROEM)
---------------------------------
  C     11.075448    7.740027   -1.530898
  O      9.691084    7.385987   -1.478256
  H      9.346065    7.036753   -2.299962
  H     11.511421    8.219477   -0.667872
  H     11.698489    6.897840   -1.774028
  H     11.210044    8.405456   -2.364584
  C      8.708879    6.463553    1.934085
  O      8.796697    7.774992    1.389935
  H      9.348000    7.728287    0.602697
  H      8.947508    5.678067    1.221697
  H      9.303052    6.525427    2.839559
  H      7.697816    6.244833    2.153379

 Multiplicity           Mult            ....    1
 Number of Electrons    NEL             ....   18
 Basis Dimension        Dim             ....  172

ORBITAL ENERGIES
----------------

  NO   OCC          E(Eh)            E(eV)
   0   2.0000     -19.226562      -523.1813
   1   2.0000     -10.306919      -280.4655
   2   2.0000      -1.131785       -30.7974
   3   2.0000      -0.798757       -21.7353
   4   2.0000      -0.609475       -16.5847
   5   2.0000      -0.550435       -14.9781
   6   2.0000      -0.521440       -14.1891
   7   2.0000      -0.434018       -11.8102
   8   2.0000      -0.371950       -10.1213
   9   0.0000       0.068463         1.8630
  10   0.0000       0.135436         3.6854
  11   0.0000       0.153739         4.1835
  12   0.0000       0.159833         4.3493
  13   0.0000       0.189193         5.1482

MULLIKEN ATOMIC CHARGES
-----------------------
   0 C :   -0.002218
   1 O :   -0.003006
   2 H :   -0.000289
   3 H :   -0.001244
   4 H :    0.000167
   5 H :   -0.000082
   6 C :   -0.158657
   7 O :   -0.477886
   8 H :    0.312933
   9 H :    0.106082
  10 H :    0.113188
  11 H :    0.111012
Sum of atomic charges:    0.0000000

LOEWDIN ATOMIC CHARGES
----------------------
   0 C :   -0.005882
   1 O :   -0.012005
   2 H :   -0.000597
   3 H :   -0.001602
   4 H :   -0.000058
   5 H :   -0.000102
   6 C :   -0.369873
   7 O :   -0.078739
   8 H :    0.173056
   9 H :    0.097892
  10 H :    0.102205
  11 H :    0.095706

  Mayer bond orders larger than 0.1
B(  6-C ,  7-O ) :   0.9841 B(  6-C ,  9-H ) :   0.9767 B(  6-C , 10-H ) :   0.9865
B(  6-C , 11-H ) :   0.9736 B(  7-O ,  8-H ) :   0.9104

Dispersion correction           -0.000233880
FINAL SINGLE POINT ENERGY      -115.731459353934

DIPOLE MOMENT
-------------
                                X             Y             Z
Electronic contribution:      0.07081       1.60766      -0.55501
Nuclear contribution   :      0.21385      -2.18337       0.26232
                        -----------------------------------------
Total Dipole Moment    :      0.28466      -0.57571      -0.29270
                        -----------------------------------------
Magnitude (a.u.)       :      0.70579
Magnitude (Debye)      :      1.79399

Rotational constants in cm-1:     4.322161     0.833113     0.806449
Rotational constants in MHz : 129575.127412 24976.108485 24176.727290

                             ****ORCA TERMINATED NORMALLY****
TOTAL RUN TIME: 0 days 0 hours 1 minutes 6 seconds 522 msec
