                         Program Version 4.1.2  - RELEASE  -
|  1> #Run DFT geometry optimization
|  2> ! wB97X-D3 def2-TZVP TIGHTSCF Grid5 FinalGrid6 Opt CHELPG PAL4
|  3>
|  4> %base "2_geo_opt"
|  5> %geom MaxIter 500
|  6> end
|  7>
|  8> %geom
|  9>   Constraints
| 10>     { B 2 1 C }
| 11>   end
| 12> end
| 13>
| 14>
| 15> * xyz 0 1
| 16>   C                    3.011189             -1.181132            0.598636
| 17>   O                    4.394555             -1.128285            0.874452
| 18>   H                    4.772314             -0.378787            0.412348
| 19>   H                    2.806316             -1.319200            -0.469205
| 20>   H                    2.611514             -2.040500            1.136043
| 21>   H                    2.484639             -0.284726            0.945804
| 22> *
| 23>
| 24>                          ****END OF INPUT****
 Total Charge           Charge          ....    0
 Multiplicity           Mult            ....    1
 Number of Electrons    NEL             ....   18
Dispersion correction           -0.000239327
FINAL SINGLE POINT ENERGY      -115.738050983260
Dispersion correction            ... done
                    ***********************HURRAY********************

CARTESIAN COORDINATES (ANGSTROEM)
---------------------------------
  C      3.011245   -1.181158    0.598664
  O      4.394582   -1.128279    0.874439
  H      4.772281   -0.378752    0.412333
  H      2.806327   -1.319206   -0.469176
  H      2.611423   -2.040486    1.136018
  H      2.484669   -0.284749    0.945799

 Multiplicity           Mult            ....    1
 Number of Electrons    NEL             ....   18
 Basis Dimension        Dim             ....   86

ORBITAL ENERGIES
----------------

  NO   OCC          E(Eh)            E(eV)
   0   2.0000     -19.228138      -523.2242
   1   2.0000     -10.315103      -280.6882
   2   2.0000      -1.136694       -30.9310
   3   2.0000      -0.795285       -21.6408
   4   2.0000      -0.611528       -16.6405
   5   2.0000      -0.541760       -14.7420
   6   2.0000      -0.526316       -14.3218
   7   2.0000      -0.433770       -11.8035
   8   2.0000      -0.373584       -10.1657
   9   0.0000       0.116578         3.1723
  10   0.0000       0.156649         4.2626
  11   0.0000       0.202574         5.5123
  12   0.0000       0.205119         5.5816
  13   0.0000       0.226350         6.1593

MULLIKEN ATOMIC CHARGES
-----------------------
   0 C :   -0.150852
   1 O :   -0.477711
   2 H :    0.313095
   3 H :    0.098621
   4 H :    0.118222
   5 H :    0.098624
Sum of atomic charges:   -0.0000000

LOEWDIN ATOMIC CHARGES
----------------------
   0 C :   -0.385262
   1 O :   -0.076369
   2 H :    0.166169
   3 H :    0.093390
   4 H :    0.108683
   5 H :    0.093389

  Mayer bond orders larger than 0.1
B(  0-C ,  1-O ) :   0.9987 B(  0-C ,  3-H ) :   0.9755 B(  0-C ,  4-H ) :   0.9749
B(  0-C ,  5-H ) :   0.9755 B(  1-O ,  2-H ) :   0.9001

Dispersion correction           -0.000239321
FINAL SINGLE POINT ENERGY      -115.738050998811

DIPOLE MOMENT
-------------
                                X             Y             Z
Electronic contribution:      1.75598      -0.02853       0.42001
Nuclear contribution   :     -2.06567       0.47625      -0.81771
                        -----------------------------------------
Total Dipole Moment    :     -0.30968       0.44771      -0.39770
                        -----------------------------------------
Magnitude (a.u.)       :      0.67418
Magnitude (Debye)      :      1.71363

Rotational constants in cm-1:     4.291951     0.833799     0.804873
Rotational constants in MHz : 128669.455297 24996.677452 24129.486456

                             ****ORCA TERMINATED NORMALLY****
TOTAL RUN TIME: 0 days 0 hours 0 minutes 36 seconds 318 msec
