                         Program Version 4.1.2  - RELEASE  -
|  1> #Run DFT-D3 single point of the dimer
|  2> ! wB97X-D3 def2-TZVP TIGHTSCF CHELPG PMODEL PAL8
|  3>
|  4> %base "15-24_DFT_AB"
|  5>
|  6> %scf
|  7> MaxIter 1000
|  8> end
|  9>
| 10> * xyz 0 1
| 11>   C                      4.420336             -3.631376            1.742753
| 12>   O                      3.162538             -4.207617            1.389367
| 13>   H                      2.908502             -4.657569            2.203867
| 14>   H                      4.810058             -2.966194            0.971924
| 15>   H                      4.419981             -3.156620            2.638260
| 16>   H                      5.257324             -4.385752            1.882703
| 17>   C                      4.428965             -1.741349            -2.223065
| 18>   O                      3.103806             -1.366639            -1.848671
| 19>   H                      3.017153             -1.586818            -0.897268
| 20>   H                      4.623394             -1.404204            -3.261641
| 21>   H                      5.154205             -1.239087            -1.567647
| 22>   H                      4.599700             -2.855086            -2.210963
| 23> *
| 24>
| 25> #Run DFT-D3 single point of the molecule with dimer basis set
| 26> $new_job
| 27> %base "15-24_DFT_A"
| 28> ! wB97X-D3 def2-TZVP TIGHTSCF CHELPG PMODEL
| 29>
| 30> %scf
| 31> MaxIter 1000
| 32> end
| 33>
| 34> * xyz 0 1
| 35>   C                      4.420336             -3.631376            1.742753
| 36>   O                      3.162538             -4.207617            1.389367
| 37>   H                      2.908502             -4.657569            2.203867
| 38>   H                      4.810058             -2.966194            0.971924
| 39>   H                      4.419981             -3.156620            2.638260
| 40>   H                      5.257324             -4.385752            1.882703
| 41>   C                    : 4.428965             -1.741349            -2.223065
| 42>   O                    : 3.103806             -1.366639            -1.848671
| 43>   H                    : 3.017153             -1.586818            -0.897268
| 44>   H                    : 4.623394             -1.404204            -3.261641
| 45>   H                    : 5.154205             -1.239087            -1.567647
| 46>   H                    : 4.599700             -2.855086            -2.210963
| 47> *
| 48>
| 49> #Run DFT-D3 single point of the particle with dimer basis set
| 50> $new_job
| 51> %base "15-24_DFT_B"
| 52> ! wB97X-D3 def2-TZVP TIGHTSCF CHELPG PMODEL
| 53>
| 54> %scf
| 55> MaxIter 1000
| 56> end
| 57>
| 58> * xyz 0 1
| 59>   C                    : 4.420336             -3.631376            1.742753
| 60>   O                    : 3.162538             -4.207617            1.389367
| 61>   H                    : 2.908502             -4.657569            2.203867
| 62>   H                    : 4.810058             -2.966194            0.971924
| 63>   H                    : 4.419981             -3.156620            2.638260
| 64>   H                    : 5.257324             -4.385752            1.882703
| 65>   C                      4.428965             -1.741349            -2.223065
| 66>   O                      3.103806             -1.366639            -1.848671
| 67>   H                      3.017153             -1.586818            -0.897268
| 68>   H                      4.623394             -1.404204            -3.261641
| 69>   H                      5.154205             -1.239087            -1.567647
| 70>   H                      4.599700             -2.855086            -2.210963
| 71> *
| 72>
| 73>                          ****END OF INPUT****
 Total Charge           Charge          ....    0
 Multiplicity           Mult            ....    1
 Number of Electrons    NEL             ....   36
Dispersion correction           -0.001416606
FINAL SINGLE POINT ENERGY      -231.465827430240
Dispersion correction           -0.000239924
FINAL SINGLE POINT ENERGY      -115.728415315769

CARTESIAN COORDINATES (ANGSTROEM)
---------------------------------
  C      4.420336   -3.631376    1.742753
  O      3.162538   -4.207617    1.389367
  H      2.908502   -4.657569    2.203867
  H      4.810058   -2.966194    0.971924
  H      4.419981   -3.156620    2.638260
  H      5.257324   -4.385752    1.882703
  C      4.428965   -1.741349   -2.223065
  O      3.103806   -1.366639   -1.848671
  H      3.017153   -1.586818   -0.897268
  H      4.623394   -1.404204   -3.261641
  H      5.154205   -1.239087   -1.567647
  H      4.599700   -2.855086   -2.210963

 Multiplicity           Mult            ....    1
 Number of Electrons    NEL             ....   18
 Basis Dimension        Dim             ....  172

ORBITAL ENERGIES
----------------

  NO   OCC          E(Eh)            E(eV)
   0   2.0000     -19.233441      -523.3685
   1   2.0000     -10.319316      -280.8029
   2   2.0000      -1.130065       -30.7506
   3   2.0000      -0.789199       -21.4752
   4   2.0000      -0.603839       -16.4313
   5   2.0000      -0.539729       -14.6868
   6   2.0000      -0.522898       -14.2288
   7   2.0000      -0.434012       -11.8101
   8   2.0000      -0.374323       -10.1858
   9   0.0000       0.071244         1.9387
  10   0.0000       0.120104         3.2682
  11   0.0000       0.145483         3.9588
  12   0.0000       0.165324         4.4987
  13   0.0000       0.189122         5.1463

MULLIKEN ATOMIC CHARGES
-----------------------
   0 C :   -0.000889
   1 O :    0.000006
   2 H :    0.000000
   3 H :    0.000599
   4 H :    0.000068
   5 H :   -0.000009
   6 C :   -0.169458
   7 O :   -0.472315
   8 H :    0.315583
   9 H :    0.122370
  10 H :    0.103582
  11 H :    0.100462
Sum of atomic charges:   -0.0000000

LOEWDIN ATOMIC CHARGES
----------------------
   0 C :   -0.001011
   1 O :   -0.000170
   2 H :   -0.000008
   3 H :   -0.000943
   4 H :   -0.000004
   5 H :   -0.000012
   6 C :   -0.386849
   7 O :   -0.095474
   8 H :    0.179616
   9 H :    0.110959
  10 H :    0.094958
  11 H :    0.098938

  Mayer bond orders larger than 0.1
B(  6-C ,  7-O ) :   0.9993 B(  6-C ,  9-H ) :   0.9731 B(  6-C , 10-H ) :   0.9782
B(  6-C , 11-H ) :   0.9694 B(  7-O ,  8-H ) :   0.8988

Dispersion correction           -0.000250367
FINAL SINGLE POINT ENERGY      -115.735742687884

DIPOLE MOMENT
-------------
                                X             Y             Z
Electronic contribution:     -1.73705       0.53041       0.35136
Nuclear contribution   :      2.20979      -0.79754       0.08380
                        -----------------------------------------
Total Dipole Moment    :      0.47274      -0.26713       0.43516
                        -----------------------------------------
Magnitude (a.u.)       :      0.69585
Magnitude (Debye)      :      1.76871

Rotational constants in cm-1:     4.134439     0.815157     0.787603
Rotational constants in MHz : 123947.368587 24437.800174 23611.735541

                             ****ORCA TERMINATED NORMALLY****
TOTAL RUN TIME: 0 days 0 hours 1 minutes 1 seconds 516 msec
