                         Program Version 4.1.2  - RELEASE  -
|  1> #Run DFT-D3 single point of the dimer
|  2> ! wB97X-D3 def2-TZVP TIGHTSCF CHELPG PMODEL PAL8
|  3>
|  4> %base "6-69_DFT_AB"
|  5>
|  6> %scf
|  7> MaxIter 1000
|  8> end
|  9>
| 10> * xyz 0 1
| 11>   C                      -3.007502            9.442801             -7.537317
| 12>   O                      -3.771246            10.636848            -7.389227
| 13>   H                      -4.466168            10.347383            -6.812460
| 14>   H                      -3.662800            8.684267             -8.136335
| 15>   H                      -2.027431            9.581203             -7.950742
| 16>   H                      -2.782450            9.003005             -6.589918
| 17>   C                      1.269044             6.967743             -6.334853
| 18>   O                      1.387408             7.236289             -4.920254
| 19>   H                      1.049466             6.443220             -4.459522
| 20>   H                      0.605911             7.768005             -6.774295
| 21>   H                      2.241812             6.927588             -6.809644
| 22>   H                      0.710745             6.074214             -6.590110
| 23> *
| 24>
| 25> #Run DFT-D3 single point of the molecule with dimer basis set
| 26> $new_job
| 27> %base "6-69_DFT_A"
| 28> ! wB97X-D3 def2-TZVP TIGHTSCF CHELPG PMODEL
| 29>
| 30> %scf
| 31> MaxIter 1000
| 32> end
| 33>
| 34> * xyz 0 1
| 35>   C                      -3.007502            9.442801             -7.537317
| 36>   O                      -3.771246            10.636848            -7.389227
| 37>   H                      -4.466168            10.347383            -6.812460
| 38>   H                      -3.662800            8.684267             -8.136335
| 39>   H                      -2.027431            9.581203             -7.950742
| 40>   H                      -2.782450            9.003005             -6.589918
| 41>   C                    : 1.269044             6.967743             -6.334853
| 42>   O                    : 1.387408             7.236289             -4.920254
| 43>   H                    : 1.049466             6.443220             -4.459522
| 44>   H                    : 0.605911             7.768005             -6.774295
| 45>   H                    : 2.241812             6.927588             -6.809644
| 46>   H                    : 0.710745             6.074214             -6.590110
| 47> *
| 48>
| 49> #Run DFT-D3 single point of the particle with dimer basis set
| 50> $new_job
| 51> %base "6-69_DFT_B"
| 52> ! wB97X-D3 def2-TZVP TIGHTSCF CHELPG PMODEL
| 53>
| 54> %scf
| 55> MaxIter 1000
| 56> end
| 57>
| 58> * xyz 0 1
| 59>   C                    : -3.007502            9.442801             -7.537317
| 60>   O                    : -3.771246            10.636848            -7.389227
| 61>   H                    : -4.466168            10.347383            -6.812460
| 62>   H                    : -3.662800            8.684267             -8.136335
| 63>   H                    : -2.027431            9.581203             -7.950742
| 64>   H                    : -2.782450            9.003005             -6.589918
| 65>   C                      1.269044             6.967743             -6.334853
| 66>   O                      1.387408             7.236289             -4.920254
| 67>   H                      1.049466             6.443220             -4.459522
| 68>   H                      0.605911             7.768005             -6.774295
| 69>   H                      2.241812             6.927588             -6.809644
| 70>   H                      0.710745             6.074214             -6.590110
| 71> *
| 72>
| 73>                          ****END OF INPUT****
 Total Charge           Charge          ....    0
 Multiplicity           Mult            ....    1
 Number of Electrons    NEL             ....   36
Dispersion correction           -0.000820005
FINAL SINGLE POINT ENERGY      -231.461544854332
Dispersion correction           -0.000226279
FINAL SINGLE POINT ENERGY      -115.729026099188

CARTESIAN COORDINATES (ANGSTROEM)
---------------------------------
  C     -3.007502    9.442801   -7.537317
  O     -3.771246   10.636848   -7.389227
  H     -4.466168   10.347383   -6.812460
  H     -3.662800    8.684267   -8.136335
  H     -2.027431    9.581203   -7.950742
  H     -2.782450    9.003005   -6.589918
  C      1.269044    6.967743   -6.334853
  O      1.387408    7.236289   -4.920254
  H      1.049466    6.443220   -4.459522
  H      0.605911    7.768005   -6.774295
  H      2.241812    6.927588   -6.809644
  H      0.710745    6.074214   -6.590110

 Multiplicity           Mult            ....    1
 Number of Electrons    NEL             ....   18
 Basis Dimension        Dim             ....  172

ORBITAL ENERGIES
----------------

  NO   OCC          E(Eh)            E(eV)
   0   2.0000     -19.231990      -523.3290
   1   2.0000     -10.316244      -280.7193
   2   2.0000      -1.124379       -30.5959
   3   2.0000      -0.793813       -21.6007
   4   2.0000      -0.605864       -16.4864
   5   2.0000      -0.543080       -14.7779
   6   2.0000      -0.512120       -13.9355
   7   2.0000      -0.436330       -11.8731
   8   2.0000      -0.374908       -10.2018
   9   0.0000       0.084833         2.3084
  10   0.0000       0.113232         3.0812
  11   0.0000       0.142796         3.8857
  12   0.0000       0.170297         4.6340
  13   0.0000       0.188435         5.1276

MULLIKEN ATOMIC CHARGES
-----------------------
   0 C :   -0.000358
   1 O :    0.000007
   2 H :    0.000001
   3 H :    0.000030
   4 H :   -0.000068
   5 H :    0.000284
   6 C :   -0.187414
   7 O :   -0.474623
   8 H :    0.316757
   9 H :    0.113883
  10 H :    0.118265
  11 H :    0.113236
Sum of atomic charges:   -0.0000000

LOEWDIN ATOMIC CHARGES
----------------------
   0 C :   -0.000355
   1 O :   -0.000003
   2 H :   -0.000001
   3 H :   -0.000002
   4 H :   -0.000363
   5 H :   -0.000069
   6 C :   -0.371340
   7 O :   -0.107897
   8 H :    0.177312
   9 H :    0.109838
  10 H :    0.098131
  11 H :    0.094748

  Mayer bond orders larger than 0.1
B(  6-C ,  7-O ) :   1.0050 B(  6-C ,  9-H ) :   0.9751 B(  6-C , 10-H ) :   0.9719
B(  6-C , 11-H ) :   0.9776 B(  7-O ,  8-H ) :   0.8997

Dispersion correction           -0.000265682
FINAL SINGLE POINT ENERGY      -115.732303120161

DIPOLE MOMENT
-------------
                                X             Y             Z
Electronic contribution:      0.32361       0.40003       1.78029
Nuclear contribution   :     -0.60471      -1.04050      -2.06162
                        -----------------------------------------
Total Dipole Moment    :     -0.28109      -0.64046      -0.28133
                        -----------------------------------------
Magnitude (a.u.)       :      0.75389
Magnitude (Debye)      :      1.91623

Rotational constants in cm-1:     4.233921     0.796335     0.776267
Rotational constants in MHz : 126929.747793 23873.529901 23271.907798

                             ****ORCA TERMINATED NORMALLY****
TOTAL RUN TIME: 0 days 0 hours 1 minutes 4 seconds 638 msec
