                         Program Version 4.1.2  - RELEASE  -
|  1> #Run DFT-D3 single point of the dimer
|  2> ! wB97X-D3 def2-TZVP TIGHTSCF CHELPG PMODEL PAL8
|  3>
|  4> %base "1-96_DFT_AB"
|  5>
|  6> %scf
|  7> MaxIter 1000
|  8> end
|  9>
| 10> * xyz 0 1
| 11>   C                      -6.076476            10.396994            8.572423
| 12>   O                      -4.913337            11.136352            8.302519
| 13>   H                      -4.968444            12.080275            8.375493
| 14>   H                      -6.294389            9.678972             7.724420
| 15>   H                      -6.081936            9.823034             9.605426
| 16>   H                      -6.905947            11.125597            8.466702
| 17>   C                      -5.980613            7.120034             8.240921
| 18>   O                      -6.503045            7.926275             9.288026
| 19>   H                      -5.881209            8.004546             9.989049
| 20>   H                      -6.668404            6.970982             7.350147
| 21>   H                      -5.030610            7.453998             7.889338
| 22>   H                      -5.813076            6.068493             8.513422
| 23> *
| 24>
| 25> #Run DFT-D3 single point of the molecule with dimer basis set
| 26> $new_job
| 27> %base "1-96_DFT_A"
| 28> ! wB97X-D3 def2-TZVP TIGHTSCF CHELPG PMODEL
| 29>
| 30> %scf
| 31> MaxIter 1000
| 32> end
| 33>
| 34> * xyz 0 1
| 35>   C                      -6.076476            10.396994            8.572423
| 36>   O                      -4.913337            11.136352            8.302519
| 37>   H                      -4.968444            12.080275            8.375493
| 38>   H                      -6.294389            9.678972             7.724420
| 39>   H                      -6.081936            9.823034             9.605426
| 40>   H                      -6.905947            11.125597            8.466702
| 41>   C                    : -5.980613            7.120034             8.240921
| 42>   O                    : -6.503045            7.926275             9.288026
| 43>   H                    : -5.881209            8.004546             9.989049
| 44>   H                    : -6.668404            6.970982             7.350147
| 45>   H                    : -5.030610            7.453998             7.889338
| 46>   H                    : -5.813076            6.068493             8.513422
| 47> *
| 48>
| 49> #Run DFT-D3 single point of the particle with dimer basis set
| 50> $new_job
| 51> %base "1-96_DFT_B"
| 52> ! wB97X-D3 def2-TZVP TIGHTSCF CHELPG PMODEL
| 53>
| 54> %scf
| 55> MaxIter 1000
| 56> end
| 57>
| 58> * xyz 0 1
| 59>   C                    : -6.076476            10.396994            8.572423
| 60>   O                    : -4.913337            11.136352            8.302519
| 61>   H                    : -4.968444            12.080275            8.375493
| 62>   H                    : -6.294389            9.678972             7.724420
| 63>   H                    : -6.081936            9.823034             9.605426
| 64>   H                    : -6.905947            11.125597            8.466702
| 65>   C                      -5.980613            7.120034             8.240921
| 66>   O                      -6.503045            7.926275             9.288026
| 67>   H                      -5.881209            8.004546             9.989049
| 68>   H                      -6.668404            6.970982             7.350147
| 69>   H                      -5.030610            7.453998             7.889338
| 70>   H                      -5.813076            6.068493             8.513422
| 71> *
| 72>
| 73>                          ****END OF INPUT****
 Total Charge           Charge          ....    0
 Multiplicity           Mult            ....    1
 Number of Electrons    NEL             ....   36
Dispersion correction           -0.001991462
FINAL SINGLE POINT ENERGY      -231.442752749885
Dispersion correction           -0.000271579
FINAL SINGLE POINT ENERGY      -115.725031503518

CARTESIAN COORDINATES (ANGSTROEM)
---------------------------------
  C     -6.076476   10.396994    8.572423
  O     -4.913337   11.136352    8.302519
  H     -4.968444   12.080275    8.375493
  H     -6.294389    9.678972    7.724420
  H     -6.081936    9.823034    9.605426
  H     -6.905947   11.125597    8.466702
  C     -5.980613    7.120034    8.240921
  O     -6.503045    7.926275    9.288026
  H     -5.881209    8.004546    9.989049
  H     -6.668404    6.970982    7.350147
  H     -5.030610    7.453998    7.889338
  H     -5.813076    6.068493    8.513422

 Multiplicity           Mult            ....    1
 Number of Electrons    NEL             ....   18
 Basis Dimension        Dim             ....  172

ORBITAL ENERGIES
----------------

  NO   OCC          E(Eh)            E(eV)
   0   2.0000     -19.233418      -523.3679
   1   2.0000     -10.317598      -280.7561
   2   2.0000      -1.139044       -30.9950
   3   2.0000      -0.800830       -21.7917
   4   2.0000      -0.618715       -16.8361
   5   2.0000      -0.542137       -14.7523
   6   2.0000      -0.522430       -14.2161
   7   2.0000      -0.432041       -11.7564
   8   2.0000      -0.376488       -10.2448
   9   0.0000       0.095246         2.5918
  10   0.0000       0.132262         3.5990
  11   0.0000       0.144269         3.9258
  12   0.0000       0.184101         5.0097
  13   0.0000       0.199915         5.4400

MULLIKEN ATOMIC CHARGES
-----------------------
   0 C :    0.007252
   1 O :    0.000071
   2 H :    0.000022
   3 H :    0.002184
   4 H :   -0.022540
   5 H :   -0.004364
   6 C :   -0.173736
   7 O :   -0.462157
   8 H :    0.316068
   9 H :    0.122098
  10 H :    0.107376
  11 H :    0.107726
Sum of atomic charges:   -0.0000000

LOEWDIN ATOMIC CHARGES
----------------------
   0 C :   -0.046693
   1 O :   -0.000221
   2 H :   -0.000083
   3 H :   -0.010420
   4 H :   -0.032239
   5 H :   -0.001089
   6 C :   -0.377943
   7 O :   -0.002509
   8 H :    0.163974
   9 H :    0.120160
  10 H :    0.090246
  11 H :    0.096817

  Mayer bond orders larger than 0.1
B(  6-C ,  7-O ) :   0.9887 B(  6-C ,  9-H ) :   0.9742 B(  6-C , 10-H ) :   0.9783
B(  6-C , 11-H ) :   0.9732 B(  7-O ,  8-H ) :   0.8971

Dispersion correction           -0.000265396
FINAL SINGLE POINT ENERGY      -115.731814332559

DIPOLE MOMENT
-------------
                                X             Y             Z
Electronic contribution:     -0.78910       1.18366       1.34001
Nuclear contribution   :      1.40878      -1.49009      -1.31637
                        -----------------------------------------
Total Dipole Moment    :      0.61967      -0.30642       0.02364
                        -----------------------------------------
Magnitude (a.u.)       :      0.69170
Magnitude (Debye)      :      1.75817

Rotational constants in cm-1:     4.517753     0.808193     0.777623
Rotational constants in MHz : 135438.825187 24229.026054 23312.548466

                             ****ORCA TERMINATED NORMALLY****
TOTAL RUN TIME: 0 days 0 hours 5 minutes 12 seconds 985 msec
