                         Program Version 4.1.2  - RELEASE  -
|  1> #Run DFT-D3 single point of the dimer
|  2> ! wB97X-D3 def2-TZVP TIGHTSCF CHELPG PMODEL PAL8
|  3>
|  4> %base "9-115_DFT_AB"
|  5>
|  6> %scf
|  7> MaxIter 1000
|  8> end
|  9>
| 10> * xyz 0 1
| 11>   C                      5.356239             0.575091             7.861730
| 12>   O                      5.092971             1.322461             6.696982
| 13>   H                      4.968646             0.716571             5.949532
| 14>   H                      5.774221             1.189268             8.691426
| 15>   H                      4.499093             0.072589             8.225889
| 16>   H                      6.158912             -0.140826            7.547524
| 17>   C                      5.169951             -2.392256            4.426165
| 18>   O                      5.050276             -1.626652            5.567194
| 19>   H                      5.002982             -2.195026            6.310976
| 20>   H                      4.576403             -3.364558            4.442787
| 21>   H                      4.923934             -1.717072            3.609020
| 22>   H                      6.212556             -2.725092            4.253027
| 23> *
| 24>
| 25> #Run DFT-D3 single point of the molecule with dimer basis set
| 26> $new_job
| 27> %base "9-115_DFT_A"
| 28> ! wB97X-D3 def2-TZVP TIGHTSCF CHELPG PMODEL
| 29>
| 30> %scf
| 31> MaxIter 1000
| 32> end
| 33>
| 34> * xyz 0 1
| 35>   C                      5.356239             0.575091             7.861730
| 36>   O                      5.092971             1.322461             6.696982
| 37>   H                      4.968646             0.716571             5.949532
| 38>   H                      5.774221             1.189268             8.691426
| 39>   H                      4.499093             0.072589             8.225889
| 40>   H                      6.158912             -0.140826            7.547524
| 41>   C                    : 5.169951             -2.392256            4.426165
| 42>   O                    : 5.050276             -1.626652            5.567194
| 43>   H                    : 5.002982             -2.195026            6.310976
| 44>   H                    : 4.576403             -3.364558            4.442787
| 45>   H                    : 4.923934             -1.717072            3.609020
| 46>   H                    : 6.212556             -2.725092            4.253027
| 47> *
| 48>
| 49> #Run DFT-D3 single point of the particle with dimer basis set
| 50> $new_job
| 51> %base "9-115_DFT_B"
| 52> ! wB97X-D3 def2-TZVP TIGHTSCF CHELPG PMODEL
| 53>
| 54> %scf
| 55> MaxIter 1000
| 56> end
| 57>
| 58> * xyz 0 1
| 59>   C                    : 5.356239             0.575091             7.861730
| 60>   O                    : 5.092971             1.322461             6.696982
| 61>   H                    : 4.968646             0.716571             5.949532
| 62>   H                    : 5.774221             1.189268             8.691426
| 63>   H                    : 4.499093             0.072589             8.225889
| 64>   H                    : 6.158912             -0.140826            7.547524
| 65>   C                      5.169951             -2.392256            4.426165
| 66>   O                      5.050276             -1.626652            5.567194
| 67>   H                      5.002982             -2.195026            6.310976
| 68>   H                      4.576403             -3.364558            4.442787
| 69>   H                      4.923934             -1.717072            3.609020
| 70>   H                      6.212556             -2.725092            4.253027
| 71> *
| 72>
| 73>                          ****END OF INPUT****
 Total Charge           Charge          ....    0
 Multiplicity           Mult            ....    1
 Number of Electrons    NEL             ....   36
Dispersion correction           -0.001865293
FINAL SINGLE POINT ENERGY      -231.471952989837
Dispersion correction           -0.000228374
FINAL SINGLE POINT ENERGY      -115.732406663648

CARTESIAN COORDINATES (ANGSTROEM)
---------------------------------
  C      5.356239    0.575091    7.861730
  O      5.092971    1.322461    6.696982
  H      4.968646    0.716571    5.949532
  H      5.774221    1.189268    8.691426
  H      4.499093    0.072589    8.225889
  H      6.158912   -0.140826    7.547524
  C      5.169951   -2.392256    4.426165
  O      5.050276   -1.626652    5.567194
  H      5.002982   -2.195026    6.310976
  H      4.576403   -3.364558    4.442787
  H      4.923934   -1.717072    3.609020
  H      6.212556   -2.725092    4.253027

 Multiplicity           Mult            ....    1
 Number of Electrons    NEL             ....   18
 Basis Dimension        Dim             ....  172

ORBITAL ENERGIES
----------------

  NO   OCC          E(Eh)            E(eV)
   0   2.0000     -19.230413      -523.2861
   1   2.0000     -10.316056      -280.7141
   2   2.0000      -1.153382       -31.3851
   3   2.0000      -0.794298       -21.6140
   4   2.0000      -0.622951       -16.9514
   5   2.0000      -0.536363       -14.5952
   6   2.0000      -0.532539       -14.4911
   7   2.0000      -0.438335       -11.9277
   8   2.0000      -0.369695       -10.0599
   9   0.0000       0.096219         2.6182
  10   0.0000       0.127665         3.4740
  11   0.0000       0.158371         4.3095
  12   0.0000       0.177025         4.8171
  13   0.0000       0.196224         5.3395

MULLIKEN ATOMIC CHARGES
-----------------------
   0 C :    0.008793
   1 O :    0.000550
   2 H :   -0.008520
   3 H :   -0.000343
   4 H :   -0.001917
   5 H :   -0.010871
   6 C :   -0.155120
   7 O :   -0.447509
   8 H :    0.311249
   9 H :    0.094404
  10 H :    0.120194
  11 H :    0.089089
Sum of atomic charges:    0.0000000

LOEWDIN ATOMIC CHARGES
----------------------
   0 C :   -0.009913
   1 O :   -0.001902
   2 H :   -0.015067
   3 H :   -0.000082
   4 H :   -0.000892
   5 H :   -0.006371
   6 C :   -0.413218
   7 O :   -0.014072
   8 H :    0.158728
   9 H :    0.101460
  10 H :    0.108878
  11 H :    0.092450

  Mayer bond orders larger than 0.1
B(  6-C ,  7-O ) :   1.0063 B(  6-C ,  9-H ) :   0.9718 B(  6-C , 10-H ) :   0.9791
B(  6-C , 11-H ) :   0.9709 B(  7-O ,  8-H ) :   0.9001

Dispersion correction           -0.000236864
FINAL SINGLE POINT ENERGY      -115.733545212457

DIPOLE MOMENT
-------------
                                X             Y             Z
Electronic contribution:     -0.24192       1.13087       1.43729
Nuclear contribution   :      0.25292      -1.78359      -1.38275
                        -----------------------------------------
Total Dipole Moment    :      0.01101      -0.65272       0.05453
                        -----------------------------------------
Magnitude (a.u.)       :      0.65509
Magnitude (Debye)      :      1.66510

Rotational constants in cm-1:     4.223145     0.868996     0.827108
Rotational constants in MHz : 126606.706400 26051.850895 24796.070069

                             ****ORCA TERMINATED NORMALLY****
TOTAL RUN TIME: 0 days 0 hours 0 minutes 44 seconds 692 msec
