                         Program Version 4.1.2  - RELEASE  -
|  1> #Run DFT-D3 single point of the dimer
|  2> ! wB97X-D3 def2-TZVP TIGHTSCF CHELPG PMODEL PAL8
|  3>
|  4> %base "22-71_DFT_AB"
|  5>
|  6> %scf
|  7> MaxIter 1000
|  8> end
|  9>
| 10> * xyz 0 1
| 11>   C                      7.094991             -5.874388            4.295036
| 12>   O                      6.607568             -5.115187            5.413430
| 13>   H                      6.014298             -4.411971            5.145993
| 14>   H                      6.600203             -5.667700            3.315345
| 15>   H                      8.165961             -5.827261            4.147364
| 16>   H                      6.868536             -6.907309            4.499651
| 17>   C                      7.148077             -7.752195            8.188968
| 18>   O                      6.974085             -9.149295            8.110165
| 19>   H                      7.055262             -9.576542            8.964009
| 20>   H                      7.780428             -7.411630            9.046322
| 21>   H                      7.515093             -7.258575            7.280566
| 22>   H                      6.182418             -7.323001            8.387612
| 23> *
| 24>
| 25> #Run DFT-D3 single point of the molecule with dimer basis set
| 26> $new_job
| 27> %base "22-71_DFT_A"
| 28> ! wB97X-D3 def2-TZVP TIGHTSCF CHELPG PMODEL
| 29>
| 30> %scf
| 31> MaxIter 1000
| 32> end
| 33>
| 34> * xyz 0 1
| 35>   C                      7.094991             -5.874388            4.295036
| 36>   O                      6.607568             -5.115187            5.413430
| 37>   H                      6.014298             -4.411971            5.145993
| 38>   H                      6.600203             -5.667700            3.315345
| 39>   H                      8.165961             -5.827261            4.147364
| 40>   H                      6.868536             -6.907309            4.499651
| 41>   C                    : 7.148077             -7.752195            8.188968
| 42>   O                    : 6.974085             -9.149295            8.110165
| 43>   H                    : 7.055262             -9.576542            8.964009
| 44>   H                    : 7.780428             -7.411630            9.046322
| 45>   H                    : 7.515093             -7.258575            7.280566
| 46>   H                    : 6.182418             -7.323001            8.387612
| 47> *
| 48>
| 49> #Run DFT-D3 single point of the particle with dimer basis set
| 50> $new_job
| 51> %base "22-71_DFT_B"
| 52> ! wB97X-D3 def2-TZVP TIGHTSCF CHELPG PMODEL
| 53>
| 54> %scf
| 55> MaxIter 1000
| 56> end
| 57>
| 58> * xyz 0 1
| 59>   C                    : 7.094991             -5.874388            4.295036
| 60>   O                    : 6.607568             -5.115187            5.413430
| 61>   H                    : 6.014298             -4.411971            5.145993
| 62>   H                    : 6.600203             -5.667700            3.315345
| 63>   H                    : 8.165961             -5.827261            4.147364
| 64>   H                    : 6.868536             -6.907309            4.499651
| 65>   C                      7.148077             -7.752195            8.188968
| 66>   O                      6.974085             -9.149295            8.110165
| 67>   H                      7.055262             -9.576542            8.964009
| 68>   H                      7.780428             -7.411630            9.046322
| 69>   H                      7.515093             -7.258575            7.280566
| 70>   H                      6.182418             -7.323001            8.387612
| 71> *
| 72>
| 73>                          ****END OF INPUT****
 Total Charge           Charge          ....    0
 Multiplicity           Mult            ....    1
 Number of Electrons    NEL             ....   36
Dispersion correction           -0.001401779
FINAL SINGLE POINT ENERGY      -231.467215542888
Dispersion correction           -0.000278292
FINAL SINGLE POINT ENERGY      -115.733171379505

CARTESIAN COORDINATES (ANGSTROEM)
---------------------------------
  C      7.094991   -5.874388    4.295036
  O      6.607568   -5.115187    5.413430
  H      6.014298   -4.411971    5.145993
  H      6.600203   -5.667700    3.315345
  H      8.165961   -5.827261    4.147364
  H      6.868536   -6.907309    4.499651
  C      7.148077   -7.752195    8.188968
  O      6.974085   -9.149295    8.110165
  H      7.055262   -9.576542    8.964009
  H      7.780428   -7.411630    9.046322
  H      7.515093   -7.258575    7.280566
  H      6.182418   -7.323001    8.387612

 Multiplicity           Mult            ....    1
 Number of Electrons    NEL             ....   18
 Basis Dimension        Dim             ....  172

ORBITAL ENERGIES
----------------

  NO   OCC          E(Eh)            E(eV)
   0   2.0000     -19.228704      -523.2396
   1   2.0000     -10.313888      -280.6552
   2   2.0000      -1.134876       -30.8816
   3   2.0000      -0.797760       -21.7082
   4   2.0000      -0.613707       -16.6998
   5   2.0000      -0.537902       -14.6371
   6   2.0000      -0.530462       -14.4346
   7   2.0000      -0.429123       -11.6770
   8   2.0000      -0.370027       -10.0690
   9   0.0000       0.085700         2.3320
  10   0.0000       0.116235         3.1629
  11   0.0000       0.152883         4.1602
  12   0.0000       0.163073         4.4374
  13   0.0000       0.192131         5.2282

MULLIKEN ATOMIC CHARGES
-----------------------
   0 C :   -0.000297
   1 O :   -0.000067
   2 H :   -0.000022
   3 H :    0.000053
   4 H :   -0.000192
   5 H :    0.000821
   6 C :   -0.167734
   7 O :   -0.480321
   8 H :    0.319883
   9 H :    0.102305
  10 H :    0.121286
  11 H :    0.104285
Sum of atomic charges:   -0.0000000

LOEWDIN ATOMIC CHARGES
----------------------
   0 C :   -0.002312
   1 O :   -0.000859
   2 H :   -0.000047
   3 H :   -0.000021
   4 H :   -0.000115
   5 H :   -0.000691
   6 C :   -0.389445
   7 O :   -0.075038
   8 H :    0.168453
   9 H :    0.099728
  10 H :    0.107778
  11 H :    0.092569

  Mayer bond orders larger than 0.1
B(  6-C ,  7-O ) :   1.0010 B(  6-C ,  9-H ) :   0.9779 B(  6-C , 10-H ) :   0.9682
B(  6-C , 11-H ) :   0.9840 B(  7-O ,  8-H ) :   0.8943

Dispersion correction           -0.000255539
FINAL SINGLE POINT ENERGY      -115.732316518584

DIPOLE MOMENT
-------------
                                X             Y             Z
Electronic contribution:     -0.16002      -1.86017      -0.30771
Nuclear contribution   :      0.27629       2.14771       0.90332
                        -----------------------------------------
Total Dipole Moment    :      0.11627       0.28753       0.59561
                        -----------------------------------------
Magnitude (a.u.)       :      0.67153
Magnitude (Debye)      :      1.70689

Rotational constants in cm-1:     4.436639     0.824765     0.791161
Rotational constants in MHz : 133007.097974 24725.837941 23718.423236

                             ****ORCA TERMINATED NORMALLY****
TOTAL RUN TIME: 0 days 0 hours 0 minutes 55 seconds 423 msec
