                         Program Version 4.1.2  - RELEASE  -
|  1> #Run DFT-D3 single point of the dimer
|  2> ! wB97X-D3 def2-TZVP TIGHTSCF CHELPG PMODEL PAL8
|  3>
|  4> %base "9-24_DFT_AB"
|  5>
|  6> %scf
|  7> MaxIter 1000
|  8> end
|  9>
| 10> * xyz 0 1
| 11>   C                      1.487376             -0.428665            4.266690
| 12>   O                      2.630056             -0.194025            5.057445
| 13>   H                      2.762876             -0.876611            5.745413
| 14>   H                      1.308714             0.285588             3.519412
| 15>   H                      1.633911             -1.323911            3.744331
| 16>   H                      0.553844             -0.624710            4.835763
| 17>   C                      3.132644             3.222198             4.076111
| 18>   O                      3.585129             2.151059             3.263239
| 19>   H                      3.399874             1.306535             3.659591
| 20>   H                      3.644355             4.164192             3.816641
| 21>   H                      2.066095             3.216518             4.075413
| 22>   H                      3.409220             3.129167             5.137535
| 23> *
| 24>
| 25> #Run DFT-D3 single point of the molecule with dimer basis set
| 26> $new_job
| 27> %base "9-24_DFT_A"
| 28> ! wB97X-D3 def2-TZVP TIGHTSCF CHELPG PMODEL
| 29>
| 30> %scf
| 31> MaxIter 1000
| 32> end
| 33>
| 34> * xyz 0 1
| 35>   C                      1.487376             -0.428665            4.266690
| 36>   O                      2.630056             -0.194025            5.057445
| 37>   H                      2.762876             -0.876611            5.745413
| 38>   H                      1.308714             0.285588             3.519412
| 39>   H                      1.633911             -1.323911            3.744331
| 40>   H                      0.553844             -0.624710            4.835763
| 41>   C                    : 3.132644             3.222198             4.076111
| 42>   O                    : 3.585129             2.151059             3.263239
| 43>   H                    : 3.399874             1.306535             3.659591
| 44>   H                    : 3.644355             4.164192             3.816641
| 45>   H                    : 2.066095             3.216518             4.075413
| 46>   H                    : 3.409220             3.129167             5.137535
| 47> *
| 48>
| 49> #Run DFT-D3 single point of the particle with dimer basis set
| 50> $new_job
| 51> %base "9-24_DFT_B"
| 52> ! wB97X-D3 def2-TZVP TIGHTSCF CHELPG PMODEL
| 53>
| 54> %scf
| 55> MaxIter 1000
| 56> end
| 57>
| 58> * xyz 0 1
| 59>   C                    : 1.487376             -0.428665            4.266690
| 60>   O                    : 2.630056             -0.194025            5.057445
| 61>   H                    : 2.762876             -0.876611            5.745413
| 62>   H                    : 1.308714             0.285588             3.519412
| 63>   H                    : 1.633911             -1.323911            3.744331
| 64>   H                    : 0.553844             -0.624710            4.835763
| 65>   C                      3.132644             3.222198             4.076111
| 66>   O                      3.585129             2.151059             3.263239
| 67>   H                      3.399874             1.306535             3.659591
| 68>   H                      3.644355             4.164192             3.816641
| 69>   H                      2.066095             3.216518             4.075413
| 70>   H                      3.409220             3.129167             5.137535
| 71> *
| 72>
| 73>                          ****END OF INPUT****
 Total Charge           Charge          ....    0
 Multiplicity           Mult            ....    1
 Number of Electrons    NEL             ....   36
Dispersion correction           -0.001976739
FINAL SINGLE POINT ENERGY      -231.468946760932
Dispersion correction           -0.000243512
FINAL SINGLE POINT ENERGY      -115.729798708675

CARTESIAN COORDINATES (ANGSTROEM)
---------------------------------
  C      1.487376   -0.428665    4.266690
  O      2.630056   -0.194025    5.057445
  H      2.762876   -0.876611    5.745413
  H      1.308714    0.285588    3.519412
  H      1.633911   -1.323911    3.744331
  H      0.553844   -0.624710    4.835763
  C      3.132644    3.222198    4.076111
  O      3.585129    2.151059    3.263239
  H      3.399874    1.306535    3.659591
  H      3.644355    4.164192    3.816641
  H      2.066095    3.216518    4.075413
  H      3.409220    3.129167    5.137535

 Multiplicity           Mult            ....    1
 Number of Electrons    NEL             ....   18
 Basis Dimension        Dim             ....  172

ORBITAL ENERGIES
----------------

  NO   OCC          E(Eh)            E(eV)
   0   2.0000     -19.228439      -523.2324
   1   2.0000     -10.313206      -280.6366
   2   2.0000      -1.134273       -30.8651
   3   2.0000      -0.799709       -21.7612
   4   2.0000      -0.614103       -16.7106
   5   2.0000      -0.553118       -15.0511
   6   2.0000      -0.516655       -14.0589
   7   2.0000      -0.429697       -11.6926
   8   2.0000      -0.373748       -10.1702
   9   0.0000       0.070596         1.9210
  10   0.0000       0.138390         3.7658
  11   0.0000       0.149506         4.0683
  12   0.0000       0.156473         4.2578
  13   0.0000       0.191816         5.2196

MULLIKEN ATOMIC CHARGES
-----------------------
   0 C :   -0.001595
   1 O :   -0.002215
   2 H :   -0.000169
   3 H :   -0.006351
   4 H :    0.000143
   5 H :   -0.000222
   6 C :   -0.165643
   7 O :   -0.477979
   8 H :    0.315837
   9 H :    0.126686
  10 H :    0.111459
  11 H :    0.100048
Sum of atomic charges:   -0.0000000

LOEWDIN ATOMIC CHARGES
----------------------
   0 C :   -0.008550
   1 O :   -0.009509
   2 H :   -0.000380
   3 H :   -0.004208
   4 H :   -0.000152
   5 H :   -0.000099
   6 C :   -0.377969
   7 O :   -0.066003
   8 H :    0.165792
   9 H :    0.113562
  10 H :    0.091380
  11 H :    0.096137

  Mayer bond orders larger than 0.1
B(  6-C ,  7-O ) :   0.9844 B(  6-C ,  9-H ) :   0.9723 B(  6-C , 10-H ) :   0.9775
B(  6-C , 11-H ) :   0.9784 B(  7-O ,  8-H ) :   0.9056

Dispersion correction           -0.000244959
FINAL SINGLE POINT ENERGY      -115.732677559105

DIPOLE MOMENT
-------------
                                X             Y             Z
Electronic contribution:      0.56801      -1.21914      -1.22237
Nuclear contribution   :     -0.85355       1.12016       1.83247
                        -----------------------------------------
Total Dipole Moment    :     -0.28554      -0.09898       0.61010
                        -----------------------------------------
Magnitude (a.u.)       :      0.68085
Magnitude (Debye)      :      1.73057

Rotational constants in cm-1:     4.403227     0.822972     0.792894
Rotational constants in MHz : 132005.412269 24672.094070 23770.375770

                             ****ORCA TERMINATED NORMALLY****
TOTAL RUN TIME: 0 days 0 hours 0 minutes 45 seconds 115 msec
