                         Program Version 4.1.2  - RELEASE  -
|  1> #Run DFT-D3 single point of the dimer
|  2> ! wB97X-D3 def2-TZVP TIGHTSCF CHELPG PMODEL PAL8
|  3>
|  4> %base "14-89_DFT_AB"
|  5>
|  6> %scf
|  7> MaxIter 1000
|  8> end
|  9>
| 10> * xyz 0 1
| 11>   C                      -4.858137            8.794378             -2.162719
| 12>   O                      -5.057893            9.023676             -0.762485
| 13>   H                      -4.277961            8.800261             -0.211867
| 14>   H                      -5.459045            7.976104             -2.597022
| 15>   H                      -5.076426            9.725379             -2.688449
| 16>   H                      -3.806476            8.543483             -2.442663
| 17>   C                      -1.521282            8.378259             0.163022
| 18>   O                      -2.421336            9.431542             0.150481
| 19>   H                      -1.883897            10.233263            0.253102
| 20>   H                      -1.853481            7.437224             -0.294332
| 21>   H                      -0.586889            8.693211             -0.294536
| 22>   H                      -1.280802            8.185077             1.218650
| 23> *
| 24>
| 25> #Run DFT-D3 single point of the molecule with dimer basis set
| 26> $new_job
| 27> %base "14-89_DFT_A"
| 28> ! wB97X-D3 def2-TZVP TIGHTSCF CHELPG PMODEL
| 29>
| 30> %scf
| 31> MaxIter 1000
| 32> end
| 33>
| 34> * xyz 0 1
| 35>   C                      -4.858137            8.794378             -2.162719
| 36>   O                      -5.057893            9.023676             -0.762485
| 37>   H                      -4.277961            8.800261             -0.211867
| 38>   H                      -5.459045            7.976104             -2.597022
| 39>   H                      -5.076426            9.725379             -2.688449
| 40>   H                      -3.806476            8.543483             -2.442663
| 41>   C                    : -1.521282            8.378259             0.163022
| 42>   O                    : -2.421336            9.431542             0.150481
| 43>   H                    : -1.883897            10.233263            0.253102
| 44>   H                    : -1.853481            7.437224             -0.294332
| 45>   H                    : -0.586889            8.693211             -0.294536
| 46>   H                    : -1.280802            8.185077             1.218650
| 47> *
| 48>
| 49> #Run DFT-D3 single point of the particle with dimer basis set
| 50> $new_job
| 51> %base "14-89_DFT_B"
| 52> ! wB97X-D3 def2-TZVP TIGHTSCF CHELPG PMODEL
| 53>
| 54> %scf
| 55> MaxIter 1000
| 56> end
| 57>
| 58> * xyz 0 1
| 59>   C                    : -4.858137            8.794378             -2.162719
| 60>   O                    : -5.057893            9.023676             -0.762485
| 61>   H                    : -4.277961            8.800261             -0.211867
| 62>   H                    : -5.459045            7.976104             -2.597022
| 63>   H                    : -5.076426            9.725379             -2.688449
| 64>   H                    : -3.806476            8.543483             -2.442663
| 65>   C                      -1.521282            8.378259             0.163022
| 66>   O                      -2.421336            9.431542             0.150481
| 67>   H                      -1.883897            10.233263            0.253102
| 68>   H                      -1.853481            7.437224             -0.294332
| 69>   H                      -0.586889            8.693211             -0.294536
| 70>   H                      -1.280802            8.185077             1.218650
| 71> *
| 72>
| 73>                          ****END OF INPUT****
 Total Charge           Charge          ....    0
 Multiplicity           Mult            ....    1
 Number of Electrons    NEL             ....   36
Dispersion correction           -0.001941958
FINAL SINGLE POINT ENERGY      -231.470334641970
Dispersion correction           -0.000282954
FINAL SINGLE POINT ENERGY      -115.733306783776

CARTESIAN COORDINATES (ANGSTROEM)
---------------------------------
  C     -4.858137    8.794378   -2.162719
  O     -5.057893    9.023676   -0.762485
  H     -4.277961    8.800261   -0.211867
  H     -5.459045    7.976104   -2.597022
  H     -5.076426    9.725379   -2.688449
  H     -3.806476    8.543483   -2.442663
  C     -1.521282    8.378259    0.163022
  O     -2.421336    9.431542    0.150481
  H     -1.883897   10.233263    0.253102
  H     -1.853481    7.437224   -0.294332
  H     -0.586889    8.693211   -0.294536
  H     -1.280802    8.185077    1.218650

 Multiplicity           Mult            ....    1
 Number of Electrons    NEL             ....   18
 Basis Dimension        Dim             ....  172

ORBITAL ENERGIES
----------------

  NO   OCC          E(Eh)            E(eV)
   0   2.0000     -19.230913      -523.2998
   1   2.0000     -10.310969      -280.5757
   2   2.0000      -1.145793       -31.1786
   3   2.0000      -0.791274       -21.5317
   4   2.0000      -0.616161       -16.7666
   5   2.0000      -0.543427       -14.7874
   6   2.0000      -0.536234       -14.5917
   7   2.0000      -0.433870       -11.8062
   8   2.0000      -0.367896       -10.0110
   9   0.0000       0.096618         2.6291
  10   0.0000       0.122689         3.3385
  11   0.0000       0.154121         4.1938
  12   0.0000       0.191988         5.2243
  13   0.0000       0.199598         5.4313

MULLIKEN ATOMIC CHARGES
-----------------------
   0 C :   -0.001513
   1 O :    0.004054
   2 H :   -0.011096
   3 H :   -0.000333
   4 H :   -0.000253
   5 H :   -0.002182
   6 C :   -0.157380
   7 O :   -0.455468
   8 H :    0.314540
   9 H :    0.118580
  10 H :    0.096297
  11 H :    0.094752
Sum of atomic charges:    0.0000000

LOEWDIN ATOMIC CHARGES
----------------------
   0 C :   -0.006145
   1 O :   -0.006776
   2 H :   -0.032045
   3 H :   -0.000096
   4 H :   -0.000162
   5 H :   -0.001874
   6 C :   -0.404374
   7 O :   -0.026690
   8 H :    0.180910
   9 H :    0.107849
  10 H :    0.093721
  11 H :    0.095681

  Mayer bond orders larger than 0.1
B(  6-C ,  7-O ) :   0.9836 B(  6-C ,  9-H ) :   0.9727 B(  6-C , 10-H ) :   0.9835
B(  6-C , 11-H ) :   0.9813 B(  7-O ,  8-H ) :   0.8955

Dispersion correction           -0.000212485
FINAL SINGLE POINT ENERGY      -115.732276044709

DIPOLE MOMENT
-------------
                                X             Y             Z
Electronic contribution:     -1.37564       1.22705      -0.15016
Nuclear contribution   :      2.07332      -1.11687       0.21258
                        -----------------------------------------
Total Dipole Moment    :      0.69768       0.11018       0.06242
                        -----------------------------------------
Magnitude (a.u.)       :      0.70908
Magnitude (Debye)      :      1.80234

Rotational constants in cm-1:     4.276887     0.864315     0.827526
Rotational constants in MHz : 128217.843738 25911.507489 24808.615491

                             ****ORCA TERMINATED NORMALLY****
TOTAL RUN TIME: 0 days 0 hours 1 minutes 12 seconds 66 msec
