                         Program Version 4.1.2  - RELEASE  -
|  1> #Run DFT-D3 single point of the dimer
|  2> ! wB97X-D3 def2-TZVP TIGHTSCF CHELPG PMODEL PAL8
|  3>
|  4> %base "21-68_DFT_AB"
|  5>
|  6> %scf
|  7> MaxIter 1000
|  8> end
|  9>
| 10> * xyz 0 1
| 11>   C                      11.474556            2.102910             -9.297509
| 12>   O                      10.307835            2.200152             -8.489772
| 13>   H                      9.766941             1.402733             -8.572671
| 14>   H                      11.357470            1.455794             -10.216754
| 15>   H                      11.682326            3.060955             -9.649247
| 16>   H                      12.259209            1.769761             -8.610688
| 17>   C                      11.631059            3.059737             -5.774985
| 18>   O                      10.905304            2.740194             -4.618997
| 19>   H                      10.421295            3.465015             -4.263803
| 20>   H                      12.212335            2.216138             -6.149784
| 21>   H                      10.839864            3.262608             -6.530480
| 22>   H                      12.263251            3.898941             -5.592891
| 23> *
| 24>
| 25> #Run DFT-D3 single point of the molecule with dimer basis set
| 26> $new_job
| 27> %base "21-68_DFT_A"
| 28> ! wB97X-D3 def2-TZVP TIGHTSCF CHELPG PMODEL
| 29>
| 30> %scf
| 31> MaxIter 1000
| 32> end
| 33>
| 34> * xyz 0 1
| 35>   C                      11.474556            2.102910             -9.297509
| 36>   O                      10.307835            2.200152             -8.489772
| 37>   H                      9.766941             1.402733             -8.572671
| 38>   H                      11.357470            1.455794             -10.216754
| 39>   H                      11.682326            3.060955             -9.649247
| 40>   H                      12.259209            1.769761             -8.610688
| 41>   C                    : 11.631059            3.059737             -5.774985
| 42>   O                    : 10.905304            2.740194             -4.618997
| 43>   H                    : 10.421295            3.465015             -4.263803
| 44>   H                    : 12.212335            2.216138             -6.149784
| 45>   H                    : 10.839864            3.262608             -6.530480
| 46>   H                    : 12.263251            3.898941             -5.592891
| 47> *
| 48>
| 49> #Run DFT-D3 single point of the particle with dimer basis set
| 50> $new_job
| 51> %base "21-68_DFT_B"
| 52> ! wB97X-D3 def2-TZVP TIGHTSCF CHELPG PMODEL
| 53>
| 54> %scf
| 55> MaxIter 1000
| 56> end
| 57>
| 58> * xyz 0 1
| 59>   C                    : 11.474556            2.102910             -9.297509
| 60>   O                    : 10.307835            2.200152             -8.489772
| 61>   H                    : 9.766941             1.402733             -8.572671
| 62>   H                    : 11.357470            1.455794             -10.216754
| 63>   H                    : 11.682326            3.060955             -9.649247
| 64>   H                    : 12.259209            1.769761             -8.610688
| 65>   C                      11.631059            3.059737             -5.774985
| 66>   O                      10.905304            2.740194             -4.618997
| 67>   H                      10.421295            3.465015             -4.263803
| 68>   H                      12.212335            2.216138             -6.149784
| 69>   H                      10.839864            3.262608             -6.530480
| 70>   H                      12.263251            3.898941             -5.592891
| 71> *
| 72>
| 73>                          ****END OF INPUT****
 Total Charge           Charge          ....    0
 Multiplicity           Mult            ....    1
 Number of Electrons    NEL             ....   36
Dispersion correction           -0.001912204
FINAL SINGLE POINT ENERGY      -231.464376201471
Dispersion correction           -0.000247817
FINAL SINGLE POINT ENERGY      -115.732192066624

CARTESIAN COORDINATES (ANGSTROEM)
---------------------------------
  C     11.474556    2.102910   -9.297509
  O     10.307835    2.200152   -8.489772
  H      9.766941    1.402733   -8.572671
  H     11.357470    1.455794  -10.216754
  H     11.682326    3.060955   -9.649247
  H     12.259209    1.769761   -8.610688
  C     11.631059    3.059737   -5.774985
  O     10.905304    2.740194   -4.618997
  H     10.421295    3.465015   -4.263803
  H     12.212335    2.216138   -6.149784
  H     10.839864    3.262608   -6.530480
  H     12.263251    3.898941   -5.592891

 Multiplicity           Mult            ....    1
 Number of Electrons    NEL             ....   18
 Basis Dimension        Dim             ....  172

ORBITAL ENERGIES
----------------

  NO   OCC          E(Eh)            E(eV)
   0   2.0000     -19.220972      -523.0292
   1   2.0000     -10.311221      -280.5826
   2   2.0000      -1.137964       -30.9656
   3   2.0000      -0.798573       -21.7303
   4   2.0000      -0.610770       -16.6199
   5   2.0000      -0.549270       -14.9464
   6   2.0000      -0.535137       -14.5618
   7   2.0000      -0.422207       -11.4888
   8   2.0000      -0.368441       -10.0258
   9   0.0000       0.086561         2.3554
  10   0.0000       0.118606         3.2274
  11   0.0000       0.160455         4.3662
  12   0.0000       0.167195         4.5496
  13   0.0000       0.180423         4.9096

MULLIKEN ATOMIC CHARGES
-----------------------
   0 C :   -0.002461
   1 O :   -0.000047
   2 H :   -0.000034
   3 H :   -0.000122
   4 H :    0.000221
   5 H :   -0.000738
   6 C :   -0.146636
   7 O :   -0.487665
   8 H :    0.315086
   9 H :    0.121612
  10 H :    0.098042
  11 H :    0.102742
Sum of atomic charges:    0.0000000

LOEWDIN ATOMIC CHARGES
----------------------
   0 C :   -0.006926
   1 O :   -0.012455
   2 H :   -0.000775
   3 H :   -0.000098
   4 H :   -0.000352
   5 H :   -0.002897
   6 C :   -0.376385
   7 O :   -0.066034
   8 H :    0.154793
   9 H :    0.112113
  10 H :    0.109792
  11 H :    0.089225

  Mayer bond orders larger than 0.1
B(  6-C ,  7-O ) :   0.9844 B(  6-C ,  9-H ) :   0.9682 B(  6-C , 10-H ) :   0.9902
B(  6-C , 11-H ) :   0.9710 B(  7-O ,  8-H ) :   0.8974

Dispersion correction           -0.000222390
FINAL SINGLE POINT ENERGY      -115.732036420462

DIPOLE MOMENT
-------------
                                X             Y             Z
Electronic contribution:     -0.72114      -0.49204       1.46666
Nuclear contribution   :      0.70906       1.09126      -1.69605
                        -----------------------------------------
Total Dipole Moment    :     -0.01208       0.59921      -0.22939
                        -----------------------------------------
Magnitude (a.u.)       :      0.64174
Magnitude (Debye)      :      1.63116

Rotational constants in cm-1:     4.352787     0.843197     0.820898
Rotational constants in MHz : 130493.272865 25278.423859 24609.890588

                             ****ORCA TERMINATED NORMALLY****
TOTAL RUN TIME: 0 days 0 hours 1 minutes 6 seconds 76 msec
