                         Program Version 4.1.2  - RELEASE  -
|  1> #Run DFT-D3 single point of the dimer
|  2> ! wB97X-D3 def2-TZVP TIGHTSCF CHELPG PMODEL PAL8
|  3>
|  4> %base "1-87_DFT_AB"
|  5>
|  6> %scf
|  7> MaxIter 1000
|  8> end
|  9>
| 10> * xyz 0 1
| 11>   C                      -7.546642            5.310844             -2.485952
| 12>   O                      -6.537382            4.702897             -1.704250
| 13>   H                      -6.634103            3.799627             -2.072274
| 14>   H                      -7.343214            5.297082             -3.570693
| 15>   H                      -8.497672            4.889586             -2.433377
| 16>   H                      -7.670592            6.410111             -2.234567
| 17>   C                      -6.250027            5.490923             -6.870125
| 18>   O                      -6.514176            6.198940             -8.058985
| 19>   H                      -5.771897            6.008404             -8.612052
| 20>   H                      -5.895497            4.502236             -7.087653
| 21>   H                      -5.617030            6.053611             -6.177705
| 22>   H                      -7.127906            5.313482             -6.313587
| 23> *
| 24>
| 25> #Run DFT-D3 single point of the molecule with dimer basis set
| 26> $new_job
| 27> %base "1-87_DFT_A"
| 28> ! wB97X-D3 def2-TZVP TIGHTSCF CHELPG PMODEL
| 29>
| 30> %scf
| 31> MaxIter 1000
| 32> end
| 33>
| 34> * xyz 0 1
| 35>   C                      -7.546642            5.310844             -2.485952
| 36>   O                      -6.537382            4.702897             -1.704250
| 37>   H                      -6.634103            3.799627             -2.072274
| 38>   H                      -7.343214            5.297082             -3.570693
| 39>   H                      -8.497672            4.889586             -2.433377
| 40>   H                      -7.670592            6.410111             -2.234567
| 41>   C                    : -6.250027            5.490923             -6.870125
| 42>   O                    : -6.514176            6.198940             -8.058985
| 43>   H                    : -5.771897            6.008404             -8.612052
| 44>   H                    : -5.895497            4.502236             -7.087653
| 45>   H                    : -5.617030            6.053611             -6.177705
| 46>   H                    : -7.127906            5.313482             -6.313587
| 47> *
| 48>
| 49> #Run DFT-D3 single point of the particle with dimer basis set
| 50> $new_job
| 51> %base "1-87_DFT_B"
| 52> ! wB97X-D3 def2-TZVP TIGHTSCF CHELPG PMODEL
| 53>
| 54> %scf
| 55> MaxIter 1000
| 56> end
| 57>
| 58> * xyz 0 1
| 59>   C                    : -7.546642            5.310844             -2.485952
| 60>   O                    : -6.537382            4.702897             -1.704250
| 61>   H                    : -6.634103            3.799627             -2.072274
| 62>   H                    : -7.343214            5.297082             -3.570693
| 63>   H                    : -8.497672            4.889586             -2.433377
| 64>   H                    : -7.670592            6.410111             -2.234567
| 65>   C                      -6.250027            5.490923             -6.870125
| 66>   O                      -6.514176            6.198940             -8.058985
| 67>   H                      -5.771897            6.008404             -8.612052
| 68>   H                      -5.895497            4.502236             -7.087653
| 69>   H                      -5.617030            6.053611             -6.177705
| 70>   H                      -7.127906            5.313482             -6.313587
| 71> *
| 72>
| 73>                          ****END OF INPUT****
 Total Charge           Charge          ....    0
 Multiplicity           Mult            ....    1
 Number of Electrons    NEL             ....   36
Dispersion correction           -0.001019756
FINAL SINGLE POINT ENERGY      -231.461552795510
Dispersion correction           -0.000227655
FINAL SINGLE POINT ENERGY      -115.727985628735

CARTESIAN COORDINATES (ANGSTROEM)
---------------------------------
  C     -7.546642    5.310844   -2.485952
  O     -6.537382    4.702897   -1.704250
  H     -6.634103    3.799627   -2.072274
  H     -7.343214    5.297082   -3.570693
  H     -8.497672    4.889586   -2.433377
  H     -7.670592    6.410111   -2.234567
  C     -6.250027    5.490923   -6.870125
  O     -6.514176    6.198940   -8.058985
  H     -5.771897    6.008404   -8.612052
  H     -5.895497    4.502236   -7.087653
  H     -5.617030    6.053611   -6.177705
  H     -7.127906    5.313482   -6.313587

 Multiplicity           Mult            ....    1
 Number of Electrons    NEL             ....   18
 Basis Dimension        Dim             ....  172

ORBITAL ENERGIES
----------------

  NO   OCC          E(Eh)            E(eV)
   0   2.0000     -19.229311      -523.2561
   1   2.0000     -10.305770      -280.4343
   2   2.0000      -1.142812       -31.0975
   3   2.0000      -0.801286       -21.8041
   4   2.0000      -0.610958       -16.6250
   5   2.0000      -0.549656       -14.9569
   6   2.0000      -0.531969       -14.4756
   7   2.0000      -0.433961       -11.8087
   8   2.0000      -0.376263       -10.2386
   9   0.0000       0.084450         2.2980
  10   0.0000       0.118490         3.2243
  11   0.0000       0.153077         4.1654
  12   0.0000       0.166001         4.5171
  13   0.0000       0.186945         5.0870

MULLIKEN ATOMIC CHARGES
-----------------------
   0 C :    0.000229
   1 O :   -0.000013
   2 H :   -0.000006
   3 H :   -0.000466
   4 H :   -0.000008
   5 H :   -0.000028
   6 C :   -0.162860
   7 O :   -0.465698
   8 H :    0.313327
   9 H :    0.101151
  10 H :    0.096773
  11 H :    0.117599
Sum of atomic charges:    0.0000000

LOEWDIN ATOMIC CHARGES
----------------------
   0 C :   -0.000421
   1 O :   -0.000005
   2 H :   -0.000001
   3 H :   -0.001503
   4 H :   -0.000007
   5 H :   -0.000006
   6 C :   -0.384824
   7 O :   -0.064433
   8 H :    0.162171
   9 H :    0.093557
  10 H :    0.096276
  11 H :    0.099197

  Mayer bond orders larger than 0.1
B(  6-C ,  7-O ) :   1.0085 B(  6-C ,  9-H ) :   0.9822 B(  6-C , 10-H ) :   0.9773
B(  6-C , 11-H ) :   0.9751 B(  7-O ,  8-H ) :   0.9050

Dispersion correction           -0.000226795
FINAL SINGLE POINT ENERGY      -115.733115997683

DIPOLE MOMENT
-------------
                                X             Y             Z
Electronic contribution:     -0.43336       0.97211      -1.51598
Nuclear contribution   :      0.97478      -1.39188       1.63649
                        -----------------------------------------
Total Dipole Moment    :      0.54142      -0.41976       0.12051
                        -----------------------------------------
Magnitude (a.u.)       :      0.69560
Magnitude (Debye)      :      1.76807

Rotational constants in cm-1:     4.467793     0.837323     0.816010
Rotational constants in MHz : 133941.064380 25102.314465 24463.378050

                             ****ORCA TERMINATED NORMALLY****
TOTAL RUN TIME: 0 days 0 hours 5 minutes 50 seconds 910 msec
