                         Program Version 4.1.2  - RELEASE  -
|  1> #Run DFT-D3 single point of the dimer
|  2> ! wB97X-D3 def2-TZVP TIGHTSCF CHELPG PMODEL PAL8
|  3>
|  4> %base "1-98_DFT_AB"
|  5>
|  6> %scf
|  7> MaxIter 1000
|  8> end
|  9>
| 10> * xyz 0 1
| 11>   C                      -6.076476            10.396994            8.572423
| 12>   O                      -4.913337            11.136352            8.302519
| 13>   H                      -4.968444            12.080275            8.375493
| 14>   H                      -6.294389            9.678972             7.724420
| 15>   H                      -6.081936            9.823034             9.605426
| 16>   H                      -6.905947            11.125597            8.466702
| 17>   C                      -1.762520            6.941765             7.397373
| 18>   O                      -0.721336            7.823478             7.094080
| 19>   H                      -0.933814            8.336408             6.325097
| 20>   H                      -2.531944            7.407656             8.006269
| 21>   H                      -2.197197            6.657989             6.428430
| 22>   H                      -1.425565            5.995266             7.871045
| 23> *
| 24>
| 25> #Run DFT-D3 single point of the molecule with dimer basis set
| 26> $new_job
| 27> %base "1-98_DFT_A"
| 28> ! wB97X-D3 def2-TZVP TIGHTSCF CHELPG PMODEL
| 29>
| 30> %scf
| 31> MaxIter 1000
| 32> end
| 33>
| 34> * xyz 0 1
| 35>   C                      -6.076476            10.396994            8.572423
| 36>   O                      -4.913337            11.136352            8.302519
| 37>   H                      -4.968444            12.080275            8.375493
| 38>   H                      -6.294389            9.678972             7.724420
| 39>   H                      -6.081936            9.823034             9.605426
| 40>   H                      -6.905947            11.125597            8.466702
| 41>   C                    : -1.762520            6.941765             7.397373
| 42>   O                    : -0.721336            7.823478             7.094080
| 43>   H                    : -0.933814            8.336408             6.325097
| 44>   H                    : -2.531944            7.407656             8.006269
| 45>   H                    : -2.197197            6.657989             6.428430
| 46>   H                    : -1.425565            5.995266             7.871045
| 47> *
| 48>
| 49> #Run DFT-D3 single point of the particle with dimer basis set
| 50> $new_job
| 51> %base "1-98_DFT_B"
| 52> ! wB97X-D3 def2-TZVP TIGHTSCF CHELPG PMODEL
| 53>
| 54> %scf
| 55> MaxIter 1000
| 56> end
| 57>
| 58> * xyz 0 1
| 59>   C                    : -6.076476            10.396994            8.572423
| 60>   O                    : -4.913337            11.136352            8.302519
| 61>   H                    : -4.968444            12.080275            8.375493
| 62>   H                    : -6.294389            9.678972             7.724420
| 63>   H                    : -6.081936            9.823034             9.605426
| 64>   H                    : -6.905947            11.125597            8.466702
| 65>   C                      -1.762520            6.941765             7.397373
| 66>   O                      -0.721336            7.823478             7.094080
| 67>   H                      -0.933814            8.336408             6.325097
| 68>   H                      -2.531944            7.407656             8.006269
| 69>   H                      -2.197197            6.657989             6.428430
| 70>   H                      -1.425565            5.995266             7.871045
| 71> *
| 72>
| 73>                          ****END OF INPUT****
 Total Charge           Charge          ....    0
 Multiplicity           Mult            ....    1
 Number of Electrons    NEL             ....   36
Dispersion correction           -0.000685954
FINAL SINGLE POINT ENERGY      -231.458738639993
Dispersion correction           -0.000271579
FINAL SINGLE POINT ENERGY      -115.724919840021

CARTESIAN COORDINATES (ANGSTROEM)
---------------------------------
  C     -6.076476   10.396994    8.572423
  O     -4.913337   11.136352    8.302519
  H     -4.968444   12.080275    8.375493
  H     -6.294389    9.678972    7.724420
  H     -6.081936    9.823034    9.605426
  H     -6.905947   11.125597    8.466702
  C     -1.762520    6.941765    7.397373
  O     -0.721336    7.823478    7.094080
  H     -0.933814    8.336408    6.325097
  H     -2.531944    7.407656    8.006269
  H     -2.197197    6.657989    6.428430
  H     -1.425565    5.995266    7.871045

 Multiplicity           Mult            ....    1
 Number of Electrons    NEL             ....   18
 Basis Dimension        Dim             ....  172

ORBITAL ENERGIES
----------------

  NO   OCC          E(Eh)            E(eV)
   0   2.0000     -19.225915      -523.1638
   1   2.0000     -10.313898      -280.6554
   2   2.0000      -1.141459       -31.0607
   3   2.0000      -0.794811       -21.6279
   4   2.0000      -0.614081       -16.7100
   5   2.0000      -0.546288       -14.8652
   6   2.0000      -0.532877       -14.5003
   7   2.0000      -0.423031       -11.5113
   8   2.0000      -0.372809       -10.1447
   9   0.0000       0.082875         2.2551
  10   0.0000       0.114599         3.1184
  11   0.0000       0.151204         4.1145
  12   0.0000       0.163451         4.4477
  13   0.0000       0.184187         5.0120

MULLIKEN ATOMIC CHARGES
-----------------------
   0 C :    0.000011
   1 O :   -0.000007
   2 H :   -0.000000
   3 H :   -0.000038
   4 H :   -0.000017
   5 H :   -0.000004
   6 C :   -0.150623
   7 O :   -0.477103
   8 H :    0.317532
   9 H :    0.102582
  10 H :    0.093509
  11 H :    0.114160
Sum of atomic charges:   -0.0000000

LOEWDIN ATOMIC CHARGES
----------------------
   0 C :   -0.000082
   1 O :   -0.000006
   2 H :   -0.000000
   3 H :   -0.000017
   4 H :   -0.000011
   5 H :   -0.000002
   6 C :   -0.394562
   7 O :   -0.065504
   8 H :    0.162764
   9 H :    0.092004
  10 H :    0.096476
  11 H :    0.108942

  Mayer bond orders larger than 0.1
B(  6-C ,  7-O ) :   1.0001 B(  6-C ,  9-H ) :   0.9716 B(  6-C , 10-H ) :   0.9950
B(  6-C , 11-H ) :   0.9702 B(  7-O ,  8-H ) :   0.8982

Dispersion correction           -0.000232180
FINAL SINGLE POINT ENERGY      -115.733443568758

DIPOLE MOMENT
-------------
                                X             Y             Z
Electronic contribution:      1.42720       1.10422      -0.18223
Nuclear contribution   :     -1.97474      -1.12901      -0.21971
                        -----------------------------------------
Total Dipole Moment    :     -0.54755      -0.02479      -0.40194
                        -----------------------------------------
Magnitude (a.u.)       :      0.67969
Magnitude (Debye)      :      1.72763

Rotational constants in cm-1:     4.321993     0.843595     0.817095
Rotational constants in MHz : 129570.087282 25290.336604 24495.884418

                             ****ORCA TERMINATED NORMALLY****
TOTAL RUN TIME: 0 days 0 hours 4 minutes 39 seconds 658 msec
