                         Program Version 4.1.2  - RELEASE  -
|  1> #Run DFT-D3 single point of the dimer
|  2> ! wB97X-D3 def2-TZVP TIGHTSCF CHELPG PMODEL PAL8
|  3>
|  4> %base "21-42_DFT_AB"
|  5>
|  6> %scf
|  7> MaxIter 1000
|  8> end
|  9>
| 10> * xyz 0 1
| 11>   C                      -4.571858            -8.509217            7.080362
| 12>   O                      -3.583468            -7.449682            7.394431
| 13>   H                      -3.572475            -6.902586            6.640899
| 14>   H                      -4.180799            -9.176255            6.298429
| 15>   H                      -4.673121            -9.129860            7.950470
| 16>   H                      -5.476760            -8.065264            6.898514
| 17>   C                      -7.354044            -7.384285            9.610850
| 18>   O                      -7.861424            -8.535900            10.207818
| 19>   H                      -7.106545            -9.027071            10.447175
| 20>   H                      -8.165891            -6.739784            9.237694
| 21>   H                      -6.786135            -6.747135            10.345841
| 22>   H                      -6.677539            -7.602276            8.817996
| 23> *
| 24>
| 25> #Run DFT-D3 single point of the molecule with dimer basis set
| 26> $new_job
| 27> %base "21-42_DFT_A"
| 28> ! wB97X-D3 def2-TZVP TIGHTSCF CHELPG PMODEL
| 29>
| 30> %scf
| 31> MaxIter 1000
| 32> end
| 33>
| 34> * xyz 0 1
| 35>   C                      -4.571858            -8.509217            7.080362
| 36>   O                      -3.583468            -7.449682            7.394431
| 37>   H                      -3.572475            -6.902586            6.640899
| 38>   H                      -4.180799            -9.176255            6.298429
| 39>   H                      -4.673121            -9.129860            7.950470
| 40>   H                      -5.476760            -8.065264            6.898514
| 41>   C                    : -7.354044            -7.384285            9.610850
| 42>   O                    : -7.861424            -8.535900            10.207818
| 43>   H                    : -7.106545            -9.027071            10.447175
| 44>   H                    : -8.165891            -6.739784            9.237694
| 45>   H                    : -6.786135            -6.747135            10.345841
| 46>   H                    : -6.677539            -7.602276            8.817996
| 47> *
| 48>
| 49> #Run DFT-D3 single point of the particle with dimer basis set
| 50> $new_job
| 51> %base "21-42_DFT_B"
| 52> ! wB97X-D3 def2-TZVP TIGHTSCF CHELPG PMODEL
| 53>
| 54> %scf
| 55> MaxIter 1000
| 56> end
| 57>
| 58> * xyz 0 1
| 59>   C                    : -4.571858            -8.509217            7.080362
| 60>   O                    : -3.583468            -7.449682            7.394431
| 61>   H                    : -3.572475            -6.902586            6.640899
| 62>   H                    : -4.180799            -9.176255            6.298429
| 63>   H                    : -4.673121            -9.129860            7.950470
| 64>   H                    : -5.476760            -8.065264            6.898514
| 65>   C                      -7.354044            -7.384285            9.610850
| 66>   O                      -7.861424            -8.535900            10.207818
| 67>   H                      -7.106545            -9.027071            10.447175
| 68>   H                      -8.165891            -6.739784            9.237694
| 69>   H                      -6.786135            -6.747135            10.345841
| 70>   H                      -6.677539            -7.602276            8.817996
| 71> *
| 72>
| 73>                          ****END OF INPUT****
 Total Charge           Charge          ....    0
 Multiplicity           Mult            ....    1
 Number of Electrons    NEL             ....   36
Dispersion correction           -0.001484718
FINAL SINGLE POINT ENERGY      -231.464813428247
Dispersion correction           -0.000238914
FINAL SINGLE POINT ENERGY      -115.729665141265

CARTESIAN COORDINATES (ANGSTROEM)
---------------------------------
  C     -4.571858   -8.509217    7.080362
  O     -3.583468   -7.449682    7.394431
  H     -3.572475   -6.902586    6.640899
  H     -4.180799   -9.176255    6.298429
  H     -4.673121   -9.129860    7.950470
  H     -5.476760   -8.065264    6.898514
  C     -7.354044   -7.384285    9.610850
  O     -7.861424   -8.535900   10.207818
  H     -7.106545   -9.027071   10.447175
  H     -8.165891   -6.739784    9.237694
  H     -6.786135   -6.747135   10.345841
  H     -6.677539   -7.602276    8.817996

 Multiplicity           Mult            ....    1
 Number of Electrons    NEL             ....   18
 Basis Dimension        Dim             ....  172

ORBITAL ENERGIES
----------------

  NO   OCC          E(Eh)            E(eV)
   0   2.0000     -19.229824      -523.2701
   1   2.0000     -10.312352      -280.6134
   2   2.0000      -1.151983       -31.3471
   3   2.0000      -0.795346       -21.6425
   4   2.0000      -0.619922       -16.8689
   5   2.0000      -0.543276       -14.7833
   6   2.0000      -0.530498       -14.4356
   7   2.0000      -0.438798       -11.9403
   8   2.0000      -0.373207       -10.1555
   9   0.0000       0.080641         2.1944
  10   0.0000       0.119862         3.2616
  11   0.0000       0.155716         4.2372
  12   0.0000       0.170639         4.6433
  13   0.0000       0.193383         5.2622

MULLIKEN ATOMIC CHARGES
-----------------------
   0 C :    0.001199
   1 O :    0.000122
   2 H :   -0.000006
   3 H :    0.000193
   4 H :    0.000395
   5 H :   -0.000684
   6 C :   -0.165945
   7 O :   -0.457674
   8 H :    0.310732
   9 H :    0.119342
  10 H :    0.095592
  11 H :    0.096733
Sum of atomic charges:   -0.0000000

LOEWDIN ATOMIC CHARGES
----------------------
   0 C :   -0.007373
   1 O :   -0.000058
   2 H :   -0.000020
   3 H :   -0.000064
   4 H :   -0.001017
   5 H :   -0.004532
   6 C :   -0.399320
   7 O :   -0.044452
   8 H :    0.154837
   9 H :    0.111218
  10 H :    0.098377
  11 H :    0.092403

  Mayer bond orders larger than 0.1
B(  6-C ,  7-O ) :   0.9961 B(  6-C ,  9-H ) :   0.9730 B(  6-C , 10-H ) :   0.9798
B(  6-C , 11-H ) :   0.9781 B(  7-O ,  8-H ) :   0.9068

Dispersion correction           -0.000221377
FINAL SINGLE POINT ENERGY      -115.734434479037

DIPOLE MOMENT
-------------
                                X             Y             Z
Electronic contribution:     -0.84107      -1.55875       0.69150
Nuclear contribution   :      1.50438       1.67466      -0.78195
                        -----------------------------------------
Total Dipole Moment    :      0.66331       0.11591      -0.09045
                        -----------------------------------------
Magnitude (a.u.)       :      0.67941
Magnitude (Debye)      :      1.72693

Rotational constants in cm-1:     4.330345     0.854194     0.821469
Rotational constants in MHz : 129820.488182 25608.081935 24627.017537

                             ****ORCA TERMINATED NORMALLY****
TOTAL RUN TIME: 0 days 0 hours 1 minutes 0 seconds 791 msec
