                         Program Version 4.1.2  - RELEASE  -
|  1> #Run DFT-D3 single point of the dimer
|  2> ! wB97X-D3 def2-TZVP TIGHTSCF CHELPG PMODEL PAL8
|  3>
|  4> %base "12-137_DFT_AB"
|  5>
|  6> %scf
|  7> MaxIter 1000
|  8> end
|  9>
| 10> * xyz 0 1
| 11>   C                      3.937609             6.089715             5.121929
| 12>   O                      4.894966             6.938586             4.500561
| 13>   H                      5.624434             6.969971             5.126123
| 14>   H                      3.038266             5.905496             4.475867
| 15>   H                      4.311928             5.107801             5.271609
| 16>   H                      3.625862             6.468092             6.095905
| 17>   C                      3.116415             9.494618             6.530826
| 18>   O                      3.287834             9.523754             7.967725
| 19>   H                      3.556932             8.624524             8.245668
| 20>   H                      4.026435             9.717809             6.046713
| 21>   H                      2.839763             8.464632             6.152085
| 22>   H                      2.406417             10.254568            6.109319
| 23> *
| 24>
| 25> #Run DFT-D3 single point of the molecule with dimer basis set
| 26> $new_job
| 27> %base "12-137_DFT_A"
| 28> ! wB97X-D3 def2-TZVP TIGHTSCF CHELPG PMODEL
| 29>
| 30> %scf
| 31> MaxIter 1000
| 32> end
| 33>
| 34> * xyz 0 1
| 35>   C                      3.937609             6.089715             5.121929
| 36>   O                      4.894966             6.938586             4.500561
| 37>   H                      5.624434             6.969971             5.126123
| 38>   H                      3.038266             5.905496             4.475867
| 39>   H                      4.311928             5.107801             5.271609
| 40>   H                      3.625862             6.468092             6.095905
| 41>   C                    : 3.116415             9.494618             6.530826
| 42>   O                    : 3.287834             9.523754             7.967725
| 43>   H                    : 3.556932             8.624524             8.245668
| 44>   H                    : 4.026435             9.717809             6.046713
| 45>   H                    : 2.839763             8.464632             6.152085
| 46>   H                    : 2.406417             10.254568            6.109319
| 47> *
| 48>
| 49> #Run DFT-D3 single point of the particle with dimer basis set
| 50> $new_job
| 51> %base "12-137_DFT_B"
| 52> ! wB97X-D3 def2-TZVP TIGHTSCF CHELPG PMODEL
| 53>
| 54> %scf
| 55> MaxIter 1000
| 56> end
| 57>
| 58> * xyz 0 1
| 59>   C                    : 3.937609             6.089715             5.121929
| 60>   O                    : 4.894966             6.938586             4.500561
| 61>   H                    : 5.624434             6.969971             5.126123
| 62>   H                    : 3.038266             5.905496             4.475867
| 63>   H                    : 4.311928             5.107801             5.271609
| 64>   H                    : 3.625862             6.468092             6.095905
| 65>   C                      3.116415             9.494618             6.530826
| 66>   O                      3.287834             9.523754             7.967725
| 67>   H                      3.556932             8.624524             8.245668
| 68>   H                      4.026435             9.717809             6.046713
| 69>   H                      2.839763             8.464632             6.152085
| 70>   H                      2.406417             10.254568            6.109319
| 71> *
| 72>
| 73>                          ****END OF INPUT****
 Total Charge           Charge          ....    0
 Multiplicity           Mult            ....    1
 Number of Electrons    NEL             ....   36
Dispersion correction           -0.001910017
FINAL SINGLE POINT ENERGY      -231.464777302949
Dispersion correction           -0.000234757
FINAL SINGLE POINT ENERGY      -115.734241384033

CARTESIAN COORDINATES (ANGSTROEM)
---------------------------------
  C      3.937609    6.089715    5.121929
  O      4.894966    6.938586    4.500561
  H      5.624434    6.969971    5.126123
  H      3.038266    5.905496    4.475867
  H      4.311928    5.107801    5.271609
  H      3.625862    6.468092    6.095905
  C      3.116415    9.494618    6.530826
  O      3.287834    9.523754    7.967725
  H      3.556932    8.624524    8.245668
  H      4.026435    9.717809    6.046713
  H      2.839763    8.464632    6.152085
  H      2.406417   10.254568    6.109319

 Multiplicity           Mult            ....    1
 Number of Electrons    NEL             ....   18
 Basis Dimension        Dim             ....  172

ORBITAL ENERGIES
----------------

  NO   OCC          E(Eh)            E(eV)
   0   2.0000     -19.233911      -523.3813
   1   2.0000     -10.319142      -280.7981
   2   2.0000      -1.123843       -30.5813
   3   2.0000      -0.795163       -21.6375
   4   2.0000      -0.603084       -16.4107
   5   2.0000      -0.532820       -14.4988
   6   2.0000      -0.525912       -14.3108
   7   2.0000      -0.435527       -11.8513
   8   2.0000      -0.373605       -10.1663
   9   0.0000       0.075026         2.0416
  10   0.0000       0.119575         3.2538
  11   0.0000       0.148727         4.0471
  12   0.0000       0.155277         4.2253
  13   0.0000       0.190848         5.1932

MULLIKEN ATOMIC CHARGES
-----------------------
   0 C :   -0.003020
   1 O :   -0.000001
   2 H :    0.000063
   3 H :   -0.000011
   4 H :    0.000122
   5 H :    0.002095
   6 C :   -0.169774
   7 O :   -0.478525
   8 H :    0.319711
   9 H :    0.112291
  10 H :    0.095745
  11 H :    0.121302
Sum of atomic charges:    0.0000000

LOEWDIN ATOMIC CHARGES
----------------------
   0 C :   -0.009430
   1 O :   -0.000778
   2 H :   -0.000352
   3 H :   -0.000408
   4 H :   -0.000089
   5 H :   -0.006096
   6 C :   -0.364654
   7 O :   -0.108128
   8 H :    0.179706
   9 H :    0.087807
  10 H :    0.109778
  11 H :    0.112643

  Mayer bond orders larger than 0.1
B(  6-C ,  7-O ) :   0.9988 B(  6-C ,  9-H ) :   0.9772 B(  6-C , 10-H ) :   0.9836
B(  6-C , 11-H ) :   0.9705 B(  7-O ,  8-H ) :   0.8964

Dispersion correction           -0.000267483
FINAL SINGLE POINT ENERGY      -115.730002904614

DIPOLE MOMENT
-------------
                                X             Y             Z
Electronic contribution:      0.14253       0.23581       1.90560
Nuclear contribution   :     -0.02167      -0.80595      -2.32894
                        -----------------------------------------
Total Dipole Moment    :      0.12086      -0.57015      -0.42334
                        -----------------------------------------
Magnitude (a.u.)       :      0.72034
Magnitude (Debye)      :      1.83097

Rotational constants in cm-1:     4.302307     0.795827     0.756614
Rotational constants in MHz : 128979.922751 23858.303492 22682.731398

                             ****ORCA TERMINATED NORMALLY****
TOTAL RUN TIME: 0 days 0 hours 1 minutes 7 seconds 943 msec
