                         Program Version 4.1.2  - RELEASE  -
|  1> #Run DFT-D3 single point of the dimer
|  2> ! wB97X-D3 def2-TZVP TIGHTSCF CHELPG PMODEL PAL8
|  3>
|  4> %base "16-29_DFT_AB"
|  5>
|  6> %scf
|  7> MaxIter 1000
|  8> end
|  9>
| 10> * xyz 0 1
| 11>   C                      -9.948473            -1.812941            5.438624
| 12>   O                      -9.656483            -1.904055            6.869065
| 13>   H                      -8.898172            -2.436655            7.042660
| 14>   H                      -10.795136           -1.169837            5.194730
| 15>   H                      -9.039130            -1.454169            4.871001
| 16>   H                      -10.203844           -2.769139            4.921275
| 17>   C                      -6.767810            -1.448241            7.955498
| 18>   O                      -7.346342            -2.742153            8.154645
| 19>   H                      -6.944997            -3.182233            8.940503
| 20>   H                      -6.709724            -1.151407            6.945388
| 21>   H                      -7.347413            -0.686434            8.456528
| 22>   H                      -5.763627            -1.442012            8.421003
| 23> *
| 24>
| 25> #Run DFT-D3 single point of the molecule with dimer basis set
| 26> $new_job
| 27> %base "16-29_DFT_A"
| 28> ! wB97X-D3 def2-TZVP TIGHTSCF CHELPG PMODEL
| 29>
| 30> %scf
| 31> MaxIter 1000
| 32> end
| 33>
| 34> * xyz 0 1
| 35>   C                      -9.948473            -1.812941            5.438624
| 36>   O                      -9.656483            -1.904055            6.869065
| 37>   H                      -8.898172            -2.436655            7.042660
| 38>   H                      -10.795136           -1.169837            5.194730
| 39>   H                      -9.039130            -1.454169            4.871001
| 40>   H                      -10.203844           -2.769139            4.921275
| 41>   C                    : -6.767810            -1.448241            7.955498
| 42>   O                    : -7.346342            -2.742153            8.154645
| 43>   H                    : -6.944997            -3.182233            8.940503
| 44>   H                    : -6.709724            -1.151407            6.945388
| 45>   H                    : -7.347413            -0.686434            8.456528
| 46>   H                    : -5.763627            -1.442012            8.421003
| 47> *
| 48>
| 49> #Run DFT-D3 single point of the particle with dimer basis set
| 50> $new_job
| 51> %base "16-29_DFT_B"
| 52> ! wB97X-D3 def2-TZVP TIGHTSCF CHELPG PMODEL
| 53>
| 54> %scf
| 55> MaxIter 1000
| 56> end
| 57>
| 58> * xyz 0 1
| 59>   C                    : -9.948473            -1.812941            5.438624
| 60>   O                    : -9.656483            -1.904055            6.869065
| 61>   H                    : -8.898172            -2.436655            7.042660
| 62>   H                    : -10.795136           -1.169837            5.194730
| 63>   H                    : -9.039130            -1.454169            4.871001
| 64>   H                    : -10.203844           -2.769139            4.921275
| 65>   C                      -6.767810            -1.448241            7.955498
| 66>   O                      -7.346342            -2.742153            8.154645
| 67>   H                      -6.944997            -3.182233            8.940503
| 68>   H                      -6.709724            -1.151407            6.945388
| 69>   H                      -7.347413            -0.686434            8.456528
| 70>   H                      -5.763627            -1.442012            8.421003
| 71> *
| 72>
| 73>                          ****END OF INPUT****
 Total Charge           Charge          ....    0
 Multiplicity           Mult            ....    1
 Number of Electrons    NEL             ....   36
Dispersion correction           -0.001932272
FINAL SINGLE POINT ENERGY      -231.470227800247
Dispersion correction           -0.000296861
FINAL SINGLE POINT ENERGY      -115.730996398367

CARTESIAN COORDINATES (ANGSTROEM)
---------------------------------
  C     -9.948473   -1.812941    5.438624
  O     -9.656483   -1.904055    6.869065
  H     -8.898172   -2.436655    7.042660
  H    -10.795136   -1.169837    5.194730
  H     -9.039130   -1.454169    4.871001
  H    -10.203844   -2.769139    4.921275
  C     -6.767810   -1.448241    7.955498
  O     -7.346342   -2.742153    8.154645
  H     -6.944997   -3.182233    8.940503
  H     -6.709724   -1.151407    6.945388
  H     -7.347413   -0.686434    8.456528
  H     -5.763627   -1.442012    8.421003

 Multiplicity           Mult            ....    1
 Number of Electrons    NEL             ....   18
 Basis Dimension        Dim             ....  172

ORBITAL ENERGIES
----------------

  NO   OCC          E(Eh)            E(eV)
   0   2.0000     -19.230123      -523.2782
   1   2.0000     -10.310422      -280.5609
   2   2.0000      -1.123805       -30.5803
   3   2.0000      -0.798555       -21.7298
   4   2.0000      -0.604088       -16.4381
   5   2.0000      -0.538106       -14.6426
   6   2.0000      -0.535521       -14.5723
   7   2.0000      -0.429538       -11.6883
   8   2.0000      -0.371683       -10.1140
   9   0.0000       0.094279         2.5655
  10   0.0000       0.116613         3.1732
  11   0.0000       0.152118         4.1393
  12   0.0000       0.190346         5.1796
  13   0.0000       0.191656         5.2152

MULLIKEN ATOMIC CHARGES
-----------------------
   0 C :   -0.000116
   1 O :    0.001494
   2 H :   -0.008173
   3 H :   -0.000051
   4 H :    0.000073
   5 H :   -0.000024
   6 C :   -0.162014
   7 O :   -0.484911
   8 H :    0.316668
   9 H :    0.125221
  10 H :    0.106140
  11 H :    0.105692
Sum of atomic charges:    0.0000000

LOEWDIN ATOMIC CHARGES
----------------------
   0 C :   -0.000823
   1 O :   -0.006843
   2 H :   -0.037762
   3 H :   -0.000009
   4 H :   -0.000313
   5 H :   -0.000008
   6 C :   -0.359753
   7 O :   -0.071948
   8 H :    0.182128
   9 H :    0.098205
  10 H :    0.094978
  11 H :    0.102148

  Mayer bond orders larger than 0.1
B(  6-C ,  7-O ) :   0.9890 B(  6-C ,  9-H ) :   0.9756 B(  6-C , 10-H ) :   0.9788
B(  6-C , 11-H ) :   0.9806 B(  7-O ,  8-H ) :   0.8937

Dispersion correction           -0.000248514
FINAL SINGLE POINT ENERGY      -115.732668551769

DIPOLE MOMENT
-------------
                                X             Y             Z
Electronic contribution:     -0.81834      -1.60320       0.01383
Nuclear contribution   :      1.33014       1.86647       0.39997
                        -----------------------------------------
Total Dipole Moment    :      0.51180       0.26327       0.41380
                        -----------------------------------------
Magnitude (a.u.)       :      0.70886
Magnitude (Debye)      :      1.80178

Rotational constants in cm-1:     4.380842     0.815101     0.781150
Rotational constants in MHz : 131334.324996 24436.122343 23418.289333

                             ****ORCA TERMINATED NORMALLY****
TOTAL RUN TIME: 0 days 0 hours 1 minutes 5 seconds 622 msec
