                         Program Version 4.1.2  - RELEASE  -
|  1> #Run DFT-D3 single point of the dimer
|  2> ! wB97X-D3 def2-TZVP TIGHTSCF CHELPG PMODEL PAL8
|  3>
|  4> %base "17-6_DFT_AB"
|  5>
|  6> %scf
|  7> MaxIter 1000
|  8> end
|  9>
| 10> * xyz 0 1
| 11>   C                      4.197069             -5.731458            9.963804
| 12>   O                      3.094894             -5.843376            9.191124
| 13>   H                      2.638128             -4.976491            9.044959
| 14>   H                      4.671865             -6.648630            10.240441
| 15>   H                      4.946971             -5.153106            9.403973
| 16>   H                      3.975430             -5.220114            10.891315
| 17>   C                      3.629053             -10.067203           10.010666
| 18>   O                      3.062133             -10.602289           8.908050
| 19>   H                      3.111479             -9.974572            8.115587
| 20>   H                      4.494898             -10.598688           10.325043
| 21>   H                      3.927411             -9.128733            9.631725
| 22>   H                      2.928316             -9.972586            10.864045
| 23> *
| 24>
| 25> #Run DFT-D3 single point of the molecule with dimer basis set
| 26> $new_job
| 27> %base "17-6_DFT_A"
| 28> ! wB97X-D3 def2-TZVP TIGHTSCF CHELPG PMODEL
| 29>
| 30> %scf
| 31> MaxIter 1000
| 32> end
| 33>
| 34> * xyz 0 1
| 35>   C                      4.197069             -5.731458            9.963804
| 36>   O                      3.094894             -5.843376            9.191124
| 37>   H                      2.638128             -4.976491            9.044959
| 38>   H                      4.671865             -6.648630            10.240441
| 39>   H                      4.946971             -5.153106            9.403973
| 40>   H                      3.975430             -5.220114            10.891315
| 41>   C                    : 3.629053             -10.067203           10.010666
| 42>   O                    : 3.062133             -10.602289           8.908050
| 43>   H                    : 3.111479             -9.974572            8.115587
| 44>   H                    : 4.494898             -10.598688           10.325043
| 45>   H                    : 3.927411             -9.128733            9.631725
| 46>   H                    : 2.928316             -9.972586            10.864045
| 47> *
| 48>
| 49> #Run DFT-D3 single point of the particle with dimer basis set
| 50> $new_job
| 51> %base "17-6_DFT_B"
| 52> ! wB97X-D3 def2-TZVP TIGHTSCF CHELPG PMODEL
| 53>
| 54> %scf
| 55> MaxIter 1000
| 56> end
| 57>
| 58> * xyz 0 1
| 59>   C                    : 4.197069             -5.731458            9.963804
| 60>   O                    : 3.094894             -5.843376            9.191124
| 61>   H                    : 2.638128             -4.976491            9.044959
| 62>   H                    : 4.671865             -6.648630            10.240441
| 63>   H                    : 4.946971             -5.153106            9.403973
| 64>   H                    : 3.975430             -5.220114            10.891315
| 65>   C                      3.629053             -10.067203           10.010666
| 66>   O                      3.062133             -10.602289           8.908050
| 67>   H                      3.111479             -9.974572            8.115587
| 68>   H                      4.494898             -10.598688           10.325043
| 69>   H                      3.927411             -9.128733            9.631725
| 70>   H                      2.928316             -9.972586            10.864045
| 71> *
| 72>
| 73>                          ****END OF INPUT****
 Total Charge           Charge          ....    0
 Multiplicity           Mult            ....    1
 Number of Electrons    NEL             ....   36
Dispersion correction           -0.001182215
FINAL SINGLE POINT ENERGY      -231.452688534483
Dispersion correction           -0.000216573
FINAL SINGLE POINT ENERGY      -115.730192880673

CARTESIAN COORDINATES (ANGSTROEM)
---------------------------------
  C      4.197069   -5.731458    9.963804
  O      3.094894   -5.843376    9.191124
  H      2.638128   -4.976491    9.044959
  H      4.671865   -6.648630   10.240441
  H      4.946971   -5.153106    9.403973
  H      3.975430   -5.220114   10.891315
  C      3.629053  -10.067203   10.010666
  O      3.062133  -10.602289    8.908050
  H      3.111479   -9.974572    8.115587
  H      4.494898  -10.598688   10.325043
  H      3.927411   -9.128733    9.631725
  H      2.928316   -9.972586   10.864045

 Multiplicity           Mult            ....    1
 Number of Electrons    NEL             ....   18
 Basis Dimension        Dim             ....  172

ORBITAL ENERGIES
----------------

  NO   OCC          E(Eh)            E(eV)
   0   2.0000     -19.227689      -523.2120
   1   2.0000     -10.300554      -280.2923
   2   2.0000      -1.146627       -31.2013
   3   2.0000      -0.789536       -21.4844
   4   2.0000      -0.618437       -16.8285
   5   2.0000      -0.550344       -14.9756
   6   2.0000      -0.546490       -14.8708
   7   2.0000      -0.412337       -11.2203
   8   2.0000      -0.367649       -10.0042
   9   0.0000       0.078915         2.1474
  10   0.0000       0.106274         2.8919
  11   0.0000       0.151267         4.1162
  12   0.0000       0.168008         4.5717
  13   0.0000       0.191635         5.2146

MULLIKEN ATOMIC CHARGES
-----------------------
   0 C :    0.000826
   1 O :    0.000070
   2 H :    0.000010
   3 H :   -0.002243
   4 H :   -0.000080
   5 H :   -0.000062
   6 C :   -0.119847
   7 O :   -0.476171
   8 H :    0.325819
   9 H :    0.096852
  10 H :    0.081842
  11 H :    0.092984
Sum of atomic charges:   -0.0000000

LOEWDIN ATOMIC CHARGES
----------------------
   0 C :   -0.001991
   1 O :   -0.000120
   2 H :   -0.000007
   3 H :   -0.002787
   4 H :   -0.000015
   5 H :   -0.000016
   6 C :   -0.425641
   7 O :   -0.056439
   8 H :    0.203753
   9 H :    0.090548
  10 H :    0.092129
  11 H :    0.100588

  Mayer bond orders larger than 0.1
B(  6-C ,  7-O ) :   1.0273 B(  6-C ,  9-H ) :   0.9710 B(  6-C , 10-H ) :   1.0149
B(  6-C , 11-H ) :   0.9706 B(  7-O ,  8-H ) :   0.8888

Dispersion correction           -0.000213920
FINAL SINGLE POINT ENERGY      -115.720877781607

DIPOLE MOMENT
-------------
                                X             Y             Z
Electronic contribution:     -0.75850      -0.86974      -1.28231
Nuclear contribution   :      1.01373       1.48574       1.15114
                        -----------------------------------------
Total Dipole Moment    :      0.25523       0.61599      -0.13118
                        -----------------------------------------
Magnitude (a.u.)       :      0.67956
Magnitude (Debye)      :      1.72730

Rotational constants in cm-1:     4.353443     0.900874     0.866729
Rotational constants in MHz : 130512.927168 27007.518293 25983.887637

                             ****ORCA TERMINATED NORMALLY****
TOTAL RUN TIME: 0 days 0 hours 1 minutes 11 seconds 566 msec
