                         Program Version 4.1.2  - RELEASE  -
|  1> #Run DFT-D3 single point of the dimer
|  2> ! wB97X-D3 def2-TZVP TIGHTSCF CHELPG PMODEL PAL8
|  3>
|  4> %base "15-197_DFT_AB"
|  5>
|  6> %scf
|  7> MaxIter 1000
|  8> end
|  9>
| 10> * xyz 0 1
| 11>   C                      2.886451             6.089401             11.037753
| 12>   O                      4.041157             6.683180             11.490274
| 13>   H                      4.744214             6.116429             11.163121
| 14>   H                      2.217283             6.806699             10.805423
| 15>   H                      3.131328             5.432262             10.233305
| 16>   H                      2.362541             5.562157             11.812722
| 17>   C                      5.691484             3.687589             9.924490
| 18>   O                      6.258085             4.825600             10.501742
| 19>   H                      6.803785             4.441316             11.184949
| 20>   H                      4.910656             3.932939             9.158652
| 21>   H                      6.429347             3.084495             9.375911
| 22>   H                      5.196778             2.975778             10.677494
| 23> *
| 24>
| 25> #Run DFT-D3 single point of the molecule with dimer basis set
| 26> $new_job
| 27> %base "15-197_DFT_A"
| 28> ! wB97X-D3 def2-TZVP TIGHTSCF CHELPG PMODEL
| 29>
| 30> %scf
| 31> MaxIter 1000
| 32> end
| 33>
| 34> * xyz 0 1
| 35>   C                      2.886451             6.089401             11.037753
| 36>   O                      4.041157             6.683180             11.490274
| 37>   H                      4.744214             6.116429             11.163121
| 38>   H                      2.217283             6.806699             10.805423
| 39>   H                      3.131328             5.432262             10.233305
| 40>   H                      2.362541             5.562157             11.812722
| 41>   C                    : 5.691484             3.687589             9.924490
| 42>   O                    : 6.258085             4.825600             10.501742
| 43>   H                    : 6.803785             4.441316             11.184949
| 44>   H                    : 4.910656             3.932939             9.158652
| 45>   H                    : 6.429347             3.084495             9.375911
| 46>   H                    : 5.196778             2.975778             10.677494
| 47> *
| 48>
| 49> #Run DFT-D3 single point of the particle with dimer basis set
| 50> $new_job
| 51> %base "15-197_DFT_B"
| 52> ! wB97X-D3 def2-TZVP TIGHTSCF CHELPG PMODEL
| 53>
| 54> %scf
| 55> MaxIter 1000
| 56> end
| 57>
| 58> * xyz 0 1
| 59>   C                    : 2.886451             6.089401             11.037753
| 60>   O                    : 4.041157             6.683180             11.490274
| 61>   H                    : 4.744214             6.116429             11.163121
| 62>   H                    : 2.217283             6.806699             10.805423
| 63>   H                    : 3.131328             5.432262             10.233305
| 64>   H                    : 2.362541             5.562157             11.812722
| 65>   C                      5.691484             3.687589             9.924490
| 66>   O                      6.258085             4.825600             10.501742
| 67>   H                      6.803785             4.441316             11.184949
| 68>   H                      4.910656             3.932939             9.158652
| 69>   H                      6.429347             3.084495             9.375911
| 70>   H                      5.196778             2.975778             10.677494
| 71> *
| 72>
| 73>                          ****END OF INPUT****
 Total Charge           Charge          ....    0
 Multiplicity           Mult            ....    1
 Number of Electrons    NEL             ....   36
Dispersion correction           -0.002000764
FINAL SINGLE POINT ENERGY      -231.466970082988
Dispersion correction           -0.000202061
FINAL SINGLE POINT ENERGY      -115.725822312731

CARTESIAN COORDINATES (ANGSTROEM)
---------------------------------
  C      2.886451    6.089401   11.037753
  O      4.041157    6.683180   11.490274
  H      4.744214    6.116429   11.163121
  H      2.217283    6.806699   10.805423
  H      3.131328    5.432262   10.233305
  H      2.362541    5.562157   11.812722
  C      5.691484    3.687589    9.924490
  O      6.258085    4.825600   10.501742
  H      6.803785    4.441316   11.184949
  H      4.910656    3.932939    9.158652
  H      6.429347    3.084495    9.375911
  H      5.196778    2.975778   10.677494

 Multiplicity           Mult            ....    1
 Number of Electrons    NEL             ....   18
 Basis Dimension        Dim             ....  172

ORBITAL ENERGIES
----------------

  NO   OCC          E(Eh)            E(eV)
   0   2.0000     -19.237160      -523.4697
   1   2.0000     -10.321323      -280.8575
   2   2.0000      -1.150688       -31.3118
   3   2.0000      -0.787758       -21.4360
   4   2.0000      -0.615228       -16.7412
   5   2.0000      -0.538954       -14.6657
   6   2.0000      -0.529952       -14.4207
   7   2.0000      -0.438032       -11.9194
   8   2.0000      -0.374913       -10.2019
   9   0.0000       0.096039         2.6134
  10   0.0000       0.124730         3.3941
  11   0.0000       0.149869         4.0781
  12   0.0000       0.184682         5.0254
  13   0.0000       0.199417         5.4264

MULLIKEN ATOMIC CHARGES
-----------------------
   0 C :    0.000007
   1 O :   -0.002223
   2 H :   -0.005572
   3 H :    0.000084
   4 H :    0.000572
   5 H :   -0.000095
   6 C :   -0.187115
   7 O :   -0.450360
   8 H :    0.317289
   9 H :    0.121336
  10 H :    0.105846
  11 H :    0.100229
Sum of atomic charges:    0.0000000

LOEWDIN ATOMIC CHARGES
----------------------
   0 C :   -0.002490
   1 O :   -0.003326
   2 H :   -0.031853
   3 H :   -0.000023
   4 H :   -0.002532
   5 H :   -0.000035
   6 C :   -0.416189
   7 O :   -0.026819
   8 H :    0.173608
   9 H :    0.113858
  10 H :    0.093993
  11 H :    0.101807

  Mayer bond orders larger than 0.1
B(  6-C ,  7-O ) :   0.9918 B(  6-C ,  9-H ) :   0.9746 B(  6-C , 10-H ) :   0.9683
B(  6-C , 11-H ) :   0.9754 B(  7-O ,  8-H ) :   0.8986

Dispersion correction           -0.000237865
FINAL SINGLE POINT ENERGY      -115.733244368332

DIPOLE MOMENT
-------------
                                X             Y             Z
Electronic contribution:      0.72622       1.73121       0.69656
Nuclear contribution   :     -0.58649      -2.38282      -0.50439
                        -----------------------------------------
Total Dipole Moment    :      0.13973      -0.65161       0.19217
                        -----------------------------------------
Magnitude (a.u.)       :      0.69358
Magnitude (Debye)      :      1.76293

Rotational constants in cm-1:     4.174570     0.842442     0.808530
Rotational constants in MHz : 125150.458725 25255.769473 24239.105894

                             ****ORCA TERMINATED NORMALLY****
TOTAL RUN TIME: 0 days 0 hours 1 minutes 7 seconds 945 msec
