                         Program Version 4.1.2  - RELEASE  -
|  1> #Run DFT-D3 single point of the dimer
|  2> ! wB97X-D3 def2-TZVP TIGHTSCF CHELPG PMODEL PAL8
|  3>
|  4> %base "15-97_DFT_AB"
|  5>
|  6> %scf
|  7> MaxIter 1000
|  8> end
|  9>
| 10> * xyz 0 1
| 11>   C                      -3.521737            -6.032928            -3.997539
| 12>   O                      -3.209134            -4.842496            -3.204906
| 13>   H                      -3.319984            -4.094860            -3.795784
| 14>   H                      -3.627151            -6.940647            -3.414398
| 15>   H                      -4.523750            -5.897630            -4.422226
| 16>   H                      -2.762533            -6.264531            -4.740990
| 17>   C                      -5.752670            -2.614842            -0.937438
| 18>   O                      -5.811295            -3.348230            -2.117618
| 19>   H                      -6.084452            -2.675142            -2.728560
| 20>   H                      -6.751639            -2.518211            -0.460841
| 21>   H                      -5.101315            -3.075531            -0.228291
| 22>   H                      -5.384440            -1.549916            -1.038424
| 23> *
| 24>
| 25> #Run DFT-D3 single point of the molecule with dimer basis set
| 26> $new_job
| 27> %base "15-97_DFT_A"
| 28> ! wB97X-D3 def2-TZVP TIGHTSCF CHELPG PMODEL
| 29>
| 30> %scf
| 31> MaxIter 1000
| 32> end
| 33>
| 34> * xyz 0 1
| 35>   C                      -3.521737            -6.032928            -3.997539
| 36>   O                      -3.209134            -4.842496            -3.204906
| 37>   H                      -3.319984            -4.094860            -3.795784
| 38>   H                      -3.627151            -6.940647            -3.414398
| 39>   H                      -4.523750            -5.897630            -4.422226
| 40>   H                      -2.762533            -6.264531            -4.740990
| 41>   C                    : -5.752670            -2.614842            -0.937438
| 42>   O                    : -5.811295            -3.348230            -2.117618
| 43>   H                    : -6.084452            -2.675142            -2.728560
| 44>   H                    : -6.751639            -2.518211            -0.460841
| 45>   H                    : -5.101315            -3.075531            -0.228291
| 46>   H                    : -5.384440            -1.549916            -1.038424
| 47> *
| 48>
| 49> #Run DFT-D3 single point of the particle with dimer basis set
| 50> $new_job
| 51> %base "15-97_DFT_B"
| 52> ! wB97X-D3 def2-TZVP TIGHTSCF CHELPG PMODEL
| 53>
| 54> %scf
| 55> MaxIter 1000
| 56> end
| 57>
| 58> * xyz 0 1
| 59>   C                    : -3.521737            -6.032928            -3.997539
| 60>   O                    : -3.209134            -4.842496            -3.204906
| 61>   H                    : -3.319984            -4.094860            -3.795784
| 62>   H                    : -3.627151            -6.940647            -3.414398
| 63>   H                    : -4.523750            -5.897630            -4.422226
| 64>   H                    : -2.762533            -6.264531            -4.740990
| 65>   C                      -5.752670            -2.614842            -0.937438
| 66>   O                      -5.811295            -3.348230            -2.117618
| 67>   H                      -6.084452            -2.675142            -2.728560
| 68>   H                      -6.751639            -2.518211            -0.460841
| 69>   H                      -5.101315            -3.075531            -0.228291
| 70>   H                      -5.384440            -1.549916            -1.038424
| 71> *
| 72>
| 73>                          ****END OF INPUT****
 Total Charge           Charge          ....    0
 Multiplicity           Mult            ....    1
 Number of Electrons    NEL             ....   36
Dispersion correction           -0.001368889
FINAL SINGLE POINT ENERGY      -231.463941428434
Dispersion correction           -0.000258880
FINAL SINGLE POINT ENERGY      -115.732940822322

CARTESIAN COORDINATES (ANGSTROEM)
---------------------------------
  C     -3.521737   -6.032928   -3.997539
  O     -3.209134   -4.842496   -3.204906
  H     -3.319984   -4.094860   -3.795784
  H     -3.627151   -6.940647   -3.414398
  H     -4.523750   -5.897630   -4.422226
  H     -2.762533   -6.264531   -4.740990
  C     -5.752670   -2.614842   -0.937438
  O     -5.811295   -3.348230   -2.117618
  H     -6.084452   -2.675142   -2.728560
  H     -6.751639   -2.518211   -0.460841
  H     -5.101315   -3.075531   -0.228291
  H     -5.384440   -1.549916   -1.038424

 Multiplicity           Mult            ....    1
 Number of Electrons    NEL             ....   18
 Basis Dimension        Dim             ....  172

ORBITAL ENERGIES
----------------

  NO   OCC          E(Eh)            E(eV)
   0   2.0000     -19.235639      -523.4284
   1   2.0000     -10.314345      -280.6676
   2   2.0000      -1.153653       -31.3925
   3   2.0000      -0.792361       -21.5612
   4   2.0000      -0.618006       -16.8168
   5   2.0000      -0.542288       -14.7564
   6   2.0000      -0.530521       -14.4362
   7   2.0000      -0.442454       -12.0398
   8   2.0000      -0.374234       -10.1834
   9   0.0000       0.095059         2.5867
  10   0.0000       0.118889         3.2351
  11   0.0000       0.154918         4.2155
  12   0.0000       0.181128         4.9287
  13   0.0000       0.192663         5.2426

MULLIKEN ATOMIC CHARGES
-----------------------
   0 C :   -0.000652
   1 O :    0.001168
   2 H :   -0.004277
   3 H :    0.000084
   4 H :   -0.000794
   5 H :   -0.000124
   6 C :   -0.181353
   7 O :   -0.446177
   8 H :    0.315199
   9 H :    0.097622
  10 H :    0.120437
  11 H :    0.098868
Sum of atomic charges:    0.0000000

LOEWDIN ATOMIC CHARGES
----------------------
   0 C :   -0.001646
   1 O :   -0.004163
   2 H :   -0.003953
   3 H :   -0.000024
   4 H :   -0.000481
   5 H :   -0.000029
   6 C :   -0.414744
   7 O :   -0.041800
   8 H :    0.170358
   9 H :    0.096371
  10 H :    0.099838
  11 H :    0.100274

  Mayer bond orders larger than 0.1
B(  6-C ,  7-O ) :   1.0036 B(  6-C ,  9-H ) :   0.9715 B(  6-C , 10-H ) :   0.9770
B(  6-C , 11-H ) :   0.9763 B(  7-O ,  8-H ) :   0.9031

Dispersion correction           -0.000228140
FINAL SINGLE POINT ENERGY      -115.732901427866

DIPOLE MOMENT
-------------
                                X             Y             Z
Electronic contribution:      0.00704      -1.20819      -1.56643
Nuclear contribution   :     -0.14563       1.89382       1.62368
                        -----------------------------------------
Total Dipole Moment    :     -0.13860       0.68563       0.05725
                        -----------------------------------------
Magnitude (a.u.)       :      0.70184
Magnitude (Debye)      :      1.78394

Rotational constants in cm-1:     4.284278     0.853394     0.821218
Rotational constants in MHz : 128439.411327 25584.107820 24619.495656

                             ****ORCA TERMINATED NORMALLY****
TOTAL RUN TIME: 0 days 0 hours 0 minutes 46 seconds 789 msec
