                         Program Version 4.1.2  - RELEASE  -
|  1> #Run DFT-D3 single point of the dimer
|  2> ! wB97X-D3 def2-TZVP TIGHTSCF CHELPG PMODEL PAL8
|  3>
|  4> %base "10-7_DFT_AB"
|  5>
|  6> %scf
|  7> MaxIter 1000
|  8> end
|  9>
| 10> * xyz 0 1
| 11>   C                      -6.423069            5.566092             9.013381
| 12>   O                      -6.490406            6.939785             8.703720
| 13>   H                      -5.816488            7.100692             8.090013
| 14>   H                      -7.316964            5.205827             9.520099
| 15>   H                      -6.371598            4.942767             8.107187
| 16>   H                      -5.565183            5.306817             9.669080
| 17>   C                      -8.097292            3.456859             6.308405
| 18>   O                      -7.734762            3.411450             4.914045
| 19>   H                      -8.319699            2.743882             4.430816
| 20>   H                      -8.341245            4.456401             6.724178
| 21>   H                      -8.969842            2.828563             6.564867
| 22>   H                      -7.279462            3.065835             6.868088
| 23> *
| 24>
| 25> #Run DFT-D3 single point of the molecule with dimer basis set
| 26> $new_job
| 27> %base "10-7_DFT_A"
| 28> ! wB97X-D3 def2-TZVP TIGHTSCF CHELPG PMODEL
| 29>
| 30> %scf
| 31> MaxIter 1000
| 32> end
| 33>
| 34> * xyz 0 1
| 35>   C                      -6.423069            5.566092             9.013381
| 36>   O                      -6.490406            6.939785             8.703720
| 37>   H                      -5.816488            7.100692             8.090013
| 38>   H                      -7.316964            5.205827             9.520099
| 39>   H                      -6.371598            4.942767             8.107187
| 40>   H                      -5.565183            5.306817             9.669080
| 41>   C                    : -8.097292            3.456859             6.308405
| 42>   O                    : -7.734762            3.411450             4.914045
| 43>   H                    : -8.319699            2.743882             4.430816
| 44>   H                    : -8.341245            4.456401             6.724178
| 45>   H                    : -8.969842            2.828563             6.564867
| 46>   H                    : -7.279462            3.065835             6.868088
| 47> *
| 48>
| 49> #Run DFT-D3 single point of the particle with dimer basis set
| 50> $new_job
| 51> %base "10-7_DFT_B"
| 52> ! wB97X-D3 def2-TZVP TIGHTSCF CHELPG PMODEL
| 53>
| 54> %scf
| 55> MaxIter 1000
| 56> end
| 57>
| 58> * xyz 0 1
| 59>   C                    : -6.423069            5.566092             9.013381
| 60>   O                    : -6.490406            6.939785             8.703720
| 61>   H                    : -5.816488            7.100692             8.090013
| 62>   H                    : -7.316964            5.205827             9.520099
| 63>   H                    : -6.371598            4.942767             8.107187
| 64>   H                    : -5.565183            5.306817             9.669080
| 65>   C                      -8.097292            3.456859             6.308405
| 66>   O                      -7.734762            3.411450             4.914045
| 67>   H                      -8.319699            2.743882             4.430816
| 68>   H                      -8.341245            4.456401             6.724178
| 69>   H                      -8.969842            2.828563             6.564867
| 70>   H                      -7.279462            3.065835             6.868088
| 71> *
| 72>
| 73>                          ****END OF INPUT****
 Total Charge           Charge          ....    0
 Multiplicity           Mult            ....    1
 Number of Electrons    NEL             ....   36
Dispersion correction           -0.001536759
FINAL SINGLE POINT ENERGY      -231.465651784434
Dispersion correction           -0.000241908
FINAL SINGLE POINT ENERGY      -115.735015452375

CARTESIAN COORDINATES (ANGSTROEM)
---------------------------------
  C     -6.423069    5.566092    9.013381
  O     -6.490406    6.939785    8.703720
  H     -5.816488    7.100692    8.090013
  H     -7.316964    5.205827    9.520099
  H     -6.371598    4.942767    8.107187
  H     -5.565183    5.306817    9.669080
  C     -8.097292    3.456859    6.308405
  O     -7.734762    3.411450    4.914045
  H     -8.319699    2.743882    4.430816
  H     -8.341245    4.456401    6.724178
  H     -8.969842    2.828563    6.564867
  H     -7.279462    3.065835    6.868088

 Multiplicity           Mult            ....    1
 Number of Electrons    NEL             ....   18
 Basis Dimension        Dim             ....  172

ORBITAL ENERGIES
----------------

  NO   OCC          E(Eh)            E(eV)
   0   2.0000     -19.234866      -523.4073
   1   2.0000     -10.314841      -280.6811
   2   2.0000      -1.117850       -30.4182
   3   2.0000      -0.794506       -21.6196
   4   2.0000      -0.602075       -16.3833
   5   2.0000      -0.536316       -14.5939
   6   2.0000      -0.522063       -14.2061
   7   2.0000      -0.430749       -11.7213
   8   2.0000      -0.373530       -10.1643
   9   0.0000       0.087598         2.3837
  10   0.0000       0.108211         2.9446
  11   0.0000       0.148574         4.0429
  12   0.0000       0.170689         4.6447
  13   0.0000       0.184205         5.0125

MULLIKEN ATOMIC CHARGES
-----------------------
   0 C :   -0.000737
   1 O :   -0.000045
   2 H :   -0.000027
   3 H :    0.000187
   4 H :    0.000763
   5 H :   -0.000029
   6 C :   -0.179380
   7 O :   -0.480352
   8 H :    0.321555
   9 H :    0.109962
  10 H :    0.109567
  11 H :    0.118538
Sum of atomic charges:    0.0000000

LOEWDIN ATOMIC CHARGES
----------------------
   0 C :   -0.004567
   1 O :   -0.000036
   2 H :   -0.000020
   3 H :   -0.000406
   4 H :   -0.005813
   5 H :   -0.000024
   6 C :   -0.368693
   7 O :   -0.118712
   8 H :    0.196745
   9 H :    0.106058
  10 H :    0.099177
  11 H :    0.096291

  Mayer bond orders larger than 0.1
B(  6-C ,  7-O ) :   1.0127 B(  6-C ,  9-H ) :   0.9685 B(  6-C , 10-H ) :   0.9765
B(  6-C , 11-H ) :   0.9781 B(  7-O ,  8-H ) :   0.8904

Dispersion correction           -0.000275467
FINAL SINGLE POINT ENERGY      -115.729930597732

DIPOLE MOMENT
-------------
                                X             Y             Z
Electronic contribution:      0.57879       0.09418      -1.80143
Nuclear contribution   :     -1.10372      -0.51586       2.07317
                        -----------------------------------------
Total Dipole Moment    :     -0.52493      -0.42168       0.27173
                        -----------------------------------------
Magnitude (a.u.)       :      0.72609
Magnitude (Debye)      :      1.84557

Rotational constants in cm-1:     4.331999     0.794031     0.764376
Rotational constants in MHz : 129870.059094 23804.441719 22915.402490

                             ****ORCA TERMINATED NORMALLY****
TOTAL RUN TIME: 0 days 0 hours 1 minutes 5 seconds 981 msec
