                         Program Version 4.1.2  - RELEASE  -
|  1> #Run DFT-D3 single point of the dimer
|  2> ! wB97X-D3 def2-TZVP TIGHTSCF CHELPG PMODEL PAL8
|  3>
|  4> %base "11-46_DFT_AB"
|  5>
|  6> %scf
|  7> MaxIter 1000
|  8> end
|  9>
| 10> * xyz 0 1
| 11>   C                      -6.809828            -7.466043            3.576054
| 12>   O                      -7.899568            -7.122431            2.761647
| 13>   H                      -8.485116            -6.571884            3.300043
| 14>   H                      -6.140757            -8.235801            3.211368
| 15>   H                      -6.195975            -6.624707            3.804071
| 16>   H                      -7.153628            -7.872314            4.553636
| 17>   C                      -7.659629            -4.472034            5.252038
| 18>   O                      -8.518829            -4.748822            4.136675
| 19>   H                      -9.275437            -4.126430            4.062496
| 20>   H                      -6.893624            -5.275388            5.267629
| 21>   H                      -7.228614            -3.404280            5.310936
| 22>   H                      -8.259196            -4.497080            6.162074
| 23> *
| 24>
| 25> #Run DFT-D3 single point of the molecule with dimer basis set
| 26> $new_job
| 27> %base "11-46_DFT_A"
| 28> ! wB97X-D3 def2-TZVP TIGHTSCF CHELPG PMODEL
| 29>
| 30> %scf
| 31> MaxIter 1000
| 32> end
| 33>
| 34> * xyz 0 1
| 35>   C                      -6.809828            -7.466043            3.576054
| 36>   O                      -7.899568            -7.122431            2.761647
| 37>   H                      -8.485116            -6.571884            3.300043
| 38>   H                      -6.140757            -8.235801            3.211368
| 39>   H                      -6.195975            -6.624707            3.804071
| 40>   H                      -7.153628            -7.872314            4.553636
| 41>   C                    : -7.659629            -4.472034            5.252038
| 42>   O                    : -8.518829            -4.748822            4.136675
| 43>   H                    : -9.275437            -4.126430            4.062496
| 44>   H                    : -6.893624            -5.275388            5.267629
| 45>   H                    : -7.228614            -3.404280            5.310936
| 46>   H                    : -8.259196            -4.497080            6.162074
| 47> *
| 48>
| 49> #Run DFT-D3 single point of the particle with dimer basis set
| 50> $new_job
| 51> %base "11-46_DFT_B"
| 52> ! wB97X-D3 def2-TZVP TIGHTSCF CHELPG PMODEL
| 53>
| 54> %scf
| 55> MaxIter 1000
| 56> end
| 57>
| 58> * xyz 0 1
| 59>   C                    : -6.809828            -7.466043            3.576054
| 60>   O                    : -7.899568            -7.122431            2.761647
| 61>   H                    : -8.485116            -6.571884            3.300043
| 62>   H                    : -6.140757            -8.235801            3.211368
| 63>   H                    : -6.195975            -6.624707            3.804071
| 64>   H                    : -7.153628            -7.872314            4.553636
| 65>   C                      -7.659629            -4.472034            5.252038
| 66>   O                      -8.518829            -4.748822            4.136675
| 67>   H                      -9.275437            -4.126430            4.062496
| 68>   H                      -6.893624            -5.275388            5.267629
| 69>   H                      -7.228614            -3.404280            5.310936
| 70>   H                      -8.259196            -4.497080            6.162074
| 71> *
| 72>
| 73>                          ****END OF INPUT****
 Total Charge           Charge          ....    0
 Multiplicity           Mult            ....    1
 Number of Electrons    NEL             ....   36
Dispersion correction           -0.002222580
FINAL SINGLE POINT ENERGY      -231.469948837310
Dispersion correction           -0.000234372
FINAL SINGLE POINT ENERGY      -115.733690913766

CARTESIAN COORDINATES (ANGSTROEM)
---------------------------------
  C     -6.809828   -7.466043    3.576054
  O     -7.899568   -7.122431    2.761647
  H     -8.485116   -6.571884    3.300043
  H     -6.140757   -8.235801    3.211368
  H     -6.195975   -6.624707    3.804071
  H     -7.153628   -7.872314    4.553636
  C     -7.659629   -4.472034    5.252038
  O     -8.518829   -4.748822    4.136675
  H     -9.275437   -4.126430    4.062496
  H     -6.893624   -5.275388    5.267629
  H     -7.228614   -3.404280    5.310936
  H     -8.259196   -4.497080    6.162074

 Multiplicity           Mult            ....    1
 Number of Electrons    NEL             ....   18
 Basis Dimension        Dim             ....  172

ORBITAL ENERGIES
----------------

  NO   OCC          E(Eh)            E(eV)
   0   2.0000     -19.231565      -523.3175
   1   2.0000     -10.323732      -280.9230
   2   2.0000      -1.123420       -30.5698
   3   2.0000      -0.791709       -21.5435
   4   2.0000      -0.609427       -16.5834
   5   2.0000      -0.526543       -14.3280
   6   2.0000      -0.523661       -14.2495
   7   2.0000      -0.434190       -11.8149
   8   2.0000      -0.369414       -10.0523
   9   0.0000       0.096873         2.6361
  10   0.0000       0.123524         3.3613
  11   0.0000       0.149371         4.0646
  12   0.0000       0.194026         5.2797
  13   0.0000       0.197294         5.3686

MULLIKEN ATOMIC CHARGES
-----------------------
   0 C :    0.004159
   1 O :    0.001293
   2 H :   -0.011388
   3 H :    0.000182
   4 H :   -0.000033
   5 H :   -0.001482
   6 C :   -0.156404
   7 O :   -0.481758
   8 H :    0.315170
   9 H :    0.125125
  10 H :    0.098184
  11 H :    0.106954
Sum of atomic charges:   -0.0000000

LOEWDIN ATOMIC CHARGES
----------------------
   0 C :   -0.010713
   1 O :   -0.006967
   2 H :   -0.036273
   3 H :   -0.000043
   4 H :   -0.005662
   5 H :   -0.000838
   6 C :   -0.370413
   7 O :   -0.062964
   8 H :    0.177300
   9 H :    0.119446
  10 H :    0.104028
  11 H :    0.093100

  Mayer bond orders larger than 0.1
B(  6-C ,  7-O ) :   0.9888 B(  6-C ,  9-H ) :   0.9750 B(  6-C , 10-H ) :   0.9636
B(  6-C , 11-H ) :   0.9799 B(  7-O ,  8-H ) :   0.8905

Dispersion correction           -0.000274713
FINAL SINGLE POINT ENERGY      -115.730961962261

DIPOLE MOMENT
-------------
                                X             Y             Z
Electronic contribution:     -0.92255      -0.49339      -1.48533
Nuclear contribution   :      0.76889       0.99605       1.91364
                        -----------------------------------------
Total Dipole Moment    :     -0.15367       0.50266       0.42831
                        -----------------------------------------
Magnitude (a.u.)       :      0.67803
Magnitude (Debye)      :      1.72342

Rotational constants in cm-1:     4.160759     0.806943     0.767176
Rotational constants in MHz : 124736.415357 24191.549897 22999.366388

                             ****ORCA TERMINATED NORMALLY****
TOTAL RUN TIME: 0 days 0 hours 1 minutes 12 seconds 828 msec
