                         Program Version 4.1.2  - RELEASE  -
|  1> #Run DFT-D3 single point of the dimer
|  2> ! wB97X-D3 def2-TZVP TIGHTSCF CHELPG PMODEL PAL8
|  3>
|  4> %base "7-57_DFT_AB"
|  5>
|  6> %scf
|  7> MaxIter 1000
|  8> end
|  9>
| 10> * xyz 0 1
| 11>   C                      -1.585404            3.392058             7.212129
| 12>   O                      -2.120105            3.744945             8.520689
| 13>   H                      -1.462705            3.477092             9.167592
| 14>   H                      -2.311762            3.531126             6.455074
| 15>   H                      -0.759444            4.075805             6.822156
| 16>   H                      -1.228848            2.336794             7.215379
| 17>   C                      -1.131126            6.943872             9.337002
| 18>   O                      -1.336318            6.584339             7.948773
| 19>   H                      -2.032077            5.936859             7.854210
| 20>   H                      -2.051176            7.337864             9.696394
| 21>   H                      -0.953307            6.030843             9.931406
| 22>   H                      -0.297737            7.670743             9.423129
| 23> *
| 24>
| 25> #Run DFT-D3 single point of the molecule with dimer basis set
| 26> $new_job
| 27> %base "7-57_DFT_A"
| 28> ! wB97X-D3 def2-TZVP TIGHTSCF CHELPG PMODEL
| 29>
| 30> %scf
| 31> MaxIter 1000
| 32> end
| 33>
| 34> * xyz 0 1
| 35>   C                      -1.585404            3.392058             7.212129
| 36>   O                      -2.120105            3.744945             8.520689
| 37>   H                      -1.462705            3.477092             9.167592
| 38>   H                      -2.311762            3.531126             6.455074
| 39>   H                      -0.759444            4.075805             6.822156
| 40>   H                      -1.228848            2.336794             7.215379
| 41>   C                    : -1.131126            6.943872             9.337002
| 42>   O                    : -1.336318            6.584339             7.948773
| 43>   H                    : -2.032077            5.936859             7.854210
| 44>   H                    : -2.051176            7.337864             9.696394
| 45>   H                    : -0.953307            6.030843             9.931406
| 46>   H                    : -0.297737            7.670743             9.423129
| 47> *
| 48>
| 49> #Run DFT-D3 single point of the particle with dimer basis set
| 50> $new_job
| 51> %base "7-57_DFT_B"
| 52> ! wB97X-D3 def2-TZVP TIGHTSCF CHELPG PMODEL
| 53>
| 54> %scf
| 55> MaxIter 1000
| 56> end
| 57>
| 58> * xyz 0 1
| 59>   C                    : -1.585404            3.392058             7.212129
| 60>   O                    : -2.120105            3.744945             8.520689
| 61>   H                    : -1.462705            3.477092             9.167592
| 62>   H                    : -2.311762            3.531126             6.455074
| 63>   H                    : -0.759444            4.075805             6.822156
| 64>   H                    : -1.228848            2.336794             7.215379
| 65>   C                      -1.131126            6.943872             9.337002
| 66>   O                      -1.336318            6.584339             7.948773
| 67>   H                      -2.032077            5.936859             7.854210
| 68>   H                      -2.051176            7.337864             9.696394
| 69>   H                      -0.953307            6.030843             9.931406
| 70>   H                      -0.297737            7.670743             9.423129
| 71> *
| 72>
| 73>                          ****END OF INPUT****
 Total Charge           Charge          ....    0
 Multiplicity           Mult            ....    1
 Number of Electrons    NEL             ....   36
Dispersion correction           -0.002205864
FINAL SINGLE POINT ENERGY      -231.471779139954
Dispersion correction           -0.000275674
FINAL SINGLE POINT ENERGY      -115.732308714479

CARTESIAN COORDINATES (ANGSTROEM)
---------------------------------
  C     -1.585404    3.392058    7.212129
  O     -2.120105    3.744945    8.520689
  H     -1.462705    3.477092    9.167592
  H     -2.311762    3.531126    6.455074
  H     -0.759444    4.075805    6.822156
  H     -1.228848    2.336794    7.215379
  C     -1.131126    6.943872    9.337002
  O     -1.336318    6.584339    7.948773
  H     -2.032077    5.936859    7.854210
  H     -2.051176    7.337864    9.696394
  H     -0.953307    6.030843    9.931406
  H     -0.297737    7.670743    9.423129

 Multiplicity           Mult            ....    1
 Number of Electrons    NEL             ....   18
 Basis Dimension        Dim             ....  172

ORBITAL ENERGIES
----------------

  NO   OCC          E(Eh)            E(eV)
   0   2.0000     -19.226133      -523.1697
   1   2.0000     -10.317082      -280.7421
   2   2.0000      -1.124040       -30.5867
   3   2.0000      -0.798317       -21.7233
   4   2.0000      -0.606330       -16.4991
   5   2.0000      -0.537666       -14.6306
   6   2.0000      -0.528190       -14.3728
   7   2.0000      -0.433478       -11.7955
   8   2.0000      -0.371466       -10.1081
   9   0.0000       0.077302         2.1035
  10   0.0000       0.134929         3.6716
  11   0.0000       0.147578         4.0158
  12   0.0000       0.171239         4.6597
  13   0.0000       0.192850         5.2477

MULLIKEN ATOMIC CHARGES
-----------------------
   0 C :   -0.006061
   1 O :   -0.003780
   2 H :   -0.000092
   3 H :    0.000793
   4 H :   -0.004617
   5 H :   -0.000479
   6 C :   -0.160532
   7 O :   -0.480421
   8 H :    0.313904
   9 H :    0.109661
  10 H :    0.104757
  11 H :    0.126867
Sum of atomic charges:    0.0000000

LOEWDIN ATOMIC CHARGES
----------------------
   0 C :   -0.012157
   1 O :   -0.008707
   2 H :   -0.001667
   3 H :   -0.000502
   4 H :   -0.006254
   5 H :   -0.000161
   6 C :   -0.349230
   7 O :   -0.086923
   8 H :    0.163550
   9 H :    0.089961
  10 H :    0.098124
  11 H :    0.113966

  Mayer bond orders larger than 0.1
B(  6-C ,  7-O ) :   0.9859 B(  6-C ,  9-H ) :   0.9844 B(  6-C , 10-H ) :   0.9737
B(  6-C , 11-H ) :   0.9703 B(  7-O ,  8-H ) :   0.9002

Dispersion correction           -0.000240705
FINAL SINGLE POINT ENERGY      -115.734165922835

DIPOLE MOMENT
-------------
                                X             Y             Z
Electronic contribution:     -0.08459      -0.25289      -1.68145
Nuclear contribution   :     -0.28079       0.01597       2.22795
                        -----------------------------------------
Total Dipole Moment    :     -0.36538      -0.23692       0.54650
                        -----------------------------------------
Magnitude (a.u.)       :      0.69878
Magnitude (Debye)      :      1.77617

Rotational constants in cm-1:     4.271598     0.806681     0.771108
Rotational constants in MHz : 128059.278689 24183.685318 23117.246445

                             ****ORCA TERMINATED NORMALLY****
TOTAL RUN TIME: 0 days 0 hours 1 minutes 14 seconds 879 msec
