                         Program Version 4.1.2  - RELEASE  -
|  1> #Run DFT-D3 single point of the dimer
|  2> ! wB97X-D3 def2-TZVP TIGHTSCF CHELPG PMODEL PAL8
|  3>
|  4> %base "6-193_DFT_AB"
|  5>
|  6> %scf
|  7> MaxIter 1000
|  8> end
|  9>
| 10> * xyz 0 1
| 11>   C                      1.922953             -3.077625            2.484926
| 12>   O                      1.345528             -3.086113            1.131528
| 13>   H                      1.970459             -2.601192            0.562478
| 14>   H                      2.975251             -2.827903            2.476688
| 15>   H                      1.326520             -2.461149            3.132407
| 16>   H                      1.791371             -4.136435            2.840835
| 17>   C                      3.907215             -1.347456            -1.080740
| 18>   O                      3.559798             -1.759737            0.190437
| 19>   H                      3.127090             -1.043949            0.616142
| 20>   H                      3.067104             -1.087912            -1.704948
| 21>   H                      4.430530             -0.384175            -0.984382
| 22>   H                      4.629387             -2.130290            -1.448063
| 23> *
| 24>
| 25> #Run DFT-D3 single point of the molecule with dimer basis set
| 26> $new_job
| 27> %base "6-193_DFT_A"
| 28> ! wB97X-D3 def2-TZVP TIGHTSCF CHELPG PMODEL
| 29>
| 30> %scf
| 31> MaxIter 1000
| 32> end
| 33>
| 34> * xyz 0 1
| 35>   C                      1.922953             -3.077625            2.484926
| 36>   O                      1.345528             -3.086113            1.131528
| 37>   H                      1.970459             -2.601192            0.562478
| 38>   H                      2.975251             -2.827903            2.476688
| 39>   H                      1.326520             -2.461149            3.132407
| 40>   H                      1.791371             -4.136435            2.840835
| 41>   C                    : 3.907215             -1.347456            -1.080740
| 42>   O                    : 3.559798             -1.759737            0.190437
| 43>   H                    : 3.127090             -1.043949            0.616142
| 44>   H                    : 3.067104             -1.087912            -1.704948
| 45>   H                    : 4.430530             -0.384175            -0.984382
| 46>   H                    : 4.629387             -2.130290            -1.448063
| 47> *
| 48>
| 49> #Run DFT-D3 single point of the particle with dimer basis set
| 50> $new_job
| 51> %base "6-193_DFT_B"
| 52> ! wB97X-D3 def2-TZVP TIGHTSCF CHELPG PMODEL
| 53>
| 54> %scf
| 55> MaxIter 1000
| 56> end
| 57>
| 58> * xyz 0 1
| 59>   C                    : 1.922953             -3.077625            2.484926
| 60>   O                    : 1.345528             -3.086113            1.131528
| 61>   H                    : 1.970459             -2.601192            0.562478
| 62>   H                    : 2.975251             -2.827903            2.476688
| 63>   H                    : 1.326520             -2.461149            3.132407
| 64>   H                    : 1.791371             -4.136435            2.840835
| 65>   C                      3.907215             -1.347456            -1.080740
| 66>   O                      3.559798             -1.759737            0.190437
| 67>   H                      3.127090             -1.043949            0.616142
| 68>   H                      3.067104             -1.087912            -1.704948
| 69>   H                      4.430530             -0.384175            -0.984382
| 70>   H                      4.629387             -2.130290            -1.448063
| 71> *
| 72>
| 73>                          ****END OF INPUT****
 Total Charge           Charge          ....    0
 Multiplicity           Mult            ....    1
 Number of Electrons    NEL             ....   36
Dispersion correction           -0.001849683
FINAL SINGLE POINT ENERGY      -231.468701017103
Dispersion correction           -0.000260909
FINAL SINGLE POINT ENERGY      -115.732737205302

CARTESIAN COORDINATES (ANGSTROEM)
---------------------------------
  C      1.922953   -3.077625    2.484926
  O      1.345528   -3.086113    1.131528
  H      1.970459   -2.601192    0.562478
  H      2.975251   -2.827903    2.476688
  H      1.326520   -2.461149    3.132407
  H      1.791371   -4.136435    2.840835
  C      3.907215   -1.347456   -1.080740
  O      3.559798   -1.759737    0.190437
  H      3.127090   -1.043949    0.616142
  H      3.067104   -1.087912   -1.704948
  H      4.430530   -0.384175   -0.984382
  H      4.629387   -2.130290   -1.448063

 Multiplicity           Mult            ....    1
 Number of Electrons    NEL             ....   18
 Basis Dimension        Dim             ....  172

ORBITAL ENERGIES
----------------

  NO   OCC          E(Eh)            E(eV)
   0   2.0000     -19.228211      -523.2262
   1   2.0000     -10.312717      -280.6233
   2   2.0000      -1.152640       -31.3649
   3   2.0000      -0.793670       -21.5969
   4   2.0000      -0.626539       -17.0490
   5   2.0000      -0.544018       -14.8035
   6   2.0000      -0.526240       -14.3197
   7   2.0000      -0.437109       -11.8943
   8   2.0000      -0.369784       -10.0623
   9   0.0000       0.095133         2.5887
  10   0.0000       0.127985         3.4827
  11   0.0000       0.163085         4.4378
  12   0.0000       0.184604         5.0233
  13   0.0000       0.192554         5.2397

MULLIKEN ATOMIC CHARGES
-----------------------
   0 C :    0.003638
   1 O :    0.006174
   2 H :   -0.028805
   3 H :   -0.006599
   4 H :    0.000079
   5 H :   -0.000489
   6 C :   -0.165820
   7 O :   -0.441351
   8 H :    0.312253
   9 H :    0.102776
  10 H :    0.095585
  11 H :    0.122559
Sum of atomic charges:    0.0000000

LOEWDIN ATOMIC CHARGES
----------------------
   0 C :   -0.010397
   1 O :   -0.008308
   2 H :   -0.053360
   3 H :   -0.006521
   4 H :   -0.000117
   5 H :   -0.000109
   6 C :   -0.406991
   7 O :    0.016145
   8 H :    0.163935
   9 H :    0.090177
  10 H :    0.095479
  11 H :    0.120066

  Mayer bond orders larger than 0.1
B(  6-C ,  7-O ) :   0.9877 B(  6-C ,  9-H ) :   0.9674 B(  6-C , 10-H ) :   0.9825
B(  6-C , 11-H ) :   0.9755 B(  7-O ,  8-H ) :   0.8999

Dispersion correction           -0.000209262
FINAL SINGLE POINT ENERGY      -115.731512510145

DIPOLE MOMENT
-------------
                                X             Y             Z
Electronic contribution:     -0.47261      -0.73859       1.51876
Nuclear contribution   :      0.34124       1.37888      -1.71536
                        -----------------------------------------
Total Dipole Moment    :     -0.13136       0.64030      -0.19660
                        -----------------------------------------
Magnitude (a.u.)       :      0.68256
Magnitude (Debye)      :      1.73493

Rotational constants in cm-1:     4.187659     0.882315     0.834787
Rotational constants in MHz : 125542.856583 26451.146054 25026.278619

                             ****ORCA TERMINATED NORMALLY****
TOTAL RUN TIME: 0 days 0 hours 1 minutes 9 seconds 375 msec
