                         Program Version 4.1.2  - RELEASE  -
|  1> #Run DFT-D3 single point of the dimer
|  2> ! wB97X-D3 def2-TZVP TIGHTSCF CHELPG PMODEL PAL8
|  3>
|  4> %base "15-189_DFT_AB"
|  5>
|  6> %scf
|  7> MaxIter 1000
|  8> end
|  9>
| 10> * xyz 0 1
| 11>   C                      6.012046             9.114795             10.896765
| 12>   O                      4.612683             9.301395             11.248286
| 13>   H                      4.219593             8.451475             11.427223
| 14>   H                      6.083966             8.606878             9.913786
| 15>   H                      6.563335             10.074568            10.709526
| 16>   H                      6.603153             8.510267             11.631314
| 17>   C                      2.025494             10.036831            8.746063
| 18>   O                      2.493748             8.885438             9.376842
| 19>   H                      3.256075             9.161430             9.885632
| 20>   H                      1.196785             9.918362             8.026362
| 21>   H                      1.828407             10.940618            9.348928
| 22>   H                      2.829153             10.360835            8.101614
| 23> *
| 24>
| 25> #Run DFT-D3 single point of the molecule with dimer basis set
| 26> $new_job
| 27> %base "15-189_DFT_A"
| 28> ! wB97X-D3 def2-TZVP TIGHTSCF CHELPG PMODEL
| 29>
| 30> %scf
| 31> MaxIter 1000
| 32> end
| 33>
| 34> * xyz 0 1
| 35>   C                      6.012046             9.114795             10.896765
| 36>   O                      4.612683             9.301395             11.248286
| 37>   H                      4.219593             8.451475             11.427223
| 38>   H                      6.083966             8.606878             9.913786
| 39>   H                      6.563335             10.074568            10.709526
| 40>   H                      6.603153             8.510267             11.631314
| 41>   C                    : 2.025494             10.036831            8.746063
| 42>   O                    : 2.493748             8.885438             9.376842
| 43>   H                    : 3.256075             9.161430             9.885632
| 44>   H                    : 1.196785             9.918362             8.026362
| 45>   H                    : 1.828407             10.940618            9.348928
| 46>   H                    : 2.829153             10.360835            8.101614
| 47> *
| 48>
| 49> #Run DFT-D3 single point of the particle with dimer basis set
| 50> $new_job
| 51> %base "15-189_DFT_B"
| 52> ! wB97X-D3 def2-TZVP TIGHTSCF CHELPG PMODEL
| 53>
| 54> %scf
| 55> MaxIter 1000
| 56> end
| 57>
| 58> * xyz 0 1
| 59>   C                    : 6.012046             9.114795             10.896765
| 60>   O                    : 4.612683             9.301395             11.248286
| 61>   H                    : 4.219593             8.451475             11.427223
| 62>   H                    : 6.083966             8.606878             9.913786
| 63>   H                    : 6.563335             10.074568            10.709526
| 64>   H                    : 6.603153             8.510267             11.631314
| 65>   C                      2.025494             10.036831            8.746063
| 66>   O                      2.493748             8.885438             9.376842
| 67>   H                      3.256075             9.161430             9.885632
| 68>   H                      1.196785             9.918362             8.026362
| 69>   H                      1.828407             10.940618            9.348928
| 70>   H                      2.829153             10.360835            8.101614
| 71> *
| 72>
| 73>                          ****END OF INPUT****
 Total Charge           Charge          ....    0
 Multiplicity           Mult            ....    1
 Number of Electrons    NEL             ....   36
Dispersion correction           -0.001675773
FINAL SINGLE POINT ENERGY      -231.469568064759
Dispersion correction           -0.000280911
FINAL SINGLE POINT ENERGY      -115.732940342996

CARTESIAN COORDINATES (ANGSTROEM)
---------------------------------
  C      6.012046    9.114795   10.896765
  O      4.612683    9.301395   11.248286
  H      4.219593    8.451475   11.427223
  H      6.083966    8.606878    9.913786
  H      6.563335   10.074568   10.709526
  H      6.603153    8.510267   11.631314
  C      2.025494   10.036831    8.746063
  O      2.493748    8.885438    9.376842
  H      3.256075    9.161430    9.885632
  H      1.196785    9.918362    8.026362
  H      1.828407   10.940618    9.348928
  H      2.829153   10.360835    8.101614

 Multiplicity           Mult            ....    1
 Number of Electrons    NEL             ....   18
 Basis Dimension        Dim             ....  172

ORBITAL ENERGIES
----------------

  NO   OCC          E(Eh)            E(eV)
   0   2.0000     -19.234609      -523.4003
   1   2.0000     -10.312150      -280.6079
   2   2.0000      -1.147219       -31.2174
   3   2.0000      -0.796109       -21.6632
   4   2.0000      -0.619230       -16.8501
   5   2.0000      -0.538182       -14.6447
   6   2.0000      -0.534457       -14.5433
   7   2.0000      -0.436098       -11.8668
   8   2.0000      -0.370424       -10.0797
   9   0.0000       0.071857         1.9553
  10   0.0000       0.131279         3.5723
  11   0.0000       0.147014         4.0005
  12   0.0000       0.173570         4.7231
  13   0.0000       0.189815         5.1651

MULLIKEN ATOMIC CHARGES
-----------------------
   0 C :   -0.001827
   1 O :   -0.002023
   2 H :   -0.001262
   3 H :   -0.000386
   4 H :    0.000060
   5 H :   -0.000032
   6 C :   -0.186203
   7 O :   -0.456945
   8 H :    0.318856
   9 H :    0.121998
  10 H :    0.101985
  11 H :    0.105780
Sum of atomic charges:   -0.0000000

LOEWDIN ATOMIC CHARGES
----------------------
   0 C :   -0.003359
   1 O :   -0.019314
   2 H :   -0.005956
   3 H :   -0.000666
   4 H :   -0.000045
   5 H :   -0.000064
   6 C :   -0.412277
   7 O :   -0.043918
   8 H :    0.184688
   9 H :    0.111657
  10 H :    0.095590
  11 H :    0.093663

  Mayer bond orders larger than 0.1
B(  6-C ,  7-O ) :   0.9955 B(  6-C ,  9-H ) :   0.9707 B(  6-C , 10-H ) :   0.9662
B(  6-C , 11-H ) :   0.9918 B(  7-O ,  8-H ) :   0.8995

Dispersion correction           -0.000234041
FINAL SINGLE POINT ENERGY      -115.729246340174

DIPOLE MOMENT
-------------
                                X             Y             Z
Electronic contribution:      0.36316      -1.72466       0.91703
Nuclear contribution   :     -0.04736       2.34066      -0.86721
                        -----------------------------------------
Total Dipole Moment    :      0.31580       0.61600       0.04983
                        -----------------------------------------
Magnitude (a.u.)       :      0.69402
Magnitude (Debye)      :      1.76406

Rotational constants in cm-1:     4.467902     0.843831     0.806915
Rotational constants in MHz : 133944.321558 25297.403067 24190.708840

                             ****ORCA TERMINATED NORMALLY****
TOTAL RUN TIME: 0 days 0 hours 1 minutes 7 seconds 374 msec
