                         Program Version 4.1.2  - RELEASE  -
|  1> #Run DFT-D3 single point of the dimer
|  2> ! wB97X-D3 def2-TZVP TIGHTSCF CHELPG PMODEL PAL8
|  3>
|  4> %base "1-179_DFT_AB"
|  5>
|  6> %scf
|  7> MaxIter 1000
|  8> end
|  9>
| 10> * xyz 0 1
| 11>   C                      -2.822106            -6.085736            -1.176755
| 12>   O                      -3.789893            -5.113760            -1.527374
| 13>   H                      -3.604599            -4.836163            -2.428664
| 14>   H                      -2.878107            -6.458377            -0.129660
| 15>   H                      -3.004079            -7.001722            -1.785518
| 16>   H                      -1.772032            -5.826970            -1.226930
| 17>   C                      -2.306160            -4.118022            -5.853562
| 18>   O                      -2.676976            -4.333817            -4.529895
| 19>   H                      -3.053698            -5.227594            -4.500338
| 20>   H                      -3.024070            -4.400108            -6.601897
| 21>   H                      -2.185138            -3.054328            -6.074373
| 22>   H                      -1.316532            -4.595034            -6.086216
| 23> *
| 24>
| 25> #Run DFT-D3 single point of the molecule with dimer basis set
| 26> $new_job
| 27> %base "1-179_DFT_A"
| 28> ! wB97X-D3 def2-TZVP TIGHTSCF CHELPG PMODEL
| 29>
| 30> %scf
| 31> MaxIter 1000
| 32> end
| 33>
| 34> * xyz 0 1
| 35>   C                      -2.822106            -6.085736            -1.176755
| 36>   O                      -3.789893            -5.113760            -1.527374
| 37>   H                      -3.604599            -4.836163            -2.428664
| 38>   H                      -2.878107            -6.458377            -0.129660
| 39>   H                      -3.004079            -7.001722            -1.785518
| 40>   H                      -1.772032            -5.826970            -1.226930
| 41>   C                    : -2.306160            -4.118022            -5.853562
| 42>   O                    : -2.676976            -4.333817            -4.529895
| 43>   H                    : -3.053698            -5.227594            -4.500338
| 44>   H                    : -3.024070            -4.400108            -6.601897
| 45>   H                    : -2.185138            -3.054328            -6.074373
| 46>   H                    : -1.316532            -4.595034            -6.086216
| 47> *
| 48>
| 49> #Run DFT-D3 single point of the particle with dimer basis set
| 50> $new_job
| 51> %base "1-179_DFT_B"
| 52> ! wB97X-D3 def2-TZVP TIGHTSCF CHELPG PMODEL
| 53>
| 54> %scf
| 55> MaxIter 1000
| 56> end
| 57>
| 58> * xyz 0 1
| 59>   C                    : -2.822106            -6.085736            -1.176755
| 60>   O                    : -3.789893            -5.113760            -1.527374
| 61>   H                    : -3.604599            -4.836163            -2.428664
| 62>   H                    : -2.878107            -6.458377            -0.129660
| 63>   H                    : -3.004079            -7.001722            -1.785518
| 64>   H                    : -1.772032            -5.826970            -1.226930
| 65>   C                      -2.306160            -4.118022            -5.853562
| 66>   O                      -2.676976            -4.333817            -4.529895
| 67>   H                      -3.053698            -5.227594            -4.500338
| 68>   H                      -3.024070            -4.400108            -6.601897
| 69>   H                      -2.185138            -3.054328            -6.074373
| 70>   H                      -1.316532            -4.595034            -6.086216
| 71> *
| 72>
| 73>                          ****END OF INPUT****
 Total Charge           Charge          ....    0
 Multiplicity           Mult            ....    1
 Number of Electrons    NEL             ....   36
Dispersion correction           -0.001466628
FINAL SINGLE POINT ENERGY      -231.468736893663
Dispersion correction           -0.000261936
FINAL SINGLE POINT ENERGY      -115.731964484278

CARTESIAN COORDINATES (ANGSTROEM)
---------------------------------
  C     -2.822106   -6.085736   -1.176755
  O     -3.789893   -5.113760   -1.527374
  H     -3.604599   -4.836163   -2.428664
  H     -2.878107   -6.458377   -0.129660
  H     -3.004079   -7.001722   -1.785518
  H     -1.772032   -5.826970   -1.226930
  C     -2.306160   -4.118022   -5.853562
  O     -2.676976   -4.333817   -4.529895
  H     -3.053698   -5.227594   -4.500338
  H     -3.024070   -4.400108   -6.601897
  H     -2.185138   -3.054328   -6.074373
  H     -1.316532   -4.595034   -6.086216

 Multiplicity           Mult            ....    1
 Number of Electrons    NEL             ....   18
 Basis Dimension        Dim             ....  172

ORBITAL ENERGIES
----------------

  NO   OCC          E(Eh)            E(eV)
   0   2.0000     -19.236052      -523.4396
   1   2.0000     -10.311425      -280.5881
   2   2.0000      -1.144772       -31.1508
   3   2.0000      -0.794708       -21.6251
   4   2.0000      -0.615875       -16.7588
   5   2.0000      -0.544540       -14.8177
   6   2.0000      -0.529120       -14.3981
   7   2.0000      -0.432062       -11.7570
   8   2.0000      -0.375500       -10.2179
   9   0.0000       0.086122         2.3435
  10   0.0000       0.125995         3.4285
  11   0.0000       0.152808         4.1581
  12   0.0000       0.187187         5.0936
  13   0.0000       0.196323         5.3422

MULLIKEN ATOMIC CHARGES
-----------------------
   0 C :   -0.001990
   1 O :    0.001263
   2 H :   -0.007966
   3 H :   -0.000152
   4 H :    0.000054
   5 H :   -0.000451
   6 C :   -0.178303
   7 O :   -0.450678
   8 H :    0.321277
   9 H :    0.107415
  10 H :    0.116623
  11 H :    0.092908
Sum of atomic charges:   -0.0000000

LOEWDIN ATOMIC CHARGES
----------------------
   0 C :   -0.002353
   1 O :   -0.000875
   2 H :   -0.013476
   3 H :   -0.000044
   4 H :   -0.000220
   5 H :   -0.000402
   6 C :   -0.412139
   7 O :   -0.051374
   8 H :    0.183622
   9 H :    0.090850
  10 H :    0.107676
  11 H :    0.098734

  Mayer bond orders larger than 0.1
B(  6-C ,  7-O ) :   1.0097 B(  6-C ,  9-H ) :   0.9733 B(  6-C , 10-H ) :   0.9758
B(  6-C , 11-H ) :   0.9752 B(  7-O ,  8-H ) :   0.8922

Dispersion correction           -0.000242964
FINAL SINGLE POINT ENERGY      -115.734461745728

DIPOLE MOMENT
-------------
                                X             Y             Z
Electronic contribution:     -0.52539      -0.19869       1.84479
Nuclear contribution   :      0.40127      -0.25705      -2.34634
                        -----------------------------------------
Total Dipole Moment    :     -0.12412      -0.45574      -0.50155
                        -----------------------------------------
Magnitude (a.u.)       :      0.68895
Magnitude (Debye)      :      1.75118

Rotational constants in cm-1:     4.356412     0.840501     0.818169
Rotational constants in MHz : 130601.952175 25197.595471 24528.076426

                             ****ORCA TERMINATED NORMALLY****
TOTAL RUN TIME: 0 days 0 hours 6 minutes 4 seconds 8 msec
