                         Program Version 4.1.2  - RELEASE  -
|  1> #Run DFT-D3 single point of the dimer
|  2> ! wB97X-D3 def2-TZVP TIGHTSCF CHELPG PMODEL PAL8
|  3>
|  4> %base "22-16_DFT_AB"
|  5>
|  6> %scf
|  7> MaxIter 1000
|  8> end
|  9>
| 10> * xyz 0 1
| 11>   C                      -0.754698            -4.429643            3.939378
| 12>   O                      -1.196798            -4.428082            5.254249
| 13>   H                      -0.395699            -4.752719            5.779728
| 14>   H                      -0.383757            -5.340087            3.635676
| 15>   H                      -1.507620            -4.118996            3.190048
| 16>   H                      0.031200             -3.762485            3.769299
| 17>   C                      -0.190552            -1.346349            7.638156
| 18>   O                      -0.224249            -1.612135            6.254584
| 19>   H                      -0.894124            -2.259526            6.100386
| 20>   H                      -0.148998            -2.211394            8.212019
| 21>   H                      0.737630             -0.846319            7.968315
| 22>   H                      -1.056056            -0.711829            7.991936
| 23> *
| 24>
| 25> #Run DFT-D3 single point of the molecule with dimer basis set
| 26> $new_job
| 27> %base "22-16_DFT_A"
| 28> ! wB97X-D3 def2-TZVP TIGHTSCF CHELPG PMODEL
| 29>
| 30> %scf
| 31> MaxIter 1000
| 32> end
| 33>
| 34> * xyz 0 1
| 35>   C                      -0.754698            -4.429643            3.939378
| 36>   O                      -1.196798            -4.428082            5.254249
| 37>   H                      -0.395699            -4.752719            5.779728
| 38>   H                      -0.383757            -5.340087            3.635676
| 39>   H                      -1.507620            -4.118996            3.190048
| 40>   H                      0.031200             -3.762485            3.769299
| 41>   C                    : -0.190552            -1.346349            7.638156
| 42>   O                    : -0.224249            -1.612135            6.254584
| 43>   H                    : -0.894124            -2.259526            6.100386
| 44>   H                    : -0.148998            -2.211394            8.212019
| 45>   H                    : 0.737630             -0.846319            7.968315
| 46>   H                    : -1.056056            -0.711829            7.991936
| 47> *
| 48>
| 49> #Run DFT-D3 single point of the particle with dimer basis set
| 50> $new_job
| 51> %base "22-16_DFT_B"
| 52> ! wB97X-D3 def2-TZVP TIGHTSCF CHELPG PMODEL
| 53>
| 54> %scf
| 55> MaxIter 1000
| 56> end
| 57>
| 58> * xyz 0 1
| 59>   C                    : -0.754698            -4.429643            3.939378
| 60>   O                    : -1.196798            -4.428082            5.254249
| 61>   H                    : -0.395699            -4.752719            5.779728
| 62>   H                    : -0.383757            -5.340087            3.635676
| 63>   H                    : -1.507620            -4.118996            3.190048
| 64>   H                    : 0.031200             -3.762485            3.769299
| 65>   C                      -0.190552            -1.346349            7.638156
| 66>   O                      -0.224249            -1.612135            6.254584
| 67>   H                      -0.894124            -2.259526            6.100386
| 68>   H                      -0.148998            -2.211394            8.212019
| 69>   H                      0.737630             -0.846319            7.968315
| 70>   H                      -1.056056            -0.711829            7.991936
| 71> *
| 72>
| 73>                          ****END OF INPUT****
 Total Charge           Charge          ....    0
 Multiplicity           Mult            ....    1
 Number of Electrons    NEL             ....   36
Dispersion correction           -0.001651714
FINAL SINGLE POINT ENERGY      -231.465522884398
Dispersion correction           -0.000214268
FINAL SINGLE POINT ENERGY      -115.726708759734

CARTESIAN COORDINATES (ANGSTROEM)
---------------------------------
  C     -0.754698   -4.429643    3.939378
  O     -1.196798   -4.428082    5.254249
  H     -0.395699   -4.752719    5.779728
  H     -0.383757   -5.340087    3.635676
  H     -1.507620   -4.118996    3.190048
  H      0.031200   -3.762485    3.769299
  C     -0.190552   -1.346349    7.638156
  O     -0.224249   -1.612135    6.254584
  H     -0.894124   -2.259526    6.100386
  H     -0.148998   -2.211394    8.212019
  H      0.737630   -0.846319    7.968315
  H     -1.056056   -0.711829    7.991936

 Multiplicity           Mult            ....    1
 Number of Electrons    NEL             ....   18
 Basis Dimension        Dim             ....  172

ORBITAL ENERGIES
----------------

  NO   OCC          E(Eh)            E(eV)
   0   2.0000     -19.231931      -523.3275
   1   2.0000     -10.311955      -280.6026
   2   2.0000      -1.142301       -31.0836
   3   2.0000      -0.800344       -21.7785
   4   2.0000      -0.616933       -16.7876
   5   2.0000      -0.543891       -14.8000
   6   2.0000      -0.527989       -14.3673
   7   2.0000      -0.431303       -11.7364
   8   2.0000      -0.377411       -10.2699
   9   0.0000       0.078952         2.1484
  10   0.0000       0.129101         3.5130
  11   0.0000       0.153621         4.1802
  12   0.0000       0.169961         4.6249
  13   0.0000       0.195324         5.3150

MULLIKEN ATOMIC CHARGES
-----------------------
   0 C :    0.001269
   1 O :   -0.002167
   2 H :   -0.002185
   3 H :    0.000007
   4 H :    0.000027
   5 H :   -0.002781
   6 C :   -0.175098
   7 O :   -0.463404
   8 H :    0.313828
   9 H :    0.111119
  10 H :    0.117737
  11 H :    0.101647
Sum of atomic charges:    0.0000000

LOEWDIN ATOMIC CHARGES
----------------------
   0 C :   -0.003281
   1 O :   -0.006710
   2 H :   -0.002363
   3 H :   -0.000027
   4 H :   -0.000049
   5 H :   -0.001388
   6 C :   -0.390445
   7 O :   -0.054866
   8 H :    0.162494
   9 H :    0.083394
  10 H :    0.111685
  11 H :    0.101555

  Mayer bond orders larger than 0.1
B(  6-C ,  7-O ) :   1.0018 B(  6-C ,  9-H ) :   0.9752 B(  6-C , 10-H ) :   0.9720
B(  6-C , 11-H ) :   0.9790 B(  7-O ,  8-H ) :   0.9029

Dispersion correction           -0.000247178
FINAL SINGLE POINT ENERGY      -115.732369967857

DIPOLE MOMENT
-------------
                                X             Y             Z
Electronic contribution:      0.04653      -0.30499      -1.88146
Nuclear contribution   :     -0.42836      -0.03153       2.35278
                        -----------------------------------------
Total Dipole Moment    :     -0.38183      -0.33653       0.47132
                        -----------------------------------------
Magnitude (a.u.)       :      0.69368
Magnitude (Debye)      :      1.76319

Rotational constants in cm-1:     4.460377     0.823763     0.802247
Rotational constants in MHz : 133718.750044 24695.789042 24050.757990

                             ****ORCA TERMINATED NORMALLY****
TOTAL RUN TIME: 0 days 0 hours 1 minutes 8 seconds 694 msec
