                         Program Version 4.1.2  - RELEASE  -
|  1> #Run DFT-D3 single point of the dimer
|  2> ! wB97X-D3 def2-TZVP TIGHTSCF CHELPG PMODEL PAL8
|  3>
|  4> %base "15-120_DFT_AB"
|  5>
|  6> %scf
|  7> MaxIter 1000
|  8> end
|  9>
| 10> * xyz 0 1
| 11>   C                      4.368537             5.393558             -2.809895
| 12>   O                      3.561577             5.915263             -3.882099
| 13>   H                      2.747769             6.147654             -3.483270
| 14>   H                      4.522148             6.098134             -2.062670
| 15>   H                      3.985404             4.497609             -2.348490
| 16>   H                      5.365098             5.152908             -3.121065
| 17>   C                      0.197106             5.643279             -2.810635
| 18>   O                      0.990186             6.638446             -3.502178
| 19>   H                      0.467502             7.018824             -4.265643
| 20>   H                      0.725189             4.808074             -2.264387
| 21>   H                      -0.343198            6.242626             -2.087123
| 22>   H                      -0.659478            5.169632             -3.309473
| 23> *
| 24>
| 25> #Run DFT-D3 single point of the molecule with dimer basis set
| 26> $new_job
| 27> %base "15-120_DFT_A"
| 28> ! wB97X-D3 def2-TZVP TIGHTSCF CHELPG PMODEL
| 29>
| 30> %scf
| 31> MaxIter 1000
| 32> end
| 33>
| 34> * xyz 0 1
| 35>   C                      4.368537             5.393558             -2.809895
| 36>   O                      3.561577             5.915263             -3.882099
| 37>   H                      2.747769             6.147654             -3.483270
| 38>   H                      4.522148             6.098134             -2.062670
| 39>   H                      3.985404             4.497609             -2.348490
| 40>   H                      5.365098             5.152908             -3.121065
| 41>   C                    : 0.197106             5.643279             -2.810635
| 42>   O                    : 0.990186             6.638446             -3.502178
| 43>   H                    : 0.467502             7.018824             -4.265643
| 44>   H                    : 0.725189             4.808074             -2.264387
| 45>   H                    : -0.343198            6.242626             -2.087123
| 46>   H                    : -0.659478            5.169632             -3.309473
| 47> *
| 48>
| 49> #Run DFT-D3 single point of the particle with dimer basis set
| 50> $new_job
| 51> %base "15-120_DFT_B"
| 52> ! wB97X-D3 def2-TZVP TIGHTSCF CHELPG PMODEL
| 53>
| 54> %scf
| 55> MaxIter 1000
| 56> end
| 57>
| 58> * xyz 0 1
| 59>   C                    : 4.368537             5.393558             -2.809895
| 60>   O                    : 3.561577             5.915263             -3.882099
| 61>   H                    : 2.747769             6.147654             -3.483270
| 62>   H                    : 4.522148             6.098134             -2.062670
| 63>   H                    : 3.985404             4.497609             -2.348490
| 64>   H                    : 5.365098             5.152908             -3.121065
| 65>   C                      0.197106             5.643279             -2.810635
| 66>   O                      0.990186             6.638446             -3.502178
| 67>   H                      0.467502             7.018824             -4.265643
| 68>   H                      0.725189             4.808074             -2.264387
| 69>   H                      -0.343198            6.242626             -2.087123
| 70>   H                      -0.659478            5.169632             -3.309473
| 71> *
| 72>
| 73>                          ****END OF INPUT****
 Total Charge           Charge          ....    0
 Multiplicity           Mult            ....    1
 Number of Electrons    NEL             ....   36
Dispersion correction           -0.001793401
FINAL SINGLE POINT ENERGY      -231.460131384233
Dispersion correction           -0.000239997
FINAL SINGLE POINT ENERGY      -115.732195375161

CARTESIAN COORDINATES (ANGSTROEM)
---------------------------------
  C      4.368537    5.393558   -2.809895
  O      3.561577    5.915263   -3.882099
  H      2.747769    6.147654   -3.483270
  H      4.522148    6.098134   -2.062670
  H      3.985404    4.497609   -2.348490
  H      5.365098    5.152908   -3.121065
  C      0.197106    5.643279   -2.810635
  O      0.990186    6.638446   -3.502178
  H      0.467502    7.018824   -4.265643
  H      0.725189    4.808074   -2.264387
  H     -0.343198    6.242626   -2.087123
  H     -0.659478    5.169632   -3.309473

 Multiplicity           Mult            ....    1
 Number of Electrons    NEL             ....   18
 Basis Dimension        Dim             ....  172

ORBITAL ENERGIES
----------------

  NO   OCC          E(Eh)            E(eV)
   0   2.0000     -19.237113      -523.4685
   1   2.0000     -10.318886      -280.7912
   2   2.0000      -1.119838       -30.4723
   3   2.0000      -0.795080       -21.6352
   4   2.0000      -0.605934       -16.4883
   5   2.0000      -0.535732       -14.5780
   6   2.0000      -0.513492       -13.9728
   7   2.0000      -0.436770       -11.8851
   8   2.0000      -0.369271       -10.0484
   9   0.0000       0.096862         2.6357
  10   0.0000       0.117764         3.2045
  11   0.0000       0.142607         3.8805
  12   0.0000       0.184322         5.0156
  13   0.0000       0.197580         5.3764

MULLIKEN ATOMIC CHARGES
-----------------------
   0 C :    0.000473
   1 O :   -0.001016
   2 H :   -0.006379
   3 H :   -0.000322
   4 H :   -0.000287
   5 H :   -0.000064
   6 C :   -0.192403
   7 O :   -0.474880
   8 H :    0.320479
   9 H :    0.129583
  10 H :    0.112329
  11 H :    0.112487
Sum of atomic charges:    0.0000000

LOEWDIN ATOMIC CHARGES
----------------------
   0 C :   -0.001506
   1 O :   -0.011512
   2 H :   -0.052472
   3 H :   -0.000073
   4 H :   -0.000229
   5 H :   -0.000023
   6 C :   -0.375691
   7 O :   -0.063139
   8 H :    0.191788
   9 H :    0.116318
  10 H :    0.098567
  11 H :    0.097974

  Mayer bond orders larger than 0.1
B(  6-C ,  7-O ) :   0.9817 B(  6-C ,  9-H ) :   0.9689 B(  6-C , 10-H ) :   0.9862
B(  6-C , 11-H ) :   0.9663 B(  7-O ,  8-H ) :   0.8879

Dispersion correction           -0.000284063
FINAL SINGLE POINT ENERGY      -115.722399336068

DIPOLE MOMENT
-------------
                                X             Y             Z
Electronic contribution:      1.27906       1.15043      -0.92334
Nuclear contribution   :     -1.97067      -1.31143       0.72996
                        -----------------------------------------
Total Dipole Moment    :     -0.69161      -0.16100      -0.19338
                        -----------------------------------------
Magnitude (a.u.)       :      0.73596
Magnitude (Debye)      :      1.87067

Rotational constants in cm-1:     4.401517     0.784511     0.750023
Rotational constants in MHz : 131954.159274 23519.045334 22485.113945

                             ****ORCA TERMINATED NORMALLY****
TOTAL RUN TIME: 0 days 0 hours 1 minutes 3 seconds 169 msec
