                         Program Version 4.1.2  - RELEASE  -
|  1> #Run DFT-D3 single point of the dimer
|  2> ! wB97X-D3 def2-TZVP TIGHTSCF CHELPG PMODEL PAL8
|  3>
|  4> %base "19-164_DFT_AB"
|  5>
|  6> %scf
|  7> MaxIter 1000
|  8> end
|  9>
| 10> * xyz 0 1
| 11>   C                      -1.181265            -1.693056            -5.197983
| 12>   O                      -2.537102            -1.387165            -4.926656
| 13>   H                      -2.571869            -0.459236            -5.177508
| 14>   H                      -1.007342            -1.646664            -6.277704
| 15>   H                      -0.509238            -0.915298            -4.700614
| 16>   H                      -0.756636            -2.632401            -4.853080
| 17>   C                      -2.906077            0.377006             -8.148405
| 18>   O                      -1.989494            1.235935             -7.461935
| 19>   H                      -2.399023            1.249863             -6.599244
| 20>   H                      -3.340453            -0.457180            -7.600596
| 21>   H                      -3.818018            0.871088             -8.437188
| 22>   H                      -2.566180            -0.111384            -9.125792
| 23> *
| 24>
| 25> #Run DFT-D3 single point of the molecule with dimer basis set
| 26> $new_job
| 27> %base "19-164_DFT_A"
| 28> ! wB97X-D3 def2-TZVP TIGHTSCF CHELPG PMODEL
| 29>
| 30> %scf
| 31> MaxIter 1000
| 32> end
| 33>
| 34> * xyz 0 1
| 35>   C                      -1.181265            -1.693056            -5.197983
| 36>   O                      -2.537102            -1.387165            -4.926656
| 37>   H                      -2.571869            -0.459236            -5.177508
| 38>   H                      -1.007342            -1.646664            -6.277704
| 39>   H                      -0.509238            -0.915298            -4.700614
| 40>   H                      -0.756636            -2.632401            -4.853080
| 41>   C                    : -2.906077            0.377006             -8.148405
| 42>   O                    : -1.989494            1.235935             -7.461935
| 43>   H                    : -2.399023            1.249863             -6.599244
| 44>   H                    : -3.340453            -0.457180            -7.600596
| 45>   H                    : -3.818018            0.871088             -8.437188
| 46>   H                    : -2.566180            -0.111384            -9.125792
| 47> *
| 48>
| 49> #Run DFT-D3 single point of the particle with dimer basis set
| 50> $new_job
| 51> %base "19-164_DFT_B"
| 52> ! wB97X-D3 def2-TZVP TIGHTSCF CHELPG PMODEL
| 53>
| 54> %scf
| 55> MaxIter 1000
| 56> end
| 57>
| 58> * xyz 0 1
| 59>   C                    : -1.181265            -1.693056            -5.197983
| 60>   O                    : -2.537102            -1.387165            -4.926656
| 61>   H                    : -2.571869            -0.459236            -5.177508
| 62>   H                    : -1.007342            -1.646664            -6.277704
| 63>   H                    : -0.509238            -0.915298            -4.700614
| 64>   H                    : -0.756636            -2.632401            -4.853080
| 65>   C                      -2.906077            0.377006             -8.148405
| 66>   O                      -1.989494            1.235935             -7.461935
| 67>   H                      -2.399023            1.249863             -6.599244
| 68>   H                      -3.340453            -0.457180            -7.600596
| 69>   H                      -3.818018            0.871088             -8.437188
| 70>   H                      -2.566180            -0.111384            -9.125792
| 71> *
| 72>
| 73>                          ****END OF INPUT****
 Total Charge           Charge          ....    0
 Multiplicity           Mult            ....    1
 Number of Electrons    NEL             ....   36
Dispersion correction           -0.002200174
FINAL SINGLE POINT ENERGY      -231.456248670387
Dispersion correction           -0.000229837
FINAL SINGLE POINT ENERGY      -115.730493264046

CARTESIAN COORDINATES (ANGSTROEM)
---------------------------------
  C     -1.181265   -1.693056   -5.197983
  O     -2.537102   -1.387165   -4.926656
  H     -2.571869   -0.459236   -5.177508
  H     -1.007342   -1.646664   -6.277704
  H     -0.509238   -0.915298   -4.700614
  H     -0.756636   -2.632401   -4.853080
  C     -2.906077    0.377006   -8.148405
  O     -1.989494    1.235935   -7.461935
  H     -2.399023    1.249863   -6.599244
  H     -3.340453   -0.457180   -7.600596
  H     -3.818018    0.871088   -8.437188
  H     -2.566180   -0.111384   -9.125792

 Multiplicity           Mult            ....    1
 Number of Electrons    NEL             ....   18
 Basis Dimension        Dim             ....  172

ORBITAL ENERGIES
----------------

  NO   OCC          E(Eh)            E(eV)
   0   2.0000     -19.241673      -523.5925
   1   2.0000     -10.318108      -280.7700
   2   2.0000      -1.142342       -31.0847
   3   2.0000      -0.797334       -21.6965
   4   2.0000      -0.614708       -16.7271
   5   2.0000      -0.531249       -14.4560
   6   2.0000      -0.525996       -14.3131
   7   2.0000      -0.445342       -12.1184
   8   2.0000      -0.377690       -10.2775
   9   0.0000       0.079673         2.1680
  10   0.0000       0.131586         3.5806
  11   0.0000       0.140692         3.8284
  12   0.0000       0.172066         4.6821
  13   0.0000       0.197090         5.3631

MULLIKEN ATOMIC CHARGES
-----------------------
   0 C :   -0.003018
   1 O :    0.001119
   2 H :   -0.005199
   3 H :    0.000828
   4 H :    0.000165
   5 H :   -0.000203
   6 C :   -0.210089
   7 O :   -0.447264
   8 H :    0.317692
   9 H :    0.113125
  10 H :    0.113764
  11 H :    0.119082
Sum of atomic charges:   -0.0000000

LOEWDIN ATOMIC CHARGES
----------------------
   0 C :   -0.004052
   1 O :   -0.001374
   2 H :   -0.005711
   3 H :   -0.001482
   4 H :   -0.000304
   5 H :   -0.000058
   6 C :   -0.395530
   7 O :   -0.069550
   8 H :    0.172698
   9 H :    0.095599
  10 H :    0.091918
  11 H :    0.117846

  Mayer bond orders larger than 0.1
B(  6-C ,  7-O ) :   0.9995 B(  6-C ,  9-H ) :   0.9712 B(  6-C , 10-H ) :   0.9781
B(  6-C , 11-H ) :   0.9740 B(  7-O ,  8-H ) :   0.9034

Dispersion correction           -0.000260635
FINAL SINGLE POINT ENERGY      -115.726017204800

DIPOLE MOMENT
-------------
                                X             Y             Z
Electronic contribution:      1.48724       1.24542       0.87113
Nuclear contribution   :     -2.11999      -1.56672      -0.60024
                        -----------------------------------------
Total Dipole Moment    :     -0.63275      -0.32130       0.27089
                        -----------------------------------------
Magnitude (a.u.)       :      0.75960
Magnitude (Debye)      :      1.93074

Rotational constants in cm-1:     4.489708     0.803745     0.766451
Rotational constants in MHz : 134598.051385 24095.669512 22977.636960

                             ****ORCA TERMINATED NORMALLY****
TOTAL RUN TIME: 0 days 0 hours 0 minutes 51 seconds 215 msec
