                         Program Version 4.1.2  - RELEASE  -
|  1> #Run DFT-D3 single point of the dimer
|  2> ! wB97X-D3 def2-TZVP TIGHTSCF  CHELPG PAL8
|  3>
|  4> %base "129_charges"
|  5>
|  6> %scf
|  7> MaxIter 1000
|  8> end
|  9> %output
| 10>   Print[ P_Mayer ] 1
| 11>   Print[ P_NatPop ] 1
| 12>   Print[ P_Hirshfeld ] 1
| 13>   Print[ P_Mulliken ] 1
| 14>   Print [ P_Loewdin ] 1
| 15> end
| 16>
| 17> * xyz 0 1
| 18>   C                      -10.761366           0.120518             7.667981
| 19>   O                      -11.280806           1.398692             7.901930
| 20>   H                      -12.213492           1.219496             8.226360
| 21>   H                      -10.507889           -0.307628            8.622240
| 22>   H                      -11.544068           -0.516105            7.242862
| 23>   H                      -9.987029            0.067268             6.874821
| 24> *
| 25>
| 26>                          ****END OF INPUT****

CARTESIAN COORDINATES (ANGSTROEM)
---------------------------------
  C    -10.761366    0.120518    7.667981
  O    -11.280806    1.398692    7.901930
  H    -12.213492    1.219496    8.226360
  H    -10.507889   -0.307628    8.622240
  H    -11.544068   -0.516105    7.242862
  H     -9.987029    0.067268    6.874821

 Total Charge           Charge          ....    0
 Multiplicity           Mult            ....    1
 Number of Electrons    NEL             ....   18
 Basis Dimension        Dim             ....   86

ORBITAL ENERGIES
----------------

  NO   OCC          E(Eh)            E(eV)
   0   2.0000     -19.232651      -523.3471
   1   2.0000     -10.311503      -280.5903
   2   2.0000      -1.135556       -30.9000
   3   2.0000      -0.788457       -21.4550
   4   2.0000      -0.607508       -16.5311
   5   2.0000      -0.554893       -15.0994
   6   2.0000      -0.521829       -14.1997
   7   2.0000      -0.429024       -11.6743
   8   2.0000      -0.371280       -10.1030
   9   0.0000       0.107380         2.9219
  10   0.0000       0.155494         4.2312
  11   0.0000       0.197334         5.3697
  12   0.0000       0.208581         5.6758
  13   0.0000       0.226347         6.1592

MULLIKEN ATOMIC CHARGES
-----------------------
   0 C :   -0.168572
   1 O :   -0.469903
   2 H :    0.320327
   3 H :    0.102885
   4 H :    0.098871
   5 H :    0.116393
Sum of atomic charges:   -0.0000000

LOEWDIN ATOMIC CHARGES
----------------------
   0 C :   -0.405151
   1 O :   -0.089298
   2 H :    0.199043
   3 H :    0.091537
   4 H :    0.094060
   5 H :    0.109810

  Mayer bond orders larger than 0.1
B(  0-C ,  1-O ) :   0.9987 B(  0-C ,  3-H ) :   0.9794 B(  0-C ,  4-H ) :   0.9874
B(  0-C ,  5-H ) :   0.9680 B(  1-O ,  2-H ) :   0.8928

Dispersion correction           -0.000214803
FINAL SINGLE POINT ENERGY      -115.728805260102

DIPOLE MOMENT
-------------
                                X             Y             Z
Electronic contribution:     -0.37636       1.79228       0.28220
Nuclear contribution   :     -0.01987      -2.40115      -0.19536
                        -----------------------------------------
Total Dipole Moment    :     -0.39623      -0.60888       0.08684
                        -----------------------------------------
Magnitude (a.u.)       :      0.73162
Magnitude (Debye)      :      1.85963

Rotational constants in cm-1:     4.186486     0.849818     0.817981
Rotational constants in MHz : 125507.681278 25476.908035 24522.447683

                             ****ORCA TERMINATED NORMALLY****
TOTAL RUN TIME: 0 days 0 hours 0 minutes 43 seconds 107 msec
