                         Program Version 4.1.2  - RELEASE  -
|  1> #Run DFT geometry optimization
|  2> ! wB97X-D3 def2-TZVP TIGHTSCF Grid5 FinalGrid6 Opt CHELPG PAL4
|  3>
|  4> %base "1_geo_opt"
|  5> %geom MaxIter 500
|  6> end
|  7>
|  8> %geom
|  9>   Constraints
| 10>     { B 0 1 C }
| 11>   end
| 12> end
| 13>
| 14>
| 15> * xyz 0 1
| 16>   C                    3.010916             -1.180912            0.598414
| 17>   O                    4.395065             -1.128035            0.874386
| 18>   H                    4.772588             -0.379007            0.412571
| 19>   H                    2.806042             -1.318980            -0.469428
| 20>   H                    2.611240             -2.040280            1.135820
| 21>   H                    2.484365             -0.284506            0.945581
| 22> *
| 23>
| 24>                          ****END OF INPUT****
 Total Charge           Charge          ....    0
 Multiplicity           Mult            ....    1
 Number of Electrons    NEL             ....   18
Dispersion correction           -0.000239657
FINAL SINGLE POINT ENERGY      -115.738050904250
Dispersion correction            ... done
                    ***********************HURRAY********************

CARTESIAN COORDINATES (ANGSTROEM)
---------------------------------
  C      3.010908   -1.180946    0.598433
  O      4.395060   -1.128060    0.874388
  H      4.772405   -0.378981    0.412529
  H      2.806159   -1.318965   -0.469403
  H      2.611188   -2.040273    1.135809
  H      2.484496   -0.284495    0.945588

 Multiplicity           Mult            ....    1
 Number of Electrons    NEL             ....   18
 Basis Dimension        Dim             ....   86

ORBITAL ENERGIES
----------------

  NO   OCC          E(Eh)            E(eV)
   0   2.0000     -19.228077      -523.2226
   1   2.0000     -10.315183      -280.6904
   2   2.0000      -1.136551       -30.9271
   3   2.0000      -0.795380       -21.6434
   4   2.0000      -0.611438       -16.6381
   5   2.0000      -0.541697       -14.7403
   6   2.0000      -0.526225       -14.3193
   7   2.0000      -0.433869       -11.8062
   8   2.0000      -0.373644       -10.1674
   9   0.0000       0.116644         3.1740
  10   0.0000       0.156622         4.2619
  11   0.0000       0.202555         5.5118
  12   0.0000       0.205091         5.5808
  13   0.0000       0.226285         6.1575

MULLIKEN ATOMIC CHARGES
-----------------------
   0 C :   -0.151039
   1 O :   -0.477778
   2 H :    0.312978
   3 H :    0.098759
   4 H :    0.118319
   5 H :    0.098762
Sum of atomic charges:   -0.0000000

LOEWDIN ATOMIC CHARGES
----------------------
   0 C :   -0.384545
   1 O :   -0.076694
   2 H :    0.165702
   3 H :    0.093427
   4 H :    0.108685
   5 H :    0.093425

  Mayer bond orders larger than 0.1
B(  0-C ,  1-O ) :   0.9985 B(  0-C ,  3-H ) :   0.9755 B(  0-C ,  4-H ) :   0.9749
B(  0-C ,  5-H ) :   0.9755 B(  1-O ,  2-H ) :   0.9003

Dispersion correction           -0.000239576
FINAL SINGLE POINT ENERGY      -115.738050928016

DIPOLE MOMENT
-------------
                                X             Y             Z
Electronic contribution:      1.75548      -0.02838       0.41978
Nuclear contribution   :     -2.06645       0.47593      -0.81766
                        -----------------------------------------
Total Dipole Moment    :     -0.31098       0.44755      -0.39788
                        -----------------------------------------
Magnitude (a.u.)       :      0.67477
Magnitude (Debye)      :      1.71513

Rotational constants in cm-1:     4.292737     0.833044     0.804199
Rotational constants in MHz : 128693.023043 24974.022718 24109.290940

                             ****ORCA TERMINATED NORMALLY****
TOTAL RUN TIME: 0 days 0 hours 0 minutes 38 seconds 671 msec
