                         Program Version 4.1.2  - RELEASE  -
|  1> #Run DFT-D3 single point of the dimer
|  2> ! wB97X-D3 def2-TZVP TIGHTSCF  CHELPG PAL8
|  3>
|  4> %base "23_charges"
|  5>
|  6> %scf
|  7> MaxIter 1000
|  8> end
|  9> %output
| 10>   Print[ P_Mayer ] 1
| 11>   Print[ P_NatPop ] 1
| 12>   Print[ P_Hirshfeld ] 1
| 13>   Print[ P_Mulliken ] 1
| 14>   Print [ P_Loewdin ] 1
| 15> end
| 16>
| 17> * xyz 0 1
| 18>   C                      3.356413             -2.644208            -3.209359
| 19>   O                      4.515774             -1.958350            -3.145388
| 20>   H                      4.530993             -1.375679            -2.386012
| 21>   H                      2.713389             -2.414533            -4.050515
| 22>   H                      3.604550             -3.678019            -3.411292
| 23>   H                      2.800861             -2.458728            -2.178806
| 24> *
| 25>
| 26>                          ****END OF INPUT****

CARTESIAN COORDINATES (ANGSTROEM)
---------------------------------
  C      3.356413   -2.644208   -3.209359
  O      4.515774   -1.958350   -3.145388
  H      4.530993   -1.375679   -2.386012
  H      2.713389   -2.414533   -4.050515
  H      3.604550   -3.678019   -3.411292
  H      2.800861   -2.458728   -2.178806

 Total Charge           Charge          ....    0
 Multiplicity           Mult            ....    1
 Number of Electrons    NEL             ....   18
 Basis Dimension        Dim             ....   86

ORBITAL ENERGIES
----------------

  NO   OCC          E(Eh)            E(eV)
   0   2.0000     -19.227469      -523.2060
   1   2.0000     -10.315083      -280.6877
   2   2.0000      -1.157294       -31.4916
   3   2.0000      -0.792099       -21.5541
   4   2.0000      -0.617873       -16.8132
   5   2.0000      -0.550402       -14.9772
   6   2.0000      -0.540080       -14.6963
   7   2.0000      -0.420671       -11.4470
   8   2.0000      -0.365754        -9.9527
   9   0.0000       0.106698         2.9034
  10   0.0000       0.159179         4.3315
  11   0.0000       0.196942         5.3591
  12   0.0000       0.213316         5.8046
  13   0.0000       0.233411         6.3514

MULLIKEN ATOMIC CHARGES
-----------------------
   0 C :   -0.154396
   1 O :   -0.458312
   2 H :    0.323471
   3 H :    0.098784
   4 H :    0.105701
   5 H :    0.084751
Sum of atomic charges:    0.0000000

LOEWDIN ATOMIC CHARGES
----------------------
   0 C :   -0.439444
   1 O :   -0.030932
   2 H :    0.173229
   3 H :    0.090497
   4 H :    0.097888
   5 H :    0.108762

  Mayer bond orders larger than 0.1
B(  0-C ,  1-O ) :   1.0193 B(  0-C ,  3-H ) :   0.9686 B(  0-C ,  4-H ) :   0.9789
B(  0-C ,  5-H ) :   0.9958 B(  1-O ,  2-H ) :   0.8952

Dispersion correction           -0.000230685
FINAL SINGLE POINT ENERGY      -115.723815926602

DIPOLE MOMENT
-------------
                                X             Y             Z
Electronic contribution:      1.60547       0.88879      -0.09091
Nuclear contribution   :     -1.98008      -0.74739       0.54519
                        -----------------------------------------
Total Dipole Moment    :     -0.37461       0.14139       0.45429
                        -----------------------------------------
Magnitude (a.u.)       :      0.60556
Magnitude (Debye)      :      1.53921

Rotational constants in cm-1:     4.161937     0.906601     0.849399
Rotational constants in MHz : 124771.742286 27179.199547 25464.329720

                             ****ORCA TERMINATED NORMALLY****
TOTAL RUN TIME: 0 days 0 hours 0 minutes 40 seconds 334 msec
