                         Program Version 4.1.2  - RELEASE  -
|  1> #Run DFT-D3 single point of the dimer
|  2> ! wB97X-D3 def2-TZVP TIGHTSCF CHELPG PMODEL PAL8
|  3>
|  4> %base "15-124_DFT_AB"
|  5>
|  6> %scf
|  7> MaxIter 1000
|  8> end
|  9>
| 10> * xyz 0 1
| 11>   C                      9.206192             2.657361             9.113873
| 12>   O                      9.537454             1.298386             9.106032
| 13>   H                      8.908156             0.835783             9.650586
| 14>   H                      8.438459             2.799997             9.832986
| 15>   H                      10.148782            3.218785             9.394563
| 16>   H                      8.796245             2.992167             8.167669
| 17>   C                      7.303674             0.687426             6.517185
| 18>   O                      7.707774             1.463133             5.439199
| 19>   H                      7.376451             2.362845             5.531690
| 20>   H                      7.904835             -0.202361            6.651812
| 21>   H                      7.412063             1.245180             7.486515
| 22>   H                      6.233770             0.467527             6.340801
| 23> *
| 24>
| 25> #Run DFT-D3 single point of the molecule with dimer basis set
| 26> $new_job
| 27> %base "15-124_DFT_A"
| 28> ! wB97X-D3 def2-TZVP TIGHTSCF CHELPG PMODEL
| 29>
| 30> %scf
| 31> MaxIter 1000
| 32> end
| 33>
| 34> * xyz 0 1
| 35>   C                      9.206192             2.657361             9.113873
| 36>   O                      9.537454             1.298386             9.106032
| 37>   H                      8.908156             0.835783             9.650586
| 38>   H                      8.438459             2.799997             9.832986
| 39>   H                      10.148782            3.218785             9.394563
| 40>   H                      8.796245             2.992167             8.167669
| 41>   C                    : 7.303674             0.687426             6.517185
| 42>   O                    : 7.707774             1.463133             5.439199
| 43>   H                    : 7.376451             2.362845             5.531690
| 44>   H                    : 7.904835             -0.202361            6.651812
| 45>   H                    : 7.412063             1.245180             7.486515
| 46>   H                    : 6.233770             0.467527             6.340801
| 47> *
| 48>
| 49> #Run DFT-D3 single point of the particle with dimer basis set
| 50> $new_job
| 51> %base "15-124_DFT_B"
| 52> ! wB97X-D3 def2-TZVP TIGHTSCF CHELPG PMODEL
| 53>
| 54> %scf
| 55> MaxIter 1000
| 56> end
| 57>
| 58> * xyz 0 1
| 59>   C                    : 9.206192             2.657361             9.113873
| 60>   O                    : 9.537454             1.298386             9.106032
| 61>   H                    : 8.908156             0.835783             9.650586
| 62>   H                    : 8.438459             2.799997             9.832986
| 63>   H                    : 10.148782            3.218785             9.394563
| 64>   H                    : 8.796245             2.992167             8.167669
| 65>   C                      7.303674             0.687426             6.517185
| 66>   O                      7.707774             1.463133             5.439199
| 67>   H                      7.376451             2.362845             5.531690
| 68>   H                      7.904835             -0.202361            6.651812
| 69>   H                      7.412063             1.245180             7.486515
| 70>   H                      6.233770             0.467527             6.340801
| 71> *
| 72>
| 73>                          ****END OF INPUT****
 Total Charge           Charge          ....    0
 Multiplicity           Mult            ....    1
 Number of Electrons    NEL             ....   36
Dispersion correction           -0.001981084
FINAL SINGLE POINT ENERGY      -231.466613874867
Dispersion correction           -0.000228857
FINAL SINGLE POINT ENERGY      -115.732834922125

CARTESIAN COORDINATES (ANGSTROEM)
---------------------------------
  C      9.206192    2.657361    9.113873
  O      9.537454    1.298386    9.106032
  H      8.908156    0.835783    9.650586
  H      8.438459    2.799997    9.832986
  H     10.148782    3.218785    9.394563
  H      8.796245    2.992167    8.167669
  C      7.303674    0.687426    6.517185
  O      7.707774    1.463133    5.439199
  H      7.376451    2.362845    5.531690
  H      7.904835   -0.202361    6.651812
  H      7.412063    1.245180    7.486515
  H      6.233770    0.467527    6.340801

 Multiplicity           Mult            ....    1
 Number of Electrons    NEL             ....   18
 Basis Dimension        Dim             ....  172

ORBITAL ENERGIES
----------------

  NO   OCC          E(Eh)            E(eV)
   0   2.0000     -19.227670      -523.2115
   1   2.0000     -10.314214      -280.6640
   2   2.0000      -1.142140       -31.0792
   3   2.0000      -0.792240       -21.5580
   4   2.0000      -0.611889       -16.6503
   5   2.0000      -0.551135       -14.9971
   6   2.0000      -0.529107       -14.3977
   7   2.0000      -0.425782       -11.5861
   8   2.0000      -0.369366       -10.0510
   9   0.0000       0.081981         2.2308
  10   0.0000       0.121418         3.3039
  11   0.0000       0.150134         4.0854
  12   0.0000       0.178328         4.8525
  13   0.0000       0.188107         5.1186

MULLIKEN ATOMIC CHARGES
-----------------------
   0 C :    0.004578
   1 O :   -0.000614
   2 H :   -0.001182
   3 H :   -0.000616
   4 H :    0.000169
   5 H :   -0.002000
   6 C :   -0.146112
   7 O :   -0.477355
   8 H :    0.320184
   9 H :    0.118177
  10 H :    0.082317
  11 H :    0.102454
Sum of atomic charges:    0.0000000

LOEWDIN ATOMIC CHARGES
----------------------
   0 C :   -0.009045
   1 O :   -0.002747
   2 H :   -0.001975
   3 H :   -0.000543
   4 H :   -0.000097
   5 H :   -0.003555
   6 C :   -0.399719
   7 O :   -0.063164
   8 H :    0.173093
   9 H :    0.105677
  10 H :    0.104403
  11 H :    0.097672

  Mayer bond orders larger than 0.1
B(  6-C ,  7-O ) :   0.9928 B(  6-C ,  9-H ) :   0.9690 B(  6-C , 10-H ) :   0.9813
B(  6-C , 11-H ) :   0.9850 B(  7-O ,  8-H ) :   0.8936

Dispersion correction           -0.000226494
FINAL SINGLE POINT ENERGY      -115.733519745774

DIPOLE MOMENT
-------------
                                X             Y             Z
Electronic contribution:      0.64444       0.80243      -1.49398
Nuclear contribution   :     -0.98991      -0.52688       1.96445
                        -----------------------------------------
Total Dipole Moment    :     -0.34547       0.27554       0.47046
                        -----------------------------------------
Magnitude (a.u.)       :      0.64545
Magnitude (Debye)      :      1.64061

Rotational constants in cm-1:     4.226952     0.852232     0.827374
Rotational constants in MHz : 126720.821879 25549.285543 24804.060189

                             ****ORCA TERMINATED NORMALLY****
TOTAL RUN TIME: 0 days 0 hours 0 minutes 59 seconds 410 msec
