                         Program Version 4.1.2  - RELEASE  -
|  1> #Run DFT-D3 single point of the dimer
|  2> ! wB97X-D3 def2-TZVP TIGHTSCF CHELPG PMODEL PAL8
|  3>
|  4> %base "7-147_DFT_AB"
|  5>
|  6> %scf
|  7> MaxIter 1000
|  8> end
|  9>
| 10> * xyz 0 1
| 11>   C                      5.336748             -10.996211           4.260549
| 12>   O                      5.074167             -11.905412           3.179210
| 13>   H                      4.188795             -11.588379           2.888647
| 14>   H                      5.897180             -11.453866           5.076552
| 15>   H                      5.993802             -10.203456           3.843113
| 16>   H                      4.420244             -10.644865           4.688939
| 17>   C                      3.589931             -8.780427            2.342140
| 18>   O                      2.650353             -9.661598            2.915198
| 19>   H                      2.204613             -9.230959            3.598600
| 20>   H                      4.248525             -9.402743            1.656322
| 21>   H                      3.164319             -8.022571            1.708616
| 22>   H                      4.228216             -8.361015            3.141949
| 23> *
| 24>
| 25> #Run DFT-D3 single point of the molecule with dimer basis set
| 26> $new_job
| 27> %base "7-147_DFT_A"
| 28> ! wB97X-D3 def2-TZVP TIGHTSCF CHELPG PMODEL
| 29>
| 30> %scf
| 31> MaxIter 1000
| 32> end
| 33>
| 34> * xyz 0 1
| 35>   C                      5.336748             -10.996211           4.260549
| 36>   O                      5.074167             -11.905412           3.179210
| 37>   H                      4.188795             -11.588379           2.888647
| 38>   H                      5.897180             -11.453866           5.076552
| 39>   H                      5.993802             -10.203456           3.843113
| 40>   H                      4.420244             -10.644865           4.688939
| 41>   C                    : 3.589931             -8.780427            2.342140
| 42>   O                    : 2.650353             -9.661598            2.915198
| 43>   H                    : 2.204613             -9.230959            3.598600
| 44>   H                    : 4.248525             -9.402743            1.656322
| 45>   H                    : 3.164319             -8.022571            1.708616
| 46>   H                    : 4.228216             -8.361015            3.141949
| 47> *
| 48>
| 49> #Run DFT-D3 single point of the particle with dimer basis set
| 50> $new_job
| 51> %base "7-147_DFT_B"
| 52> ! wB97X-D3 def2-TZVP TIGHTSCF CHELPG PMODEL
| 53>
| 54> %scf
| 55> MaxIter 1000
| 56> end
| 57>
| 58> * xyz 0 1
| 59>   C                    : 5.336748             -10.996211           4.260549
| 60>   O                    : 5.074167             -11.905412           3.179210
| 61>   H                    : 4.188795             -11.588379           2.888647
| 62>   H                    : 5.897180             -11.453866           5.076552
| 63>   H                    : 5.993802             -10.203456           3.843113
| 64>   H                    : 4.420244             -10.644865           4.688939
| 65>   C                      3.589931             -8.780427            2.342140
| 66>   O                      2.650353             -9.661598            2.915198
| 67>   H                      2.204613             -9.230959            3.598600
| 68>   H                      4.248525             -9.402743            1.656322
| 69>   H                      3.164319             -8.022571            1.708616
| 70>   H                      4.228216             -8.361015            3.141949
| 71> *
| 72>
| 73>                          ****END OF INPUT****
 Total Charge           Charge          ....    0
 Multiplicity           Mult            ....    1
 Number of Electrons    NEL             ....   36
Dispersion correction           -0.002574561
FINAL SINGLE POINT ENERGY      -231.472623103277
Dispersion correction           -0.000232007
FINAL SINGLE POINT ENERGY      -115.731819893339

CARTESIAN COORDINATES (ANGSTROEM)
---------------------------------
  C      5.336748  -10.996211    4.260549
  O      5.074167  -11.905412    3.179210
  H      4.188795  -11.588379    2.888647
  H      5.897180  -11.453866    5.076552
  H      5.993802  -10.203456    3.843113
  H      4.420244  -10.644865    4.688939
  C      3.589931   -8.780427    2.342140
  O      2.650353   -9.661598    2.915198
  H      2.204613   -9.230959    3.598600
  H      4.248525   -9.402743    1.656322
  H      3.164319   -8.022571    1.708616
  H      4.228216   -8.361015    3.141949

 Multiplicity           Mult            ....    1
 Number of Electrons    NEL             ....   18
 Basis Dimension        Dim             ....  172

ORBITAL ENERGIES
----------------

  NO   OCC          E(Eh)            E(eV)
   0   2.0000     -19.227135      -523.1969
   1   2.0000     -10.317192      -280.7451
   2   2.0000      -1.145095       -31.1596
   3   2.0000      -0.797089       -21.6899
   4   2.0000      -0.614910       -16.7325
   5   2.0000      -0.550026       -14.9670
   6   2.0000      -0.522574       -14.2200
   7   2.0000      -0.429245       -11.6803
   8   2.0000      -0.377364       -10.2686
   9   0.0000       0.094465         2.5705
  10   0.0000       0.133382         3.6295
  11   0.0000       0.155239         4.2243
  12   0.0000       0.168668         4.5897
  13   0.0000       0.200704         5.4614

MULLIKEN ATOMIC CHARGES
-----------------------
   0 C :    0.020959
   1 O :   -0.002413
   2 H :   -0.002664
   3 H :    0.000258
   4 H :   -0.002237
   5 H :   -0.019305
   6 C :   -0.180537
   7 O :   -0.461610
   8 H :    0.305789
   9 H :    0.111424
  10 H :    0.119806
  11 H :    0.110530
Sum of atomic charges:    0.0000000

LOEWDIN ATOMIC CHARGES
----------------------
   0 C :   -0.011478
   1 O :   -0.001183
   2 H :   -0.010661
   3 H :   -0.000030
   4 H :   -0.002243
   5 H :   -0.008116
   6 C :   -0.382254
   7 O :   -0.038224
   8 H :    0.142673
   9 H :    0.119293
  10 H :    0.091015
  11 H :    0.101208

  Mayer bond orders larger than 0.1
B(  6-C ,  7-O ) :   0.9974 B(  6-C ,  9-H ) :   0.9774 B(  6-C , 10-H ) :   0.9638
B(  6-C , 11-H ) :   0.9829 B(  7-O ,  8-H ) :   0.9072

Dispersion correction           -0.000240564
FINAL SINGLE POINT ENERGY      -115.734365256902

DIPOLE MOMENT
-------------
                                X             Y             Z
Electronic contribution:     -1.25909      -1.09479       0.66973
Nuclear contribution   :      1.33226       1.73018      -0.46551
                        -----------------------------------------
Total Dipole Moment    :      0.07317       0.63539       0.20421
                        -----------------------------------------
Magnitude (a.u.)       :      0.67140
Magnitude (Debye)      :      1.70656

Rotational constants in cm-1:     4.275572     0.834771     0.807361
Rotational constants in MHz : 128178.416859 25025.819127 24204.061588

                             ****ORCA TERMINATED NORMALLY****
TOTAL RUN TIME: 0 days 0 hours 1 minutes 8 seconds 535 msec
