                         Program Version 4.1.2  - RELEASE  -
|  1> #Run DFT-D3 single point of the dimer
|  2> ! wB97X-D3 def2-TZVP TIGHTSCF CHELPG PMODEL PAL8
|  3>
|  4> %base "11-130_DFT_AB"
|  5>
|  6> %scf
|  7> MaxIter 1000
|  8> end
|  9>
| 10> * xyz 0 1
| 11>   C                      1.863431             10.530192            0.496298
| 12>   O                      1.704632             11.724926            1.273024
| 13>   H                      0.923946             12.172261            0.891575
| 14>   H                      1.653167             9.609280             1.108343
| 15>   H                      1.152107             10.498634            -0.353203
| 16>   H                      2.935109             10.427221            0.125337
| 17>   C                      4.793840             7.418470             2.811903
| 18>   O                      4.656899             8.783272             3.233300
| 19>   H                      3.764442             9.009522             3.134224
| 20>   H                      5.710245             7.339293             2.221049
| 21>   H                      4.829713             6.712218             3.625068
| 22>   H                      3.924075             7.075925             2.209920
| 23> *
| 24>
| 25> #Run DFT-D3 single point of the molecule with dimer basis set
| 26> $new_job
| 27> %base "11-130_DFT_A"
| 28> ! wB97X-D3 def2-TZVP TIGHTSCF CHELPG PMODEL
| 29>
| 30> %scf
| 31> MaxIter 1000
| 32> end
| 33>
| 34> * xyz 0 1
| 35>   C                      1.863431             10.530192            0.496298
| 36>   O                      1.704632             11.724926            1.273024
| 37>   H                      0.923946             12.172261            0.891575
| 38>   H                      1.653167             9.609280             1.108343
| 39>   H                      1.152107             10.498634            -0.353203
| 40>   H                      2.935109             10.427221            0.125337
| 41>   C                    : 4.793840             7.418470             2.811903
| 42>   O                    : 4.656899             8.783272             3.233300
| 43>   H                    : 3.764442             9.009522             3.134224
| 44>   H                    : 5.710245             7.339293             2.221049
| 45>   H                    : 4.829713             6.712218             3.625068
| 46>   H                    : 3.924075             7.075925             2.209920
| 47> *
| 48>
| 49> #Run DFT-D3 single point of the particle with dimer basis set
| 50> $new_job
| 51> %base "11-130_DFT_B"
| 52> ! wB97X-D3 def2-TZVP TIGHTSCF CHELPG PMODEL
| 53>
| 54> %scf
| 55> MaxIter 1000
| 56> end
| 57>
| 58> * xyz 0 1
| 59>   C                    : 1.863431             10.530192            0.496298
| 60>   O                    : 1.704632             11.724926            1.273024
| 61>   H                    : 0.923946             12.172261            0.891575
| 62>   H                    : 1.653167             9.609280             1.108343
| 63>   H                    : 1.152107             10.498634            -0.353203
| 64>   H                    : 2.935109             10.427221            0.125337
| 65>   C                      4.793840             7.418470             2.811903
| 66>   O                      4.656899             8.783272             3.233300
| 67>   H                      3.764442             9.009522             3.134224
| 68>   H                      5.710245             7.339293             2.221049
| 69>   H                      4.829713             6.712218             3.625068
| 70>   H                      3.924075             7.075925             2.209920
| 71> *
| 72>
| 73>                          ****END OF INPUT****
 Total Charge           Charge          ....    0
 Multiplicity           Mult            ....    1
 Number of Electrons    NEL             ....   36
Dispersion correction           -0.001201373
FINAL SINGLE POINT ENERGY      -231.467504677901
Dispersion correction           -0.000267148
FINAL SINGLE POINT ENERGY      -115.732689679781

CARTESIAN COORDINATES (ANGSTROEM)
---------------------------------
  C      1.863431   10.530192    0.496298
  O      1.704632   11.724926    1.273024
  H      0.923946   12.172261    0.891575
  H      1.653167    9.609280    1.108343
  H      1.152107   10.498634   -0.353203
  H      2.935109   10.427221    0.125337
  C      4.793840    7.418470    2.811903
  O      4.656899    8.783272    3.233300
  H      3.764442    9.009522    3.134224
  H      5.710245    7.339293    2.221049
  H      4.829713    6.712218    3.625068
  H      3.924075    7.075925    2.209920

 Multiplicity           Mult            ....    1
 Number of Electrons    NEL             ....   18
 Basis Dimension        Dim             ....  172

ORBITAL ENERGIES
----------------

  NO   OCC          E(Eh)            E(eV)
   0   2.0000     -19.227936      -523.2187
   1   2.0000     -10.315752      -280.7059
   2   2.0000      -1.137983       -30.9661
   3   2.0000      -0.799456       -21.7543
   4   2.0000      -0.613727       -16.7004
   5   2.0000      -0.538295       -14.6478
   6   2.0000      -0.525286       -14.2937
   7   2.0000      -0.438766       -11.9394
   8   2.0000      -0.376359       -10.2413
   9   0.0000       0.075868         2.0645
  10   0.0000       0.122629         3.3369
  11   0.0000       0.152469         4.1489
  12   0.0000       0.169385         4.6092
  13   0.0000       0.185282         5.0418

MULLIKEN ATOMIC CHARGES
-----------------------
   0 C :   -0.001724
   1 O :    0.000205
   2 H :    0.000003
   3 H :   -0.000542
   4 H :   -0.000178
   5 H :   -0.000234
   6 C :   -0.172342
   7 O :   -0.467610
   8 H :    0.308657
   9 H :    0.120973
  10 H :    0.107140
  11 H :    0.105652
Sum of atomic charges:   -0.0000000

LOEWDIN ATOMIC CHARGES
----------------------
   0 C :   -0.001469
   1 O :   -0.000011
   2 H :   -0.000002
   3 H :   -0.000569
   4 H :   -0.000049
   5 H :   -0.000437
   6 C :   -0.366721
   7 O :   -0.073087
   8 H :    0.143807
   9 H :    0.105812
  10 H :    0.092160
  11 H :    0.100568

  Mayer bond orders larger than 0.1
B(  6-C ,  7-O ) :   0.9991 B(  6-C ,  9-H ) :   0.9767 B(  6-C , 10-H ) :   0.9720
B(  6-C , 11-H ) :   0.9820 B(  7-O ,  8-H ) :   0.9113

Dispersion correction           -0.000252911
FINAL SINGLE POINT ENERGY      -115.734065473727

DIPOLE MOMENT
-------------
                                X             Y             Z
Electronic contribution:     -0.01276       1.74979       0.59564
Nuclear contribution   :     -0.52054      -2.16766      -0.83349
                        -----------------------------------------
Total Dipole Moment    :     -0.53329      -0.41787      -0.23785
                        -----------------------------------------
Magnitude (a.u.)       :      0.71805
Magnitude (Debye)      :      1.82513

Rotational constants in cm-1:     4.360020     0.813890     0.782435
Rotational constants in MHz : 130710.119061 24399.822555 23456.818724

                             ****ORCA TERMINATED NORMALLY****
TOTAL RUN TIME: 0 days 0 hours 1 minutes 13 seconds 163 msec
