                         Program Version 4.1.2  - RELEASE  -
|  1> #Run DFT-D3 single point of the dimer
|  2> ! wB97X-D3 def2-TZVP TIGHTSCF CHELPG PMODEL PAL8
|  3>
|  4> %base "3-14_DFT_AB"
|  5>
|  6> %scf
|  7> MaxIter 1000
|  8> end
|  9>
| 10> * xyz 0 1
| 11>   C                      0.141561             6.247437             4.342902
| 12>   O                      -0.671210            6.055133             5.470995
| 13>   H                      -0.143852            5.652897             6.120910
| 14>   H                      0.997028             6.871239             4.544806
| 15>   H                      0.411989             5.326716             3.898990
| 16>   H                      -0.387381            6.739469             3.540981
| 17>   C                      -4.582969            7.909168             1.847280
| 18>   O                      -5.334719            8.945546             1.391980
| 19>   H                      -5.895309            8.567870             0.703625
| 20>   H                      -4.173860            7.483875             0.891925
| 21>   H                      -3.773770            8.245750             2.467020
| 22>   H                      -5.128192            7.222290             2.457084
| 23> *
| 24>
| 25> #Run DFT-D3 single point of the molecule with dimer basis set
| 26> $new_job
| 27> %base "3-14_DFT_A"
| 28> ! wB97X-D3 def2-TZVP TIGHTSCF CHELPG PMODEL
| 29>
| 30> %scf
| 31> MaxIter 1000
| 32> end
| 33>
| 34> * xyz 0 1
| 35>   C                      0.141561             6.247437             4.342902
| 36>   O                      -0.671210            6.055133             5.470995
| 37>   H                      -0.143852            5.652897             6.120910
| 38>   H                      0.997028             6.871239             4.544806
| 39>   H                      0.411989             5.326716             3.898990
| 40>   H                      -0.387381            6.739469             3.540981
| 41>   C                    : -4.582969            7.909168             1.847280
| 42>   O                    : -5.334719            8.945546             1.391980
| 43>   H                    : -5.895309            8.567870             0.703625
| 44>   H                    : -4.173860            7.483875             0.891925
| 45>   H                    : -3.773770            8.245750             2.467020
| 46>   H                    : -5.128192            7.222290             2.457084
| 47> *
| 48>
| 49> #Run DFT-D3 single point of the particle with dimer basis set
| 50> $new_job
| 51> %base "3-14_DFT_B"
| 52> ! wB97X-D3 def2-TZVP TIGHTSCF CHELPG PMODEL
| 53>
| 54> %scf
| 55> MaxIter 1000
| 56> end
| 57>
| 58> * xyz 0 1
| 59>   C                    : 0.141561             6.247437             4.342902
| 60>   O                    : -0.671210            6.055133             5.470995
| 61>   H                    : -0.143852            5.652897             6.120910
| 62>   H                    : 0.997028             6.871239             4.544806
| 63>   H                    : 0.411989             5.326716             3.898990
| 64>   H                    : -0.387381            6.739469             3.540981
| 65>   C                      -4.582969            7.909168             1.847280
| 66>   O                      -5.334719            8.945546             1.391980
| 67>   H                      -5.895309            8.567870             0.703625
| 68>   H                      -4.173860            7.483875             0.891925
| 69>   H                      -3.773770            8.245750             2.467020
| 70>   H                      -5.128192            7.222290             2.457084
| 71> *
| 72>
| 73>                          ****END OF INPUT****
 Total Charge           Charge          ....    0
 Multiplicity           Mult            ....    1
 Number of Electrons    NEL             ....   36
Dispersion correction           -0.000591053
FINAL SINGLE POINT ENERGY      -231.461833035825
Dispersion correction           -0.000225441
FINAL SINGLE POINT ENERGY      -115.733614887671

CARTESIAN COORDINATES (ANGSTROEM)
---------------------------------
  C      0.141561    6.247437    4.342902
  O     -0.671210    6.055133    5.470995
  H     -0.143852    5.652897    6.120910
  H      0.997028    6.871239    4.544806
  H      0.411989    5.326716    3.898990
  H     -0.387381    6.739469    3.540981
  C     -4.582969    7.909168    1.847280
  O     -5.334719    8.945546    1.391980
  H     -5.895309    8.567870    0.703625
  H     -4.173860    7.483875    0.891925
  H     -3.773770    8.245750    2.467020
  H     -5.128192    7.222290    2.457084

 Multiplicity           Mult            ....    1
 Number of Electrons    NEL             ....   18
 Basis Dimension        Dim             ....  172

ORBITAL ENERGIES
----------------

  NO   OCC          E(Eh)            E(eV)
   0   2.0000     -19.226869      -523.1897
   1   2.0000     -10.306204      -280.4461
   2   2.0000      -1.155266       -31.4364
   3   2.0000      -0.791331       -21.5332
   4   2.0000      -0.614573       -16.7234
   5   2.0000      -0.560475       -15.2513
   6   2.0000      -0.537642       -14.6300
   7   2.0000      -0.424652       -11.5554
   8   2.0000      -0.368652       -10.0315
   9   0.0000       0.085257         2.3200
  10   0.0000       0.112313         3.0562
  11   0.0000       0.146804         3.9947
  12   0.0000       0.170080         4.6281
  13   0.0000       0.193260         5.2589

MULLIKEN ATOMIC CHARGES
-----------------------
   0 C :    0.000043
   1 O :   -0.000002
   2 H :   -0.000000
   3 H :    0.000000
   4 H :   -0.000005
   5 H :   -0.000121
   6 C :   -0.149649
   7 O :   -0.459807
   8 H :    0.317353
   9 H :    0.086309
  10 H :    0.113118
  11 H :    0.092760
Sum of atomic charges:    0.0000000

LOEWDIN ATOMIC CHARGES
----------------------
   0 C :   -0.000028
   1 O :   -0.000001
   2 H :   -0.000000
   3 H :   -0.000000
   4 H :   -0.000000
   5 H :   -0.000093
   6 C :   -0.425747
   7 O :   -0.043173
   8 H :    0.178426
   9 H :    0.102240
  10 H :    0.102506
  11 H :    0.085872

  Mayer bond orders larger than 0.1
B(  6-C ,  7-O ) :   1.0054 B(  6-C ,  9-H ) :   1.0028 B(  6-C , 10-H ) :   0.9728
B(  6-C , 11-H ) :   0.9705 B(  7-O ,  8-H ) :   0.8981

Dispersion correction           -0.000194387
FINAL SINGLE POINT ENERGY      -115.727934742605

DIPOLE MOMENT
-------------
                                X             Y             Z
Electronic contribution:     -0.95225       1.43865      -0.38486
Nuclear contribution   :      0.87908      -2.03007       0.13710
                        -----------------------------------------
Total Dipole Moment    :     -0.07317      -0.59143      -0.24776
                        -----------------------------------------
Magnitude (a.u.)       :      0.64539
Magnitude (Debye)      :      1.64045

Rotational constants in cm-1:     4.249825     0.899299     0.867874
Rotational constants in MHz : 127406.559218 26960.320728 26018.219607

                             ****ORCA TERMINATED NORMALLY****
TOTAL RUN TIME: 0 days 0 hours 5 minutes 50 seconds 352 msec
