                         Program Version 4.1.2  - RELEASE  -
|  1> #Run DFT-D3 single point of the dimer
|  2> ! wB97X-D3 def2-TZVP TIGHTSCF CHELPG PMODEL PAL8
|  3>
|  4> %base "5-190_DFT_AB"
|  5>
|  6> %scf
|  7> MaxIter 1000
|  8> end
|  9>
| 10> * xyz 0 1
| 11>   C                      3.486480             3.228859             8.221319
| 12>   O                      2.522415             3.169753             7.171578
| 13>   H                      2.924334             3.012917             6.317033
| 14>   H                      3.112496             2.768738             9.151670
| 15>   H                      4.386893             2.667311             8.000667
| 16>   H                      3.835800             4.237860             8.215932
| 17>   C                      4.920314             4.342355             4.026153
| 18>   O                      4.848328             3.687352             5.323936
| 19>   H                      5.473683             4.038462             5.960329
| 20>   H                      5.270182             5.374421             4.172704
| 21>   H                      5.630790             3.914310             3.312571
| 22>   H                      3.927813             4.267338             3.743045
| 23> *
| 24>
| 25> #Run DFT-D3 single point of the molecule with dimer basis set
| 26> $new_job
| 27> %base "5-190_DFT_A"
| 28> ! wB97X-D3 def2-TZVP TIGHTSCF CHELPG PMODEL
| 29>
| 30> %scf
| 31> MaxIter 1000
| 32> end
| 33>
| 34> * xyz 0 1
| 35>   C                      3.486480             3.228859             8.221319
| 36>   O                      2.522415             3.169753             7.171578
| 37>   H                      2.924334             3.012917             6.317033
| 38>   H                      3.112496             2.768738             9.151670
| 39>   H                      4.386893             2.667311             8.000667
| 40>   H                      3.835800             4.237860             8.215932
| 41>   C                    : 4.920314             4.342355             4.026153
| 42>   O                    : 4.848328             3.687352             5.323936
| 43>   H                    : 5.473683             4.038462             5.960329
| 44>   H                    : 5.270182             5.374421             4.172704
| 45>   H                    : 5.630790             3.914310             3.312571
| 46>   H                    : 3.927813             4.267338             3.743045
| 47> *
| 48>
| 49> #Run DFT-D3 single point of the particle with dimer basis set
| 50> $new_job
| 51> %base "5-190_DFT_B"
| 52> ! wB97X-D3 def2-TZVP TIGHTSCF CHELPG PMODEL
| 53>
| 54> %scf
| 55> MaxIter 1000
| 56> end
| 57>
| 58> * xyz 0 1
| 59>   C                    : 3.486480             3.228859             8.221319
| 60>   O                    : 2.522415             3.169753             7.171578
| 61>   H                    : 2.924334             3.012917             6.317033
| 62>   H                    : 3.112496             2.768738             9.151670
| 63>   H                    : 4.386893             2.667311             8.000667
| 64>   H                    : 3.835800             4.237860             8.215932
| 65>   C                      4.920314             4.342355             4.026153
| 66>   O                      4.848328             3.687352             5.323936
| 67>   H                      5.473683             4.038462             5.960329
| 68>   H                      5.270182             5.374421             4.172704
| 69>   H                      5.630790             3.914310             3.312571
| 70>   H                      3.927813             4.267338             3.743045
| 71> *
| 72>
| 73>                          ****END OF INPUT****
 Total Charge           Charge          ....    0
 Multiplicity           Mult            ....    1
 Number of Electrons    NEL             ....   36
Dispersion correction           -0.001970102
FINAL SINGLE POINT ENERGY      -231.465594335110
Dispersion correction           -0.000240975
FINAL SINGLE POINT ENERGY      -115.729979554536

CARTESIAN COORDINATES (ANGSTROEM)
---------------------------------
  C      3.486480    3.228859    8.221319
  O      2.522415    3.169753    7.171578
  H      2.924334    3.012917    6.317033
  H      3.112496    2.768738    9.151670
  H      4.386893    2.667311    8.000667
  H      3.835800    4.237860    8.215932
  C      4.920314    4.342355    4.026153
  O      4.848328    3.687352    5.323936
  H      5.473683    4.038462    5.960329
  H      5.270182    5.374421    4.172704
  H      5.630790    3.914310    3.312571
  H      3.927813    4.267338    3.743045

 Multiplicity           Mult            ....    1
 Number of Electrons    NEL             ....   18
 Basis Dimension        Dim             ....  172

ORBITAL ENERGIES
----------------

  NO   OCC          E(Eh)            E(eV)
   0   2.0000     -19.225784      -523.1602
   1   2.0000     -10.311871      -280.6003
   2   2.0000      -1.120706       -30.4960
   3   2.0000      -0.802852       -21.8467
   4   2.0000      -0.610175       -16.6037
   5   2.0000      -0.536450       -14.5975
   6   2.0000      -0.524810       -14.2808
   7   2.0000      -0.433661       -11.8005
   8   2.0000      -0.373394       -10.1606
   9   0.0000       0.092456         2.5159
  10   0.0000       0.130587         3.5534
  11   0.0000       0.155305         4.2261
  12   0.0000       0.175290         4.7699
  13   0.0000       0.202678         5.5152

MULLIKEN ATOMIC CHARGES
-----------------------
   0 C :   -0.000179
   1 O :    0.001882
   2 H :   -0.007696
   3 H :   -0.000596
   4 H :   -0.003135
   5 H :   -0.003380
   6 C :   -0.157124
   7 O :   -0.486123
   8 H :    0.313571
   9 H :    0.104542
  10 H :    0.105522
  11 H :    0.132715
Sum of atomic charges:    0.0000000

LOEWDIN ATOMIC CHARGES
----------------------
   0 C :   -0.009948
   1 O :   -0.004147
   2 H :   -0.019828
   3 H :   -0.000151
   4 H :   -0.002420
   5 H :   -0.002175
   6 C :   -0.338633
   7 O :   -0.079180
   8 H :    0.161324
   9 H :    0.099582
  10 H :    0.097352
  11 H :    0.098224

  Mayer bond orders larger than 0.1
B(  6-C ,  7-O ) :   0.9870 B(  6-C ,  9-H ) :   0.9816 B(  6-C , 10-H ) :   0.9620
B(  6-C , 11-H ) :   0.9826 B(  7-O ,  8-H ) :   0.8981

Dispersion correction           -0.000257793
FINAL SINGLE POINT ENERGY      -115.729756630925

DIPOLE MOMENT
-------------
                                X             Y             Z
Electronic contribution:     -0.20169      -0.87798       1.37715
Nuclear contribution   :      0.64353       1.40699      -1.53361
                        -----------------------------------------
Total Dipole Moment    :      0.44184       0.52901      -0.15646
                        -----------------------------------------
Magnitude (a.u.)       :      0.70679
Magnitude (Debye)      :      1.79652

Rotational constants in cm-1:     4.387123     0.801055     0.771150
Rotational constants in MHz : 131522.648492 24015.020896 23118.486820

                             ****ORCA TERMINATED NORMALLY****
TOTAL RUN TIME: 0 days 0 hours 1 minutes 0 seconds 638 msec
