                         Program Version 4.1.2  - RELEASE  -
|  1> #Run DFT-D3 single point of the dimer
|  2> ! wB97X-D3 def2-TZVP TIGHTSCF CHELPG PMODEL PAL8
|  3>
|  4> %base "8-197_DFT_AB"
|  5>
|  6> %scf
|  7> MaxIter 1000
|  8> end
|  9>
| 10> * xyz 0 1
| 11>   C                      -10.411031           -6.497166            -1.425488
| 12>   O                      -10.103061           -6.686543            -0.088535
| 13>   H                      -9.212419            -6.309215            0.118963
| 14>   H                      -11.253937           -5.788915            -1.566383
| 15>   H                      -9.499957            -5.949211            -1.949446
| 16>   H                      -10.717005           -7.407105            -1.952296
| 17>   C                      -5.450394            -7.017792            1.970977
| 18>   O                      -6.042229            -6.920867            0.673254
| 19>   H                      -6.564923            -7.763865            0.522771
| 20>   H                      -4.782055            -7.916130            2.135093
| 21>   H                      -4.793322            -6.180792            2.074901
| 22>   H                      -6.219856            -6.898667            2.649508
| 23> *
| 24>
| 25> #Run DFT-D3 single point of the molecule with dimer basis set
| 26> $new_job
| 27> %base "8-197_DFT_A"
| 28> ! wB97X-D3 def2-TZVP TIGHTSCF CHELPG PMODEL
| 29>
| 30> %scf
| 31> MaxIter 1000
| 32> end
| 33>
| 34> * xyz 0 1
| 35>   C                      -10.411031           -6.497166            -1.425488
| 36>   O                      -10.103061           -6.686543            -0.088535
| 37>   H                      -9.212419            -6.309215            0.118963
| 38>   H                      -11.253937           -5.788915            -1.566383
| 39>   H                      -9.499957            -5.949211            -1.949446
| 40>   H                      -10.717005           -7.407105            -1.952296
| 41>   C                    : -5.450394            -7.017792            1.970977
| 42>   O                    : -6.042229            -6.920867            0.673254
| 43>   H                    : -6.564923            -7.763865            0.522771
| 44>   H                    : -4.782055            -7.916130            2.135093
| 45>   H                    : -4.793322            -6.180792            2.074901
| 46>   H                    : -6.219856            -6.898667            2.649508
| 47> *
| 48>
| 49> #Run DFT-D3 single point of the particle with dimer basis set
| 50> $new_job
| 51> %base "8-197_DFT_B"
| 52> ! wB97X-D3 def2-TZVP TIGHTSCF CHELPG PMODEL
| 53>
| 54> %scf
| 55> MaxIter 1000
| 56> end
| 57>
| 58> * xyz 0 1
| 59>   C                    : -10.411031           -6.497166            -1.425488
| 60>   O                    : -10.103061           -6.686543            -0.088535
| 61>   H                    : -9.212419            -6.309215            0.118963
| 62>   H                    : -11.253937           -5.788915            -1.566383
| 63>   H                    : -9.499957            -5.949211            -1.949446
| 64>   H                    : -10.717005           -7.407105            -1.952296
| 65>   C                      -5.450394            -7.017792            1.970977
| 66>   O                      -6.042229            -6.920867            0.673254
| 67>   H                      -6.564923            -7.763865            0.522771
| 68>   H                      -4.782055            -7.916130            2.135093
| 69>   H                      -4.793322            -6.180792            2.074901
| 70>   H                      -6.219856            -6.898667            2.649508
| 71> *
| 72>
| 73>                          ****END OF INPUT****
 Total Charge           Charge          ....    0
 Multiplicity           Mult            ....    1
 Number of Electrons    NEL             ....   36
Dispersion correction           -0.001006478
FINAL SINGLE POINT ENERGY      -231.460396004501
Dispersion correction           -0.000257718
FINAL SINGLE POINT ENERGY      -115.727915616940

CARTESIAN COORDINATES (ANGSTROEM)
---------------------------------
  C    -10.411031   -6.497166   -1.425488
  O    -10.103061   -6.686543   -0.088535
  H     -9.212419   -6.309215    0.118963
  H    -11.253937   -5.788915   -1.566383
  H     -9.499957   -5.949211   -1.949446
  H    -10.717005   -7.407105   -1.952296
  C     -5.450394   -7.017792    1.970977
  O     -6.042229   -6.920867    0.673254
  H     -6.564923   -7.763865    0.522771
  H     -4.782055   -7.916130    2.135093
  H     -4.793322   -6.180792    2.074901
  H     -6.219856   -6.898667    2.649508

 Multiplicity           Mult            ....    1
 Number of Electrons    NEL             ....   18
 Basis Dimension        Dim             ....  172

ORBITAL ENERGIES
----------------

  NO   OCC          E(Eh)            E(eV)
   0   2.0000     -19.232632      -523.3465
   1   2.0000     -10.307989      -280.4947
   2   2.0000      -1.123692       -30.5772
   3   2.0000      -0.796578       -21.6760
   4   2.0000      -0.598225       -16.2785
   5   2.0000      -0.554218       -15.0811
   6   2.0000      -0.520802       -14.1717
   7   2.0000      -0.430661       -11.7189
   8   2.0000      -0.375156       -10.2085
   9   0.0000       0.087303         2.3756
  10   0.0000       0.115710         3.1486
  11   0.0000       0.153157         4.1676
  12   0.0000       0.178958         4.8697
  13   0.0000       0.196388         5.3440

MULLIKEN ATOMIC CHARGES
-----------------------
   0 C :    0.000602
   1 O :    0.000453
   2 H :   -0.005437
   3 H :   -0.000028
   4 H :   -0.000163
   5 H :    0.000010
   6 C :   -0.162647
   7 O :   -0.481407
   8 H :    0.316133
   9 H :    0.101847
  10 H :    0.118049
  11 H :    0.112589
Sum of atomic charges:   -0.0000000

LOEWDIN ATOMIC CHARGES
----------------------
   0 C :   -0.000064
   1 O :   -0.000138
   2 H :   -0.003656
   3 H :   -0.000001
   4 H :   -0.000040
   5 H :   -0.000001
   6 C :   -0.372088
   7 O :   -0.106407
   8 H :    0.190844
   9 H :    0.103549
  10 H :    0.104424
  11 H :    0.083578

  Mayer bond orders larger than 0.1
B(  6-C ,  7-O ) :   0.9989 B(  6-C ,  9-H ) :   0.9705 B(  6-C , 10-H ) :   0.9745
B(  6-C , 11-H ) :   0.9830 B(  7-O ,  8-H ) :   0.8939

Dispersion correction           -0.000242445
FINAL SINGLE POINT ENERGY      -115.729849021571

DIPOLE MOMENT
-------------
                                X             Y             Z
Electronic contribution:     -0.71272       0.21570      -1.56592
Nuclear contribution   :      0.64674      -0.74506       2.01087
                        -----------------------------------------
Total Dipole Moment    :     -0.06598      -0.52936       0.44494
                        -----------------------------------------
Magnitude (a.u.)       :      0.69466
Magnitude (Debye)      :      1.76568

Rotational constants in cm-1:     4.281973     0.819095     0.794846
Rotational constants in MHz : 128370.310570 24555.854720 23828.875700

                             ****ORCA TERMINATED NORMALLY****
TOTAL RUN TIME: 0 days 0 hours 0 minutes 41 seconds 613 msec
