                         Program Version 4.1.2  - RELEASE  -
|  1> #Run DFT-D3 single point of the dimer
|  2> ! wB97X-D3 def2-TZVP TIGHTSCF CHELPG PMODEL PAL8
|  3>
|  4> %base "18-69_DFT_AB"
|  5>
|  6> %scf
|  7> MaxIter 1000
|  8> end
|  9>
| 10> * xyz 0 1
| 11>   C                      -9.376882            2.477543             -4.713638
| 12>   O                      -8.879101            1.249759             -4.251672
| 13>   H                      -8.504587            1.328272             -3.362079
| 14>   H                      -8.510873            3.150077             -4.795730
| 15>   H                      -9.919677            2.295343             -5.655822
| 16>   H                      -10.081456           2.950234             -3.991283
| 17>   C                      -4.918628            1.185095             -3.716477
| 18>   O                      -4.672259            0.000038             -4.366445
| 19>   H                      -4.953604            0.228841             -5.286936
| 20>   H                      -5.340126            1.935895             -4.329332
| 21>   H                      -5.471046            0.979331             -2.770990
| 22>   H                      -3.906583            1.564866             -3.351105
| 23> *
| 24>
| 25> #Run DFT-D3 single point of the molecule with dimer basis set
| 26> $new_job
| 27> %base "18-69_DFT_A"
| 28> ! wB97X-D3 def2-TZVP TIGHTSCF CHELPG PMODEL
| 29>
| 30> %scf
| 31> MaxIter 1000
| 32> end
| 33>
| 34> * xyz 0 1
| 35>   C                      -9.376882            2.477543             -4.713638
| 36>   O                      -8.879101            1.249759             -4.251672
| 37>   H                      -8.504587            1.328272             -3.362079
| 38>   H                      -8.510873            3.150077             -4.795730
| 39>   H                      -9.919677            2.295343             -5.655822
| 40>   H                      -10.081456           2.950234             -3.991283
| 41>   C                    : -4.918628            1.185095             -3.716477
| 42>   O                    : -4.672259            0.000038             -4.366445
| 43>   H                    : -4.953604            0.228841             -5.286936
| 44>   H                    : -5.340126            1.935895             -4.329332
| 45>   H                    : -5.471046            0.979331             -2.770990
| 46>   H                    : -3.906583            1.564866             -3.351105
| 47> *
| 48>
| 49> #Run DFT-D3 single point of the particle with dimer basis set
| 50> $new_job
| 51> %base "18-69_DFT_B"
| 52> ! wB97X-D3 def2-TZVP TIGHTSCF CHELPG PMODEL
| 53>
| 54> %scf
| 55> MaxIter 1000
| 56> end
| 57>
| 58> * xyz 0 1
| 59>   C                    : -9.376882            2.477543             -4.713638
| 60>   O                    : -8.879101            1.249759             -4.251672
| 61>   H                    : -8.504587            1.328272             -3.362079
| 62>   H                    : -8.510873            3.150077             -4.795730
| 63>   H                    : -9.919677            2.295343             -5.655822
| 64>   H                    : -10.081456           2.950234             -3.991283
| 65>   C                      -4.918628            1.185095             -3.716477
| 66>   O                      -4.672259            0.000038             -4.366445
| 67>   H                      -4.953604            0.228841             -5.286936
| 68>   H                      -5.340126            1.935895             -4.329332
| 69>   H                      -5.471046            0.979331             -2.770990
| 70>   H                      -3.906583            1.564866             -3.351105
| 71> *
| 72>
| 73>                          ****END OF INPUT****
 Total Charge           Charge          ....    0
 Multiplicity           Mult            ....    1
 Number of Electrons    NEL             ....   36
Dispersion correction           -0.001249634
FINAL SINGLE POINT ENERGY      -231.463009347590
Dispersion correction           -0.000233081
FINAL SINGLE POINT ENERGY      -115.735047540887

CARTESIAN COORDINATES (ANGSTROEM)
---------------------------------
  C     -9.376882    2.477543   -4.713638
  O     -8.879101    1.249759   -4.251672
  H     -8.504587    1.328272   -3.362079
  H     -8.510873    3.150077   -4.795730
  H     -9.919677    2.295343   -5.655822
  H    -10.081456    2.950234   -3.991283
  C     -4.918628    1.185095   -3.716477
  O     -4.672259    0.000038   -4.366445
  H     -4.953604    0.228841   -5.286936
  H     -5.340126    1.935895   -4.329332
  H     -5.471046    0.979331   -2.770990
  H     -3.906583    1.564866   -3.351105

 Multiplicity           Mult            ....    1
 Number of Electrons    NEL             ....   18
 Basis Dimension        Dim             ....  172

ORBITAL ENERGIES
----------------

  NO   OCC          E(Eh)            E(eV)
   0   2.0000     -19.233455      -523.3689
   1   2.0000     -10.311924      -280.6017
   2   2.0000      -1.149793       -31.2875
   3   2.0000      -0.784497       -21.3473
   4   2.0000      -0.623158       -16.9570
   5   2.0000      -0.536043       -14.5865
   6   2.0000      -0.528306       -14.3759
   7   2.0000      -0.445864       -12.1326
   8   2.0000      -0.362729        -9.8704
   9   0.0000       0.079766         2.1706
  10   0.0000       0.112104         3.0505
  11   0.0000       0.150045         4.0829
  12   0.0000       0.167174         4.5490
  13   0.0000       0.186019         5.0618

MULLIKEN ATOMIC CHARGES
-----------------------
   0 C :    0.000307
   1 O :    0.000259
   2 H :   -0.000560
   3 H :   -0.000329
   4 H :   -0.000029
   5 H :   -0.000022
   6 C :   -0.169128
   7 O :   -0.449511
   8 H :    0.317251
   9 H :    0.108158
  10 H :    0.104986
  11 H :    0.088618
Sum of atomic charges:   -0.0000000

LOEWDIN ATOMIC CHARGES
----------------------
   0 C :   -0.000239
   1 O :   -0.000119
   2 H :   -0.000960
   3 H :   -0.000270
   4 H :   -0.000003
   5 H :   -0.000001
   6 C :   -0.426962
   7 O :   -0.060013
   8 H :    0.194280
   9 H :    0.086564
  10 H :    0.104627
  11 H :    0.103096

  Mayer bond orders larger than 0.1
B(  6-C ,  7-O ) :   1.0193 B(  6-C ,  9-H ) :   0.9839 B(  6-C , 10-H ) :   0.9765
B(  6-C , 11-H ) :   0.9796 B(  7-O ,  8-H ) :   0.8990

Dispersion correction           -0.000221365
FINAL SINGLE POINT ENERGY      -115.726802837265

DIPOLE MOMENT
-------------
                                X             Y             Z
Electronic contribution:      0.18045      -1.62397      -0.86754
Nuclear contribution   :     -0.45723       2.18598       0.49797
                        -----------------------------------------
Total Dipole Moment    :     -0.27679       0.56201      -0.36957
                        -----------------------------------------
Magnitude (a.u.)       :      0.72736
Magnitude (Debye)      :      1.84881

Rotational constants in cm-1:     4.088138     0.885852     0.842157
Rotational constants in MHz : 122559.307175 26557.180116 25247.221389

                             ****ORCA TERMINATED NORMALLY****
TOTAL RUN TIME: 0 days 0 hours 1 minutes 0 seconds 637 msec
