                         Program Version 4.1.2  - RELEASE  -
|  1> #Run DFT-D3 single point of the dimer
|  2> ! wB97X-D3 def2-TZVP TIGHTSCF CHELPG PMODEL PAL8
|  3>
|  4> %base "1-136_DFT_AB"
|  5>
|  6> %scf
|  7> MaxIter 1000
|  8> end
|  9>
| 10> * xyz 0 1
| 11>   C                      -5.907909            -7.270383            -9.411896
| 12>   O                      -6.939199            -7.776413            -10.164808
| 13>   H                      -6.849810            -8.745502            -10.180810
| 14>   H                      -5.949273            -7.445977            -8.375448
| 15>   H                      -4.982129            -7.743169            -9.713157
| 16>   H                      -5.813734            -6.172566            -9.550983
| 17>   C                      -3.324196            -6.402759            -10.312662
| 18>   O                      -2.527251            -5.322440            -10.595239
| 19>   H                      -2.024062            -5.565077            -11.359210
| 20>   H                      -3.005515            -7.368016            -10.577505
| 21>   H                      -3.356367            -6.469012            -9.238082
| 22>   H                      -4.257894            -6.357459            -10.799611
| 23> *
| 24>
| 25> #Run DFT-D3 single point of the molecule with dimer basis set
| 26> $new_job
| 27> %base "1-136_DFT_A"
| 28> ! wB97X-D3 def2-TZVP TIGHTSCF CHELPG PMODEL
| 29>
| 30> %scf
| 31> MaxIter 1000
| 32> end
| 33>
| 34> * xyz 0 1
| 35>   C                      -5.907909            -7.270383            -9.411896
| 36>   O                      -6.939199            -7.776413            -10.164808
| 37>   H                      -6.849810            -8.745502            -10.180810
| 38>   H                      -5.949273            -7.445977            -8.375448
| 39>   H                      -4.982129            -7.743169            -9.713157
| 40>   H                      -5.813734            -6.172566            -9.550983
| 41>   C                    : -3.324196            -6.402759            -10.312662
| 42>   O                    : -2.527251            -5.322440            -10.595239
| 43>   H                    : -2.024062            -5.565077            -11.359210
| 44>   H                    : -3.005515            -7.368016            -10.577505
| 45>   H                    : -3.356367            -6.469012            -9.238082
| 46>   H                    : -4.257894            -6.357459            -10.799611
| 47> *
| 48>
| 49> #Run DFT-D3 single point of the particle with dimer basis set
| 50> $new_job
| 51> %base "1-136_DFT_B"
| 52> ! wB97X-D3 def2-TZVP TIGHTSCF CHELPG PMODEL
| 53>
| 54> %scf
| 55> MaxIter 1000
| 56> end
| 57>
| 58> * xyz 0 1
| 59>   C                    : -5.907909            -7.270383            -9.411896
| 60>   O                    : -6.939199            -7.776413            -10.164808
| 61>   H                    : -6.849810            -8.745502            -10.180810
| 62>   H                    : -5.949273            -7.445977            -8.375448
| 63>   H                    : -4.982129            -7.743169            -9.713157
| 64>   H                    : -5.813734            -6.172566            -9.550983
| 65>   C                      -3.324196            -6.402759            -10.312662
| 66>   O                      -2.527251            -5.322440            -10.595239
| 67>   H                      -2.024062            -5.565077            -11.359210
| 68>   H                      -3.005515            -7.368016            -10.577505
| 69>   H                      -3.356367            -6.469012            -9.238082
| 70>   H                      -4.257894            -6.357459            -10.799611
| 71> *
| 72>
| 73>                          ****END OF INPUT****
 Total Charge           Charge          ....    0
 Multiplicity           Mult            ....    1
 Number of Electrons    NEL             ....   36
Dispersion correction           -0.001757261
FINAL SINGLE POINT ENERGY      -231.449252775726
Dispersion correction           -0.000219184
FINAL SINGLE POINT ENERGY      -115.732779974187

CARTESIAN COORDINATES (ANGSTROEM)
---------------------------------
  C     -5.907909   -7.270383   -9.411896
  O     -6.939199   -7.776413  -10.164808
  H     -6.849810   -8.745502  -10.180810
  H     -5.949273   -7.445977   -8.375448
  H     -4.982129   -7.743169   -9.713157
  H     -5.813734   -6.172566   -9.550983
  C     -3.324196   -6.402759  -10.312662
  O     -2.527251   -5.322440  -10.595239
  H     -2.024062   -5.565077  -11.359210
  H     -3.005515   -7.368016  -10.577505
  H     -3.356367   -6.469012   -9.238082
  H     -4.257894   -6.357459  -10.799611

 Multiplicity           Mult            ....    1
 Number of Electrons    NEL             ....   18
 Basis Dimension        Dim             ....  172

ORBITAL ENERGIES
----------------

  NO   OCC          E(Eh)            E(eV)
   0   2.0000     -19.230227      -523.2811
   1   2.0000     -10.297096      -280.1982
   2   2.0000      -1.154277       -31.4095
   3   2.0000      -0.803450       -21.8630
   4   2.0000      -0.629883       -17.1400
   5   2.0000      -0.557180       -15.1617
   6   2.0000      -0.521234       -14.1835
   7   2.0000      -0.434082       -11.8120
   8   2.0000      -0.375343       -10.2136
   9   0.0000       0.089908         2.4465
  10   0.0000       0.118850         3.2341
  11   0.0000       0.163077         4.4375
  12   0.0000       0.175082         4.7642
  13   0.0000       0.186947         5.0871

MULLIKEN ATOMIC CHARGES
-----------------------
   0 C :   -0.012416
   1 O :    0.000962
   2 H :    0.000021
   3 H :    0.000727
   4 H :    0.003934
   5 H :    0.004022
   6 C :   -0.173742
   7 O :   -0.458568
   8 H :    0.312346
   9 H :    0.100897
  10 H :    0.115547
  11 H :    0.106270
Sum of atomic charges:    0.0000000

LOEWDIN ATOMIC CHARGES
----------------------
   0 C :   -0.043179
   1 O :   -0.000234
   2 H :   -0.000058
   3 H :   -0.000856
   4 H :   -0.017282
   5 H :   -0.010739
   6 C :   -0.382665
   7 O :   -0.029862
   8 H :    0.165748
   9 H :    0.090062
  10 H :    0.118284
  11 H :    0.110783

  Mayer bond orders larger than 0.1
B(  6-C ,  7-O ) :   1.0130 B(  6-C ,  9-H ) :   0.9748 B(  6-C , 10-H ) :   0.9770
B(  6-C , 11-H ) :   0.9733 B(  7-O ,  8-H ) :   0.9043

Dispersion correction           -0.000216232
FINAL SINGLE POINT ENERGY      -115.727247747221

DIPOLE MOMENT
-------------
                                X             Y             Z
Electronic contribution:      1.01094       1.55191      -0.33655
Nuclear contribution   :     -0.95220      -2.13802      -0.06584
                        -----------------------------------------
Total Dipole Moment    :      0.05874      -0.58611      -0.40239
                        -----------------------------------------
Magnitude (a.u.)       :      0.71337
Magnitude (Debye)      :      1.81323

Rotational constants in cm-1:     4.612390     0.876167     0.847421
Rotational constants in MHz : 138275.985918 26266.840788 25405.038119

                             ****ORCA TERMINATED NORMALLY****
TOTAL RUN TIME: 0 days 0 hours 5 minutes 38 seconds 621 msec
