                         Program Version 4.1.2  - RELEASE  -
|  1> #Run DFT-D3 single point of the dimer
|  2> ! wB97X-D3 def2-TZVP TIGHTSCF CHELPG PMODEL PAL8
|  3>
|  4> %base "6-64_DFT_AB"
|  5>
|  6> %scf
|  7> MaxIter 1000
|  8> end
|  9>
| 10> * xyz 0 1
| 11>   C                      -6.106169            -7.139025            5.478536
| 12>   O                      -7.250673            -6.358448            5.904261
| 13>   H                      -7.580413            -5.854131            5.158850
| 14>   H                      -5.225424            -6.537199            5.228452
| 15>   H                      -5.853161            -7.888103            6.266709
| 16>   H                      -6.381485            -7.683977            4.536477
| 17>   C                      -10.609718           -6.506409            5.896428
| 18>   O                      -11.093761           -5.800162            4.800761
| 19>   H                      -11.835064           -5.252951            5.266487
| 20>   H                      -10.686594           -7.567486            5.695055
| 21>   H                      -9.632253            -6.324988            6.243751
| 22>   H                      -11.223079           -6.309885            6.777493
| 23> *
| 24>
| 25> #Run DFT-D3 single point of the molecule with dimer basis set
| 26> $new_job
| 27> %base "6-64_DFT_A"
| 28> ! wB97X-D3 def2-TZVP TIGHTSCF CHELPG PMODEL
| 29>
| 30> %scf
| 31> MaxIter 1000
| 32> end
| 33>
| 34> * xyz 0 1
| 35>   C                      -6.106169            -7.139025            5.478536
| 36>   O                      -7.250673            -6.358448            5.904261
| 37>   H                      -7.580413            -5.854131            5.158850
| 38>   H                      -5.225424            -6.537199            5.228452
| 39>   H                      -5.853161            -7.888103            6.266709
| 40>   H                      -6.381485            -7.683977            4.536477
| 41>   C                    : -10.609718           -6.506409            5.896428
| 42>   O                    : -11.093761           -5.800162            4.800761
| 43>   H                    : -11.835064           -5.252951            5.266487
| 44>   H                    : -10.686594           -7.567486            5.695055
| 45>   H                    : -9.632253            -6.324988            6.243751
| 46>   H                    : -11.223079           -6.309885            6.777493
| 47> *
| 48>
| 49> #Run DFT-D3 single point of the particle with dimer basis set
| 50> $new_job
| 51> %base "6-64_DFT_B"
| 52> ! wB97X-D3 def2-TZVP TIGHTSCF CHELPG PMODEL
| 53>
| 54> %scf
| 55> MaxIter 1000
| 56> end
| 57>
| 58> * xyz 0 1
| 59>   C                    : -6.106169            -7.139025            5.478536
| 60>   O                    : -7.250673            -6.358448            5.904261
| 61>   H                    : -7.580413            -5.854131            5.158850
| 62>   H                    : -5.225424            -6.537199            5.228452
| 63>   H                    : -5.853161            -7.888103            6.266709
| 64>   H                    : -6.381485            -7.683977            4.536477
| 65>   C                      -10.609718           -6.506409            5.896428
| 66>   O                      -11.093761           -5.800162            4.800761
| 67>   H                      -11.835064           -5.252951            5.266487
| 68>   H                      -10.686594           -7.567486            5.695055
| 69>   H                      -9.632253            -6.324988            6.243751
| 70>   H                      -11.223079           -6.309885            6.777493
| 71> *
| 72>
| 73>                          ****END OF INPUT****
 Total Charge           Charge          ....    0
 Multiplicity           Mult            ....    1
 Number of Electrons    NEL             ....   36
Dispersion correction           -0.001433418
FINAL SINGLE POINT ENERGY      -231.460673752346
Dispersion correction           -0.000261243
FINAL SINGLE POINT ENERGY      -115.735131272058

CARTESIAN COORDINATES (ANGSTROEM)
---------------------------------
  C     -6.106169   -7.139025    5.478536
  O     -7.250673   -6.358448    5.904261
  H     -7.580413   -5.854131    5.158850
  H     -5.225424   -6.537199    5.228452
  H     -5.853161   -7.888103    6.266709
  H     -6.381485   -7.683977    4.536477
  C    -10.609718   -6.506409    5.896428
  O    -11.093761   -5.800162    4.800761
  H    -11.835064   -5.252951    5.266487
  H    -10.686594   -7.567486    5.695055
  H     -9.632253   -6.324988    6.243751
  H    -11.223079   -6.309885    6.777493

 Multiplicity           Mult            ....    1
 Number of Electrons    NEL             ....   18
 Basis Dimension        Dim             ....  172

ORBITAL ENERGIES
----------------

  NO   OCC          E(Eh)            E(eV)
   0   2.0000     -19.239142      -523.5237
   1   2.0000     -10.304655      -280.4039
   2   2.0000      -1.137856       -30.9626
   3   2.0000      -0.791365       -21.5341
   4   2.0000      -0.611380       -16.6365
   5   2.0000      -0.545806       -14.8521
   6   2.0000      -0.530282       -14.4297
   7   2.0000      -0.433747       -11.8028
   8   2.0000      -0.373129       -10.1534
   9   0.0000       0.087439         2.3793
  10   0.0000       0.102104         2.7784
  11   0.0000       0.153433         4.1751
  12   0.0000       0.174178         4.7396
  13   0.0000       0.193644         5.2693

MULLIKEN ATOMIC CHARGES
-----------------------
   0 C :   -0.000317
   1 O :    0.001834
   2 H :    0.001837
   3 H :    0.000019
   4 H :   -0.000082
   5 H :    0.000049
   6 C :   -0.170872
   7 O :   -0.454627
   8 H :    0.323183
   9 H :    0.107490
  10 H :    0.094905
  11 H :    0.096581
Sum of atomic charges:    0.0000000

LOEWDIN ATOMIC CHARGES
----------------------
   0 C :   -0.000684
   1 O :   -0.008115
   2 H :   -0.002905
   3 H :   -0.000014
   4 H :   -0.000033
   5 H :   -0.000022
   6 C :   -0.410818
   7 O :   -0.083885
   8 H :    0.219764
   9 H :    0.099905
  10 H :    0.091318
  11 H :    0.095489

  Mayer bond orders larger than 0.1
B(  6-C ,  7-O ) :   1.0308 B(  6-C ,  9-H ) :   0.9861 B(  6-C , 10-H ) :   0.9619
B(  6-C , 11-H ) :   0.9973 B(  7-O ,  8-H ) :   0.8940

Dispersion correction           -0.000227389
FINAL SINGLE POINT ENERGY      -115.723515702020

DIPOLE MOMENT
-------------
                                X             Y             Z
Electronic contribution:     -0.41267       0.93018      -1.67530
Nuclear contribution   :      0.13447      -0.85065       2.37039
                        -----------------------------------------
Total Dipole Moment    :     -0.27820       0.07953       0.69509
                        -----------------------------------------
Magnitude (a.u.)       :      0.75291
Magnitude (Debye)      :      1.91374

Rotational constants in cm-1:     4.303215     0.861627     0.820144
Rotational constants in MHz : 129007.147058 25830.932108 24587.301097

                             ****ORCA TERMINATED NORMALLY****
TOTAL RUN TIME: 0 days 0 hours 1 minutes 5 seconds 943 msec
