                         Program Version 4.1.2  - RELEASE  -
|  1> #Run DFT-D3 single point of the dimer
|  2> ! wB97X-D3 def2-TZVP TIGHTSCF CHELPG PMODEL PAL8
|  3>
|  4> %base "8-99_DFT_AB"
|  5>
|  6> %scf
|  7> MaxIter 1000
|  8> end
|  9>
| 10> * xyz 0 1
| 11>   C                      -5.195719            -0.427144            9.365506
| 12>   O                      -6.124433            -1.080566            10.163934
| 13>   H                      -6.539004            -1.747450            9.631112
| 14>   H                      -5.596017            -0.049719            8.423426
| 15>   H                      -4.831508            0.366167             9.977338
| 16>   H                      -4.342301            -1.112926            9.156067
| 17>   C                      -7.670524            1.589111             5.019114
| 18>   O                      -7.899167            3.008859             4.966002
| 19>   H                      -7.537661            3.317314             4.077069
| 20>   H                      -7.944804            1.121915             4.083185
| 21>   H                      -6.718689            1.262393             5.348484
| 22>   H                      -8.318081            1.192866             5.761390
| 23> *
| 24>
| 25> #Run DFT-D3 single point of the molecule with dimer basis set
| 26> $new_job
| 27> %base "8-99_DFT_A"
| 28> ! wB97X-D3 def2-TZVP TIGHTSCF CHELPG PMODEL
| 29>
| 30> %scf
| 31> MaxIter 1000
| 32> end
| 33>
| 34> * xyz 0 1
| 35>   C                      -5.195719            -0.427144            9.365506
| 36>   O                      -6.124433            -1.080566            10.163934
| 37>   H                      -6.539004            -1.747450            9.631112
| 38>   H                      -5.596017            -0.049719            8.423426
| 39>   H                      -4.831508            0.366167             9.977338
| 40>   H                      -4.342301            -1.112926            9.156067
| 41>   C                    : -7.670524            1.589111             5.019114
| 42>   O                    : -7.899167            3.008859             4.966002
| 43>   H                    : -7.537661            3.317314             4.077069
| 44>   H                    : -7.944804            1.121915             4.083185
| 45>   H                    : -6.718689            1.262393             5.348484
| 46>   H                    : -8.318081            1.192866             5.761390
| 47> *
| 48>
| 49> #Run DFT-D3 single point of the particle with dimer basis set
| 50> $new_job
| 51> %base "8-99_DFT_B"
| 52> ! wB97X-D3 def2-TZVP TIGHTSCF CHELPG PMODEL
| 53>
| 54> %scf
| 55> MaxIter 1000
| 56> end
| 57>
| 58> * xyz 0 1
| 59>   C                    : -5.195719            -0.427144            9.365506
| 60>   O                    : -6.124433            -1.080566            10.163934
| 61>   H                    : -6.539004            -1.747450            9.631112
| 62>   H                    : -5.596017            -0.049719            8.423426
| 63>   H                    : -4.831508            0.366167             9.977338
| 64>   H                    : -4.342301            -1.112926            9.156067
| 65>   C                      -7.670524            1.589111             5.019114
| 66>   O                      -7.899167            3.008859             4.966002
| 67>   H                      -7.537661            3.317314             4.077069
| 68>   H                      -7.944804            1.121915             4.083185
| 69>   H                      -6.718689            1.262393             5.348484
| 70>   H                      -8.318081            1.192866             5.761390
| 71> *
| 72>
| 73>                          ****END OF INPUT****
 Total Charge           Charge          ....    0
 Multiplicity           Mult            ....    1
 Number of Electrons    NEL             ....   36
Dispersion correction           -0.000706497
FINAL SINGLE POINT ENERGY      -231.466543755393
Dispersion correction           -0.000220311
FINAL SINGLE POINT ENERGY      -115.735520433279

CARTESIAN COORDINATES (ANGSTROEM)
---------------------------------
  C     -5.195719   -0.427144    9.365506
  O     -6.124433   -1.080566   10.163934
  H     -6.539004   -1.747450    9.631112
  H     -5.596017   -0.049719    8.423426
  H     -4.831508    0.366167    9.977338
  H     -4.342301   -1.112926    9.156067
  C     -7.670524    1.589111    5.019114
  O     -7.899167    3.008859    4.966002
  H     -7.537661    3.317314    4.077069
  H     -7.944804    1.121915    4.083185
  H     -6.718689    1.262393    5.348484
  H     -8.318081    1.192866    5.761390

 Multiplicity           Mult            ....    1
 Number of Electrons    NEL             ....   18
 Basis Dimension        Dim             ....  172

ORBITAL ENERGIES
----------------

  NO   OCC          E(Eh)            E(eV)
   0   2.0000     -19.235165      -523.4154
   1   2.0000     -10.305569      -280.4288
   2   2.0000      -1.120614       -30.4934
   3   2.0000      -0.800167       -21.7736
   4   2.0000      -0.600604       -16.3433
   5   2.0000      -0.545840       -14.8531
   6   2.0000      -0.521901       -14.2017
   7   2.0000      -0.435528       -11.8513
   8   2.0000      -0.375917       -10.2292
   9   0.0000       0.085488         2.3262
  10   0.0000       0.110763         3.0140
  11   0.0000       0.145471         3.9585
  12   0.0000       0.166069         4.5190
  13   0.0000       0.193395         5.2625

MULLIKEN ATOMIC CHARGES
-----------------------
   0 C :   -0.000054
   1 O :    0.000000
   2 H :   -0.000001
   3 H :    0.000022
   4 H :   -0.000001
   5 H :    0.000002
   6 C :   -0.165234
   7 O :   -0.478152
   8 H :    0.315887
   9 H :    0.105960
  10 H :    0.102077
  11 H :    0.119493
Sum of atomic charges:    0.0000000

LOEWDIN ATOMIC CHARGES
----------------------
   0 C :   -0.000047
   1 O :   -0.000002
   2 H :   -0.000001
   3 H :   -0.000217
   4 H :   -0.000000
   5 H :   -0.000000
   6 C :   -0.366365
   7 O :   -0.113045
   8 H :    0.194017
   9 H :    0.095351
  10 H :    0.087291
  11 H :    0.103019

  Mayer bond orders larger than 0.1
B(  6-C ,  7-O ) :   1.0074 B(  6-C ,  9-H ) :   0.9833 B(  6-C , 10-H ) :   0.9688
B(  6-C , 11-H ) :   0.9788 B(  7-O ,  8-H ) :   0.8957

Dispersion correction           -0.000252488
FINAL SINGLE POINT ENERGY      -115.731000651828

DIPOLE MOMENT
-------------
                                X             Y             Z
Electronic contribution:     -0.26371       1.80471       0.05180
Nuclear contribution   :      0.56022      -2.20877      -0.56178
                        -----------------------------------------
Total Dipole Moment    :      0.29651      -0.40406      -0.50998
                        -----------------------------------------
Magnitude (a.u.)       :      0.71502
Magnitude (Debye)      :      1.81745

Rotational constants in cm-1:     4.415822     0.809514     0.778281
Rotational constants in MHz : 132382.998559 24268.613399 23332.272973

                             ****ORCA TERMINATED NORMALLY****
TOTAL RUN TIME: 0 days 0 hours 0 minutes 32 seconds 652 msec
