                         Program Version 4.1.2  - RELEASE  -
|  1> #Run DFT-D3 single point of the dimer
|  2> ! wB97X-D3 def2-TZVP TIGHTSCF CHELPG PMODEL PAL8
|  3>
|  4> %base "5-32_DFT_AB"
|  5>
|  6> %scf
|  7> MaxIter 1000
|  8> end
|  9>
| 10> * xyz 0 1
| 11>   C                      0.049032             -10.783737           -3.547147
| 12>   O                      -1.245113            -10.968864           -2.996254
| 13>   H                      -1.364851            -11.804296           -2.480069
| 14>   H                      0.119904             -9.931125            -4.234255
| 15>   H                      0.661525             -10.373009           -2.824909
| 16>   H                      0.387264             -11.742814           -4.004112
| 17>   C                      4.446617             -11.047221           -2.967449
| 18>   O                      3.062924             -11.137170           -2.797637
| 19>   H                      2.677207             -10.973401           -3.674396
| 20>   H                      4.680721             -10.136833           -3.559049
| 21>   H                      5.051022             -10.753970           -2.086627
| 22>   H                      4.854918             -11.874599           -3.580567
| 23> *
| 24>
| 25> #Run DFT-D3 single point of the molecule with dimer basis set
| 26> $new_job
| 27> %base "5-32_DFT_A"
| 28> ! wB97X-D3 def2-TZVP TIGHTSCF CHELPG PMODEL
| 29>
| 30> %scf
| 31> MaxIter 1000
| 32> end
| 33>
| 34> * xyz 0 1
| 35>   C                      0.049032             -10.783737           -3.547147
| 36>   O                      -1.245113            -10.968864           -2.996254
| 37>   H                      -1.364851            -11.804296           -2.480069
| 38>   H                      0.119904             -9.931125            -4.234255
| 39>   H                      0.661525             -10.373009           -2.824909
| 40>   H                      0.387264             -11.742814           -4.004112
| 41>   C                    : 4.446617             -11.047221           -2.967449
| 42>   O                    : 3.062924             -11.137170           -2.797637
| 43>   H                    : 2.677207             -10.973401           -3.674396
| 44>   H                    : 4.680721             -10.136833           -3.559049
| 45>   H                    : 5.051022             -10.753970           -2.086627
| 46>   H                    : 4.854918             -11.874599           -3.580567
| 47> *
| 48>
| 49> #Run DFT-D3 single point of the particle with dimer basis set
| 50> $new_job
| 51> %base "5-32_DFT_B"
| 52> ! wB97X-D3 def2-TZVP TIGHTSCF CHELPG PMODEL
| 53>
| 54> %scf
| 55> MaxIter 1000
| 56> end
| 57>
| 58> * xyz 0 1
| 59>   C                    : 0.049032             -10.783737           -3.547147
| 60>   O                    : -1.245113            -10.968864           -2.996254
| 61>   H                    : -1.364851            -11.804296           -2.480069
| 62>   H                    : 0.119904             -9.931125            -4.234255
| 63>   H                    : 0.661525             -10.373009           -2.824909
| 64>   H                    : 0.387264             -11.742814           -4.004112
| 65>   C                      4.446617             -11.047221           -2.967449
| 66>   O                      3.062924             -11.137170           -2.797637
| 67>   H                      2.677207             -10.973401           -3.674396
| 68>   H                      4.680721             -10.136833           -3.559049
| 69>   H                      5.051022             -10.753970           -2.086627
| 70>   H                      4.854918             -11.874599           -3.580567
| 71> *
| 72>
| 73>                          ****END OF INPUT****
 Total Charge           Charge          ....    0
 Multiplicity           Mult            ....    1
 Number of Electrons    NEL             ....   36
Dispersion correction           -0.001521972
FINAL SINGLE POINT ENERGY      -231.451968381858
Dispersion correction           -0.000251193
FINAL SINGLE POINT ENERGY      -115.724207624434

CARTESIAN COORDINATES (ANGSTROEM)
---------------------------------
  C      0.049032  -10.783737   -3.547147
  O     -1.245113  -10.968864   -2.996254
  H     -1.364851  -11.804296   -2.480069
  H      0.119904   -9.931125   -4.234255
  H      0.661525  -10.373009   -2.824909
  H      0.387264  -11.742814   -4.004112
  C      4.446617  -11.047221   -2.967449
  O      3.062924  -11.137170   -2.797637
  H      2.677207  -10.973401   -3.674396
  H      4.680721  -10.136833   -3.559049
  H      5.051022  -10.753970   -2.086627
  H      4.854918  -11.874599   -3.580567

 Multiplicity           Mult            ....    1
 Number of Electrons    NEL             ....   18
 Basis Dimension        Dim             ....  172

ORBITAL ENERGIES
----------------

  NO   OCC          E(Eh)            E(eV)
   0   2.0000     -19.235004      -523.4111
   1   2.0000     -10.317061      -280.7415
   2   2.0000      -1.142931       -31.1007
   3   2.0000      -0.792057       -21.5530
   4   2.0000      -0.614468       -16.7205
   5   2.0000      -0.552090       -15.0231
   6   2.0000      -0.522671       -14.2226
   7   2.0000      -0.426964       -11.6183
   8   2.0000      -0.373294       -10.1579
   9   0.0000       0.082383         2.2418
  10   0.0000       0.125024         3.4021
  11   0.0000       0.150801         4.1035
  12   0.0000       0.178962         4.8698
  13   0.0000       0.193237         5.2582

MULLIKEN ATOMIC CHARGES
-----------------------
   0 C :    0.003016
   1 O :   -0.000023
   2 H :   -0.000025
   3 H :   -0.000146
   4 H :   -0.009654
   5 H :   -0.002519
   6 C :   -0.196046
   7 O :   -0.452063
   8 H :    0.324453
   9 H :    0.099474
  10 H :    0.126395
  11 H :    0.107137
Sum of atomic charges:    0.0000000

LOEWDIN ATOMIC CHARGES
----------------------
   0 C :   -0.013551
   1 O :   -0.000062
   2 H :   -0.000008
   3 H :   -0.000442
   4 H :   -0.009132
   5 H :   -0.002426
   6 C :   -0.415556
   7 O :   -0.055809
   8 H :    0.188826
   9 H :    0.097252
  10 H :    0.113251
  11 H :    0.097658

  Mayer bond orders larger than 0.1
B(  6-C ,  7-O ) :   1.0022 B(  6-C ,  9-H ) :   0.9854 B(  6-C , 10-H ) :   0.9672
B(  6-C , 11-H ) :   0.9708 B(  7-O ,  8-H ) :   0.8911

Dispersion correction           -0.000235136
FINAL SINGLE POINT ENERGY      -115.728079220647

DIPOLE MOMENT
-------------
                                X             Y             Z
Electronic contribution:     -1.85386      -0.35173       0.54443
Nuclear contribution   :      2.15413       0.53679      -1.16187
                        -----------------------------------------
Total Dipole Moment    :      0.30027       0.18506      -0.61744
                        -----------------------------------------
Magnitude (a.u.)       :      0.71108
Magnitude (Debye)      :      1.80743

Rotational constants in cm-1:     4.283711     0.836942     0.809146
Rotational constants in MHz : 128422.425507 25090.895158 24257.575181

                             ****ORCA TERMINATED NORMALLY****
TOTAL RUN TIME: 0 days 0 hours 0 minutes 59 seconds 798 msec
