                         Program Version 4.1.2  - RELEASE  -
|  1> #Run DFT-D3 single point of the dimer
|  2> ! wB97X-D3 def2-TZVP TIGHTSCF CHELPG PMODEL PAL8
|  3>
|  4> %base "17-148_DFT_AB"
|  5>
|  6> %scf
|  7> MaxIter 1000
|  8> end
|  9>
| 10> * xyz 0 1
| 11>   C                      -10.328175           0.004167             8.727744
| 12>   O                      -10.989691           -0.974389            8.027758
| 13>   H                      -10.821854           -1.774220            8.503981
| 14>   H                      -11.013817           0.818038             8.872286
| 15>   H                      -9.899313            -0.359662            9.666083
| 16>   H                      -9.581659            0.409951             8.128313
| 17>   C                      -10.205780           1.008427             4.940349
| 18>   O                      -9.787588            2.053346             5.751389
| 19>   H                      -10.422777           2.726125             5.551359
| 20>   H                      -11.282600           0.923962             4.968889
| 21>   H                      -9.835737            1.188598             3.905393
| 22>   H                      -9.735738            0.053062             5.211727
| 23> *
| 24>
| 25> #Run DFT-D3 single point of the molecule with dimer basis set
| 26> $new_job
| 27> %base "17-148_DFT_A"
| 28> ! wB97X-D3 def2-TZVP TIGHTSCF CHELPG PMODEL
| 29>
| 30> %scf
| 31> MaxIter 1000
| 32> end
| 33>
| 34> * xyz 0 1
| 35>   C                      -10.328175           0.004167             8.727744
| 36>   O                      -10.989691           -0.974389            8.027758
| 37>   H                      -10.821854           -1.774220            8.503981
| 38>   H                      -11.013817           0.818038             8.872286
| 39>   H                      -9.899313            -0.359662            9.666083
| 40>   H                      -9.581659            0.409951             8.128313
| 41>   C                    : -10.205780           1.008427             4.940349
| 42>   O                    : -9.787588            2.053346             5.751389
| 43>   H                    : -10.422777           2.726125             5.551359
| 44>   H                    : -11.282600           0.923962             4.968889
| 45>   H                    : -9.835737            1.188598             3.905393
| 46>   H                    : -9.735738            0.053062             5.211727
| 47> *
| 48>
| 49> #Run DFT-D3 single point of the particle with dimer basis set
| 50> $new_job
| 51> %base "17-148_DFT_B"
| 52> ! wB97X-D3 def2-TZVP TIGHTSCF CHELPG PMODEL
| 53>
| 54> %scf
| 55> MaxIter 1000
| 56> end
| 57>
| 58> * xyz 0 1
| 59>   C                    : -10.328175           0.004167             8.727744
| 60>   O                    : -10.989691           -0.974389            8.027758
| 61>   H                    : -10.821854           -1.774220            8.503981
| 62>   H                    : -11.013817           0.818038             8.872286
| 63>   H                    : -9.899313            -0.359662            9.666083
| 64>   H                    : -9.581659            0.409951             8.128313
| 65>   C                      -10.205780           1.008427             4.940349
| 66>   O                      -9.787588            2.053346             5.751389
| 67>   H                      -10.422777           2.726125             5.551359
| 68>   H                      -11.282600           0.923962             4.968889
| 69>   H                      -9.835737            1.188598             3.905393
| 70>   H                      -9.735738            0.053062             5.211727
| 71> *
| 72>
| 73>                          ****END OF INPUT****
 Total Charge           Charge          ....    0
 Multiplicity           Mult            ....    1
 Number of Electrons    NEL             ....   36
Dispersion correction           -0.001791425
FINAL SINGLE POINT ENERGY      -231.465993176766
Dispersion correction           -0.000209106
FINAL SINGLE POINT ENERGY      -115.730198707629

CARTESIAN COORDINATES (ANGSTROEM)
---------------------------------
  C    -10.328175    0.004167    8.727744
  O    -10.989691   -0.974389    8.027758
  H    -10.821854   -1.774220    8.503981
  H    -11.013817    0.818038    8.872286
  H     -9.899313   -0.359662    9.666083
  H     -9.581659    0.409951    8.128313
  C    -10.205780    1.008427    4.940349
  O     -9.787588    2.053346    5.751389
  H    -10.422777    2.726125    5.551359
  H    -11.282600    0.923962    4.968889
  H     -9.835737    1.188598    3.905393
  H     -9.735738    0.053062    5.211727

 Multiplicity           Mult            ....    1
 Number of Electrons    NEL             ....   18
 Basis Dimension        Dim             ....  172

ORBITAL ENERGIES
----------------

  NO   OCC          E(Eh)            E(eV)
   0   2.0000     -19.229986      -523.2745
   1   2.0000     -10.312452      -280.6161
   2   2.0000      -1.152294       -31.3555
   3   2.0000      -0.791469       -21.5370
   4   2.0000      -0.616408       -16.7733
   5   2.0000      -0.548197       -14.9172
   6   2.0000      -0.532373       -14.4866
   7   2.0000      -0.437822       -11.9137
   8   2.0000      -0.371009       -10.0957
   9   0.0000       0.091806         2.4982
  10   0.0000       0.121931         3.3179
  11   0.0000       0.153838         4.1862
  12   0.0000       0.184351         5.0164
  13   0.0000       0.191348         5.2069

MULLIKEN ATOMIC CHARGES
-----------------------
   0 C :    0.002607
   1 O :   -0.000412
   2 H :   -0.000019
   3 H :   -0.002398
   4 H :   -0.000140
   5 H :   -0.002623
   6 C :   -0.173947
   7 O :   -0.455909
   8 H :    0.311245
   9 H :    0.106882
  10 H :    0.099651
  11 H :    0.115062
Sum of atomic charges:   -0.0000000

LOEWDIN ATOMIC CHARGES
----------------------
   0 C :   -0.004567
   1 O :   -0.000495
   2 H :   -0.000028
   3 H :   -0.000811
   4 H :   -0.000029
   5 H :   -0.003669
   6 C :   -0.409378
   7 O :   -0.046153
   8 H :    0.166389
   9 H :    0.092646
  10 H :    0.098108
  11 H :    0.107987

  Mayer bond orders larger than 0.1
B(  6-C ,  7-O ) :   0.9908 B(  6-C ,  9-H ) :   0.9846 B(  6-C , 10-H ) :   0.9746
B(  6-C , 11-H ) :   0.9756 B(  7-O ,  8-H ) :   0.9046

Dispersion correction           -0.000208910
FINAL SINGLE POINT ENERGY      -115.733397856864

DIPOLE MOMENT
-------------
                                X             Y             Z
Electronic contribution:      0.60001       1.27191       1.19435
Nuclear contribution   :     -1.15241      -1.24691      -1.61536
                        -----------------------------------------
Total Dipole Moment    :     -0.55240       0.02500      -0.42101
                        -----------------------------------------
Magnitude (a.u.)       :      0.69500
Magnitude (Debye)      :      1.76654

Rotational constants in cm-1:     4.234371     0.866925     0.834153
Rotational constants in MHz : 126943.235655 25989.748580 25007.267374

                             ****ORCA TERMINATED NORMALLY****
TOTAL RUN TIME: 0 days 0 hours 1 minutes 12 seconds 617 msec
