                         Program Version 4.1.2  - RELEASE  -
|  1> #Run DFT-D3 single point of the dimer
|  2> ! wB97X-D3 def2-TZVP TIGHTSCF CHELPG PMODEL PAL8
|  3>
|  4> %base "8-214_DFT_AB"
|  5>
|  6> %scf
|  7> MaxIter 1000
|  8> end
|  9>
| 10> * xyz 0 1
| 11>   C                      -0.724076            2.085475             2.183284
| 12>   O                      -1.374681            2.465893             3.392818
| 13>   H                      -1.953464            3.260510             3.216241
| 14>   H                      0.226551             1.538815             2.290839
| 15>   H                      -1.235051            1.347565             1.552322
| 16>   H                      -0.372481            2.892699             1.636223
| 17>   C                      -0.024007            2.080020             6.984736
| 18>   O                      0.299046             1.756115             5.654286
| 19>   H                      -0.364095            2.158002             5.124709
| 20>   H                      0.695163             2.885084             7.303017
| 21>   H                      -1.035840            2.500410             7.043832
| 22>   H                      -0.006311            1.375831             7.786543
| 23> *
| 24>
| 25> #Run DFT-D3 single point of the molecule with dimer basis set
| 26> $new_job
| 27> %base "8-214_DFT_A"
| 28> ! wB97X-D3 def2-TZVP TIGHTSCF CHELPG PMODEL
| 29>
| 30> %scf
| 31> MaxIter 1000
| 32> end
| 33>
| 34> * xyz 0 1
| 35>   C                      -0.724076            2.085475             2.183284
| 36>   O                      -1.374681            2.465893             3.392818
| 37>   H                      -1.953464            3.260510             3.216241
| 38>   H                      0.226551             1.538815             2.290839
| 39>   H                      -1.235051            1.347565             1.552322
| 40>   H                      -0.372481            2.892699             1.636223
| 41>   C                    : -0.024007            2.080020             6.984736
| 42>   O                    : 0.299046             1.756115             5.654286
| 43>   H                    : -0.364095            2.158002             5.124709
| 44>   H                    : 0.695163             2.885084             7.303017
| 45>   H                    : -1.035840            2.500410             7.043832
| 46>   H                    : -0.006311            1.375831             7.786543
| 47> *
| 48>
| 49> #Run DFT-D3 single point of the particle with dimer basis set
| 50> $new_job
| 51> %base "8-214_DFT_B"
| 52> ! wB97X-D3 def2-TZVP TIGHTSCF CHELPG PMODEL
| 53>
| 54> %scf
| 55> MaxIter 1000
| 56> end
| 57>
| 58> * xyz 0 1
| 59>   C                    : -0.724076            2.085475             2.183284
| 60>   O                    : -1.374681            2.465893             3.392818
| 61>   H                    : -1.953464            3.260510             3.216241
| 62>   H                    : 0.226551             1.538815             2.290839
| 63>   H                    : -1.235051            1.347565             1.552322
| 64>   H                    : -0.372481            2.892699             1.636223
| 65>   C                      -0.024007            2.080020             6.984736
| 66>   O                      0.299046             1.756115             5.654286
| 67>   H                      -0.364095            2.158002             5.124709
| 68>   H                      0.695163             2.885084             7.303017
| 69>   H                      -1.035840            2.500410             7.043832
| 70>   H                      -0.006311            1.375831             7.786543
| 71> *
| 72>
| 73>                          ****END OF INPUT****
 Total Charge           Charge          ....    0
 Multiplicity           Mult            ....    1
 Number of Electrons    NEL             ....   36
Dispersion correction           -0.001581618
FINAL SINGLE POINT ENERGY      -231.460932111172
Dispersion correction           -0.000274384
FINAL SINGLE POINT ENERGY      -115.725422391840

CARTESIAN COORDINATES (ANGSTROEM)
---------------------------------
  C     -0.724076    2.085475    2.183284
  O     -1.374681    2.465893    3.392818
  H     -1.953464    3.260510    3.216241
  H      0.226551    1.538815    2.290839
  H     -1.235051    1.347565    1.552322
  H     -0.372481    2.892699    1.636223
  C     -0.024007    2.080020    6.984736
  O      0.299046    1.756115    5.654286
  H     -0.364095    2.158002    5.124709
  H      0.695163    2.885084    7.303017
  H     -1.035840    2.500410    7.043832
  H     -0.006311    1.375831    7.786543

 Multiplicity           Mult            ....    1
 Number of Electrons    NEL             ....   18
 Basis Dimension        Dim             ....  172

ORBITAL ENERGIES
----------------

  NO   OCC          E(Eh)            E(eV)
   0   2.0000     -19.231750      -523.3225
   1   2.0000     -10.314571      -280.6737
   2   2.0000      -1.146093       -31.1868
   3   2.0000      -0.798056       -21.7162
   4   2.0000      -0.619177       -16.8487
   5   2.0000      -0.541290       -14.7292
   6   2.0000      -0.531845       -14.4722
   7   2.0000      -0.433287       -11.7903
   8   2.0000      -0.372932       -10.1480
   9   0.0000       0.074685         2.0323
  10   0.0000       0.124995         3.4013
  11   0.0000       0.153845         4.1863
  12   0.0000       0.168784         4.5928
  13   0.0000       0.197677         5.3791

MULLIKEN ATOMIC CHARGES
-----------------------
   0 C :   -0.000799
   1 O :   -0.000819
   2 H :   -0.000077
   3 H :   -0.000813
   4 H :    0.000112
   5 H :    0.000084
   6 C :   -0.177747
   7 O :   -0.452512
   8 H :    0.312576
   9 H :    0.102533
  10 H :    0.099927
  11 H :    0.117534
Sum of atomic charges:   -0.0000000

LOEWDIN ATOMIC CHARGES
----------------------
   0 C :   -0.003440
   1 O :   -0.015001
   2 H :   -0.000757
   3 H :   -0.000681
   4 H :   -0.000042
   5 H :   -0.000055
   6 C :   -0.393474
   7 O :   -0.050717
   8 H :    0.167066
   9 H :    0.103966
  10 H :    0.098034
  11 H :    0.095103

  Mayer bond orders larger than 0.1
B(  6-C ,  7-O ) :   1.0068 B(  6-C ,  9-H ) :   0.9841 B(  6-C , 10-H ) :   0.9889
B(  6-C , 11-H ) :   0.9670 B(  7-O ,  8-H ) :   0.9054

Dispersion correction           -0.000245004
FINAL SINGLE POINT ENERGY      -115.727745828823

DIPOLE MOMENT
-------------
                                X             Y             Z
Electronic contribution:      0.52888      -0.72213      -1.74357
Nuclear contribution   :     -1.10707       1.09570       1.92506
                        -----------------------------------------
Total Dipole Moment    :     -0.57819       0.37358       0.18148
                        -----------------------------------------
Magnitude (a.u.)       :      0.71190
Magnitude (Debye)      :      1.80950

Rotational constants in cm-1:     4.464090     0.830335     0.801926
Rotational constants in MHz : 133830.037649 24892.823146 24041.146571

                             ****ORCA TERMINATED NORMALLY****
TOTAL RUN TIME: 0 days 0 hours 0 minutes 46 seconds 778 msec
