                         Program Version 4.1.2  - RELEASE  -
|  1> #Run DFT-D3 single point of the dimer
|  2> ! wB97X-D3 def2-TZVP TIGHTSCF CHELPG PMODEL PAL8
|  3>
|  4> %base "15-104_DFT_AB"
|  5>
|  6> %scf
|  7> MaxIter 1000
|  8> end
|  9>
| 10> * xyz 0 1
| 11>   C                      5.769253             2.723060             -5.358341
| 12>   O                      4.814784             3.262569             -6.303090
| 13>   H                      4.560570             4.189452             -6.048641
| 14>   H                      5.512399             1.716891             -5.023752
| 15>   H                      6.764949             2.673232             -5.826764
| 16>   H                      5.846086             3.305604             -4.359895
| 17>   C                      4.213219             6.390561             -7.710729
| 18>   O                      4.760920             5.928539             -6.468823
| 19>   H                      4.182617             6.120073             -5.792908
| 20>   H                      4.909156             6.099919             -8.450513
| 21>   H                      3.268754             5.973161             -7.900404
| 22>   H                      4.083967             7.469272             -7.787671
| 23> *
| 24>
| 25> #Run DFT-D3 single point of the molecule with dimer basis set
| 26> $new_job
| 27> %base "15-104_DFT_A"
| 28> ! wB97X-D3 def2-TZVP TIGHTSCF CHELPG PMODEL
| 29>
| 30> %scf
| 31> MaxIter 1000
| 32> end
| 33>
| 34> * xyz 0 1
| 35>   C                      5.769253             2.723060             -5.358341
| 36>   O                      4.814784             3.262569             -6.303090
| 37>   H                      4.560570             4.189452             -6.048641
| 38>   H                      5.512399             1.716891             -5.023752
| 39>   H                      6.764949             2.673232             -5.826764
| 40>   H                      5.846086             3.305604             -4.359895
| 41>   C                    : 4.213219             6.390561             -7.710729
| 42>   O                    : 4.760920             5.928539             -6.468823
| 43>   H                    : 4.182617             6.120073             -5.792908
| 44>   H                    : 4.909156             6.099919             -8.450513
| 45>   H                    : 3.268754             5.973161             -7.900404
| 46>   H                    : 4.083967             7.469272             -7.787671
| 47> *
| 48>
| 49> #Run DFT-D3 single point of the particle with dimer basis set
| 50> $new_job
| 51> %base "15-104_DFT_B"
| 52> ! wB97X-D3 def2-TZVP TIGHTSCF CHELPG PMODEL
| 53>
| 54> %scf
| 55> MaxIter 1000
| 56> end
| 57>
| 58> * xyz 0 1
| 59>   C                    : 5.769253             2.723060             -5.358341
| 60>   O                    : 4.814784             3.262569             -6.303090
| 61>   H                    : 4.560570             4.189452             -6.048641
| 62>   H                    : 5.512399             1.716891             -5.023752
| 63>   H                    : 6.764949             2.673232             -5.826764
| 64>   H                    : 5.846086             3.305604             -4.359895
| 65>   C                      4.213219             6.390561             -7.710729
| 66>   O                      4.760920             5.928539             -6.468823
| 67>   H                      4.182617             6.120073             -5.792908
| 68>   H                      4.909156             6.099919             -8.450513
| 69>   H                      3.268754             5.973161             -7.900404
| 70>   H                      4.083967             7.469272             -7.787671
| 71> *
| 72>
| 73>                          ****END OF INPUT****
 Total Charge           Charge          ....    0
 Multiplicity           Mult            ....    1
 Number of Electrons    NEL             ....   36
Dispersion correction           -0.001758062
FINAL SINGLE POINT ENERGY      -231.465652831338
Dispersion correction           -0.000291893
FINAL SINGLE POINT ENERGY      -115.731016540034

CARTESIAN COORDINATES (ANGSTROEM)
---------------------------------
  C      5.769253    2.723060   -5.358341
  O      4.814784    3.262569   -6.303090
  H      4.560570    4.189452   -6.048641
  H      5.512399    1.716891   -5.023752
  H      6.764949    2.673232   -5.826764
  H      5.846086    3.305604   -4.359895
  C      4.213219    6.390561   -7.710729
  O      4.760920    5.928539   -6.468823
  H      4.182617    6.120073   -5.792908
  H      4.909156    6.099919   -8.450513
  H      3.268754    5.973161   -7.900404
  H      4.083967    7.469272   -7.787671

 Multiplicity           Mult            ....    1
 Number of Electrons    NEL             ....   18
 Basis Dimension        Dim             ....  172

ORBITAL ENERGIES
----------------

  NO   OCC          E(Eh)            E(eV)
   0   2.0000     -19.226116      -523.1692
   1   2.0000     -10.305642      -280.4308
   2   2.0000      -1.140326       -31.0299
   3   2.0000      -0.809238       -22.0205
   4   2.0000      -0.618716       -16.8361
   5   2.0000      -0.542130       -14.7521
   6   2.0000      -0.527212       -14.3462
   7   2.0000      -0.442355       -12.0371
   8   2.0000      -0.377642       -10.2762
   9   0.0000       0.099278         2.7015
  10   0.0000       0.128663         3.5011
  11   0.0000       0.156223         4.2510
  12   0.0000       0.193568         5.2673
  13   0.0000       0.198842         5.4108

MULLIKEN ATOMIC CHARGES
-----------------------
   0 C :    0.003238
   1 O :    0.013025
   2 H :   -0.038180
   3 H :   -0.000254
   4 H :   -0.000579
   5 H :   -0.000782
   6 C :   -0.161196
   7 O :   -0.452460
   8 H :    0.299948
   9 H :    0.126330
  10 H :    0.107562
  11 H :    0.103346
Sum of atomic charges:    0.0000000

LOEWDIN ATOMIC CHARGES
----------------------
   0 C :   -0.003697
   1 O :   -0.011655
   2 H :   -0.059959
   3 H :   -0.000079
   4 H :   -0.000167
   5 H :   -0.000359
   6 C :   -0.350171
   7 O :    0.001129
   8 H :    0.134292
   9 H :    0.105432
  10 H :    0.088093
  11 H :    0.097140

  Mayer bond orders larger than 0.1
B(  6-C ,  7-O ) :   0.9825 B(  6-C ,  9-H ) :   0.9801 B(  6-C , 10-H ) :   0.9790
B(  6-C , 11-H ) :   0.9695 B(  7-O ,  8-H ) :   0.9141

Dispersion correction           -0.000239143
FINAL SINGLE POINT ENERGY      -115.732856443979

DIPOLE MOMENT
-------------
                                X             Y             Z
Electronic contribution:      0.74593      -0.61742       1.47255
Nuclear contribution   :     -1.35695       0.94442      -1.57081
                        -----------------------------------------
Total Dipole Moment    :     -0.61101       0.32700      -0.09826
                        -----------------------------------------
Magnitude (a.u.)       :      0.69994
Magnitude (Debye)      :      1.77911

Rotational constants in cm-1:     4.598092     0.819078     0.790820
Rotational constants in MHz : 137847.322192 24555.347808 23708.193005

                             ****ORCA TERMINATED NORMALLY****
TOTAL RUN TIME: 0 days 0 hours 1 minutes 0 seconds 323 msec
