                         Program Version 4.1.2  - RELEASE  -
|  1> #Run DFT-D3 single point of the dimer
|  2> ! wB97X-D3 def2-TZVP TIGHTSCF CHELPG PMODEL PAL8
|  3>
|  4> %base "22-31_DFT_AB"
|  5>
|  6> %scf
|  7> MaxIter 1000
|  8> end
|  9>
| 10> * xyz 0 1
| 11>   C                      -7.103731            6.653923             -1.669574
| 12>   O                      -6.894566            5.210805             -1.789627
| 13>   H                      -7.334692            4.689197             -1.072243
| 14>   H                      -8.194465            6.918869             -1.815733
| 15>   H                      -6.801057            7.072376             -0.661411
| 16>   H                      -6.560077            7.160748             -2.438667
| 17>   C                      -8.533005            9.425008             2.244899
| 18>   O                      -8.767148            8.486847             3.339499
| 19>   H                      -8.878157            7.567461             3.034750
| 20>   H                      -7.497985            9.385551             1.820937
| 21>   H                      -9.222402            9.301168             1.459743
| 22>   H                      -8.738443            10.375658            2.569069
| 23> *
| 24>
| 25> #Run DFT-D3 single point of the molecule with dimer basis set
| 26> $new_job
| 27> %base "22-31_DFT_A"
| 28> ! wB97X-D3 def2-TZVP TIGHTSCF CHELPG PMODEL
| 29>
| 30> %scf
| 31> MaxIter 1000
| 32> end
| 33>
| 34> * xyz 0 1
| 35>   C                      -7.103731            6.653923             -1.669574
| 36>   O                      -6.894566            5.210805             -1.789627
| 37>   H                      -7.334692            4.689197             -1.072243
| 38>   H                      -8.194465            6.918869             -1.815733
| 39>   H                      -6.801057            7.072376             -0.661411
| 40>   H                      -6.560077            7.160748             -2.438667
| 41>   C                    : -8.533005            9.425008             2.244899
| 42>   O                    : -8.767148            8.486847             3.339499
| 43>   H                    : -8.878157            7.567461             3.034750
| 44>   H                    : -7.497985            9.385551             1.820937
| 45>   H                    : -9.222402            9.301168             1.459743
| 46>   H                    : -8.738443            10.375658            2.569069
| 47> *
| 48>
| 49> #Run DFT-D3 single point of the particle with dimer basis set
| 50> $new_job
| 51> %base "22-31_DFT_B"
| 52> ! wB97X-D3 def2-TZVP TIGHTSCF CHELPG PMODEL
| 53>
| 54> %scf
| 55> MaxIter 1000
| 56> end
| 57>
| 58> * xyz 0 1
| 59>   C                    : -7.103731            6.653923             -1.669574
| 60>   O                    : -6.894566            5.210805             -1.789627
| 61>   H                    : -7.334692            4.689197             -1.072243
| 62>   H                    : -8.194465            6.918869             -1.815733
| 63>   H                    : -6.801057            7.072376             -0.661411
| 64>   H                    : -6.560077            7.160748             -2.438667
| 65>   C                      -8.533005            9.425008             2.244899
| 66>   O                      -8.767148            8.486847             3.339499
| 67>   H                      -8.878157            7.567461             3.034750
| 68>   H                      -7.497985            9.385551             1.820937
| 69>   H                      -9.222402            9.301168             1.459743
| 70>   H                      -8.738443            10.375658            2.569069
| 71> *
| 72>
| 73>                          ****END OF INPUT****
 Total Charge           Charge          ....    0
 Multiplicity           Mult            ....    1
 Number of Electrons    NEL             ....   36
Dispersion correction           -0.000929817
FINAL SINGLE POINT ENERGY      -231.460678616482
Dispersion correction           -0.000295650
FINAL SINGLE POINT ENERGY      -115.731612800169

CARTESIAN COORDINATES (ANGSTROEM)
---------------------------------
  C     -7.103731    6.653923   -1.669574
  O     -6.894566    5.210805   -1.789627
  H     -7.334692    4.689197   -1.072243
  H     -8.194465    6.918869   -1.815733
  H     -6.801057    7.072376   -0.661411
  H     -6.560077    7.160748   -2.438667
  C     -8.533005    9.425008    2.244899
  O     -8.767148    8.486847    3.339499
  H     -8.878157    7.567461    3.034750
  H     -7.497985    9.385551    1.820937
  H     -9.222402    9.301168    1.459743
  H     -8.738443   10.375658    2.569069

 Multiplicity           Mult            ....    1
 Number of Electrons    NEL             ....   18
 Basis Dimension        Dim             ....  172

ORBITAL ENERGIES
----------------

  NO   OCC          E(Eh)            E(eV)
   0   2.0000     -19.229249      -523.2545
   1   2.0000     -10.308070      -280.4969
   2   2.0000      -1.115625       -30.3577
   3   2.0000      -0.807717       -21.9791
   4   2.0000      -0.602700       -16.4003
   5   2.0000      -0.539001       -14.6670
   6   2.0000      -0.525830       -14.3086
   7   2.0000      -0.431294       -11.7361
   8   2.0000      -0.375871       -10.2280
   9   0.0000       0.077597         2.1115
  10   0.0000       0.117409         3.1949
  11   0.0000       0.142820         3.8863
  12   0.0000       0.164276         4.4702
  13   0.0000       0.180715         4.9175

MULLIKEN ATOMIC CHARGES
-----------------------
   0 C :   -0.000079
   1 O :   -0.000002
   2 H :   -0.000001
   3 H :   -0.000058
   4 H :    0.000097
   5 H :    0.000016
   6 C :   -0.157237
   7 O :   -0.497394
   8 H :    0.316851
   9 H :    0.102795
  10 H :    0.108851
  11 H :    0.126160
Sum of atomic charges:   -0.0000000

LOEWDIN ATOMIC CHARGES
----------------------
   0 C :   -0.000102
   1 O :   -0.000002
   2 H :   -0.000000
   3 H :   -0.000030
   4 H :   -0.000202
   5 H :   -0.000001
   6 C :   -0.339822
   7 O :   -0.116634
   8 H :    0.171562
   9 H :    0.102997
  10 H :    0.089274
  11 H :    0.092960

  Mayer bond orders larger than 0.1
B(  6-C ,  7-O ) :   0.9976 B(  6-C ,  9-H ) :   0.9731 B(  6-C , 10-H ) :   0.9784
B(  6-C , 11-H ) :   0.9757 B(  7-O ,  8-H ) :   0.8954

Dispersion correction           -0.000276394
FINAL SINGLE POINT ENERGY      -115.729033677464

DIPOLE MOMENT
-------------
                                X             Y             Z
Electronic contribution:     -0.27970      -1.03370       1.44206
Nuclear contribution   :      0.26900       0.87377      -2.12088
                        -----------------------------------------
Total Dipole Moment    :     -0.01070      -0.15993      -0.67881
                        -----------------------------------------
Magnitude (a.u.)       :      0.69748
Magnitude (Debye)      :      1.77286

Rotational constants in cm-1:     4.565389     0.777608     0.761102
Rotational constants in MHz : 136866.918302 23312.095800 22817.268043

                             ****ORCA TERMINATED NORMALLY****
TOTAL RUN TIME: 0 days 0 hours 0 minutes 53 seconds 511 msec
