                         Program Version 4.1.2  - RELEASE  -
|  1> #Run DFT geometry optimization
|  2> ! wB97X-D3 def2-TZVP TIGHTSCF Grid5 FinalGrid6 Opt CHELPG PAL4
|  3>
|  4> %base "0_geo_opt"
|  5> %geom MaxIter 500
|  6> end
|  7>
|  8> %geom
|  9>   Constraints
| 10>     { B 5 0 C }
| 11>   end
| 12> end
| 13>
| 14>
| 15> * xyz 0 1
| 16>   C                    3.011548             -1.181306            0.598333
| 17>   O                    4.394913             -1.128459            0.874149
| 18>   H                    4.772436             -0.379431            0.412335
| 19>   H                    2.806674             -1.319374            -0.469508
| 20>   H                    2.611872             -2.040674            1.135740
| 21>   H                    2.484517             -0.284082            0.945817
| 22> *
| 23>
| 24>                          ****END OF INPUT****
 Total Charge           Charge          ....    0
 Multiplicity           Mult            ....    1
 Number of Electrons    NEL             ....   18
Dispersion correction           -0.000239447
FINAL SINGLE POINT ENERGY      -115.738050818573
Dispersion correction            ... done
                    ***********************HURRAY********************

CARTESIAN COORDINATES (ANGSTROEM)
---------------------------------
  C      3.011623   -1.181360    0.598360
  O      4.394923   -1.128432    0.874132
  H      4.772407   -0.379403    0.412313
  H      2.806692   -1.319344   -0.469474
  H      2.611763   -2.040643    1.135735
  H      2.484551   -0.284143    0.945800

 Multiplicity           Mult            ....    1
 Number of Electrons    NEL             ....   18
 Basis Dimension        Dim             ....   86

ORBITAL ENERGIES
----------------

  NO   OCC          E(Eh)            E(eV)
   0   2.0000     -19.228106      -523.2234
   1   2.0000     -10.315221      -280.6914
   2   2.0000      -1.136837       -30.9349
   3   2.0000      -0.795278       -21.6406
   4   2.0000      -0.611579       -16.6419
   5   2.0000      -0.541691       -14.7402
   6   2.0000      -0.526357       -14.3229
   7   2.0000      -0.433786       -11.8039
   8   2.0000      -0.373594       -10.1660
   9   0.0000       0.116629         3.1736
  10   0.0000       0.156645         4.2625
  11   0.0000       0.202564         5.5120
  12   0.0000       0.205039         5.5794
  13   0.0000       0.226354         6.1594

MULLIKEN ATOMIC CHARGES
-----------------------
   0 C :   -0.150919
   1 O :   -0.477574
   2 H :    0.313037
   3 H :    0.098671
   4 H :    0.118267
   5 H :    0.098517
Sum of atomic charges:    0.0000000

LOEWDIN ATOMIC CHARGES
----------------------
   0 C :   -0.385349
   1 O :   -0.076046
   2 H :    0.165795
   3 H :    0.093374
   4 H :    0.108662
   5 H :    0.093563

  Mayer bond orders larger than 0.1
B(  0-C ,  1-O ) :   0.9987 B(  0-C ,  3-H ) :   0.9755 B(  0-C ,  4-H ) :   0.9749
B(  0-C ,  5-H ) :   0.9755 B(  1-O ,  2-H ) :   0.9002

Dispersion correction           -0.000239428
FINAL SINGLE POINT ENERGY      -115.738050846592

DIPOLE MOMENT
-------------
                                X             Y             Z
Electronic contribution:      1.75680      -0.02926       0.41946
Nuclear contribution   :     -2.06625       0.47654      -0.81720
                        -----------------------------------------
Total Dipole Moment    :     -0.30945       0.44728      -0.39774
                        -----------------------------------------
Magnitude (a.u.)       :      0.67381
Magnitude (Debye)      :      1.71268

Rotational constants in cm-1:     4.290996     0.833757     0.804904
Rotational constants in MHz : 128640.832212 24995.391278 24130.414058

                             ****ORCA TERMINATED NORMALLY****
TOTAL RUN TIME: 0 days 0 hours 0 minutes 35 seconds 337 msec
