                         Program Version 4.1.2  - RELEASE  -
|  1> #Run DFT-D3 single point of the dimer
|  2> ! wB97X-D3 def2-TZVP TIGHTSCF CHELPG PMODEL PAL8
|  3>
|  4> %base "6-183_DFT_AB"
|  5>
|  6> %scf
|  7> MaxIter 1000
|  8> end
|  9>
| 10> * xyz 0 1
| 11>   C                      -10.740696           0.069440             -10.728717
| 12>   O                      -11.549840           -0.537173            -9.674106
| 13>   H                      -11.042544           -0.553567            -8.832040
| 14>   H                      -11.035227           -0.576006            -11.587952
| 15>   H                      -10.968419           1.122534             -10.931376
| 16>   H                      -9.645446            -0.171504            -10.589674
| 17>   C                      -10.540695           -3.027973            -8.520767
| 18>   O                      -9.835101            -2.018462            -7.819397
| 19>   H                      -8.968215            -2.361600            -7.626094
| 20>   H                      -10.259530           -3.059163            -9.589178
| 21>   H                      -10.360601           -4.070724            -8.208542
| 22>   H                      -11.604389           -2.874553            -8.387878
| 23> *
| 24>
| 25> #Run DFT-D3 single point of the molecule with dimer basis set
| 26> $new_job
| 27> %base "6-183_DFT_A"
| 28> ! wB97X-D3 def2-TZVP TIGHTSCF CHELPG PMODEL
| 29>
| 30> %scf
| 31> MaxIter 1000
| 32> end
| 33>
| 34> * xyz 0 1
| 35>   C                      -10.740696           0.069440             -10.728717
| 36>   O                      -11.549840           -0.537173            -9.674106
| 37>   H                      -11.042544           -0.553567            -8.832040
| 38>   H                      -11.035227           -0.576006            -11.587952
| 39>   H                      -10.968419           1.122534             -10.931376
| 40>   H                      -9.645446            -0.171504            -10.589674
| 41>   C                    : -10.540695           -3.027973            -8.520767
| 42>   O                    : -9.835101            -2.018462            -7.819397
| 43>   H                    : -8.968215            -2.361600            -7.626094
| 44>   H                    : -10.259530           -3.059163            -9.589178
| 45>   H                    : -10.360601           -4.070724            -8.208542
| 46>   H                    : -11.604389           -2.874553            -8.387878
| 47> *
| 48>
| 49> #Run DFT-D3 single point of the particle with dimer basis set
| 50> $new_job
| 51> %base "6-183_DFT_B"
| 52> ! wB97X-D3 def2-TZVP TIGHTSCF CHELPG PMODEL
| 53>
| 54> %scf
| 55> MaxIter 1000
| 56> end
| 57>
| 58> * xyz 0 1
| 59>   C                    : -10.740696           0.069440             -10.728717
| 60>   O                    : -11.549840           -0.537173            -9.674106
| 61>   H                    : -11.042544           -0.553567            -8.832040
| 62>   H                    : -11.035227           -0.576006            -11.587952
| 63>   H                    : -10.968419           1.122534             -10.931376
| 64>   H                    : -9.645446            -0.171504            -10.589674
| 65>   C                      -10.540695           -3.027973            -8.520767
| 66>   O                      -9.835101            -2.018462            -7.819397
| 67>   H                      -8.968215            -2.361600            -7.626094
| 68>   H                      -10.259530           -3.059163            -9.589178
| 69>   H                      -10.360601           -4.070724            -8.208542
| 70>   H                      -11.604389           -2.874553            -8.387878
| 71> *
| 72>
| 73>                          ****END OF INPUT****
 Total Charge           Charge          ....    0
 Multiplicity           Mult            ....    1
 Number of Electrons    NEL             ....   36
Dispersion correction           -0.002211579
FINAL SINGLE POINT ENERGY      -231.470881394602
Dispersion correction           -0.000277210
FINAL SINGLE POINT ENERGY      -115.730599149858

CARTESIAN COORDINATES (ANGSTROEM)
---------------------------------
  C    -10.740696    0.069440  -10.728717
  O    -11.549840   -0.537173   -9.674106
  H    -11.042544   -0.553567   -8.832040
  H    -11.035227   -0.576006  -11.587952
  H    -10.968419    1.122534  -10.931376
  H     -9.645446   -0.171504  -10.589674
  C    -10.540695   -3.027973   -8.520767
  O     -9.835101   -2.018462   -7.819397
  H     -8.968215   -2.361600   -7.626094
  H    -10.259530   -3.059163   -9.589178
  H    -10.360601   -4.070724   -8.208542
  H    -11.604389   -2.874553   -8.387878

 Multiplicity           Mult            ....    1
 Number of Electrons    NEL             ....   18
 Basis Dimension        Dim             ....  172

ORBITAL ENERGIES
----------------

  NO   OCC          E(Eh)            E(eV)
   0   2.0000     -19.233098      -523.3592
   1   2.0000     -10.314328      -280.6671
   2   2.0000      -1.138737       -30.9866
   3   2.0000      -0.796931       -21.6856
   4   2.0000      -0.615901       -16.7595
   5   2.0000      -0.540316       -14.7027
   6   2.0000      -0.520993       -14.1769
   7   2.0000      -0.439517       -11.9599
   8   2.0000      -0.374711       -10.1964
   9   0.0000       0.094116         2.5610
  10   0.0000       0.125937         3.4269
  11   0.0000       0.152485         4.1493
  12   0.0000       0.178715         4.8631
  13   0.0000       0.190785         5.1915

MULLIKEN ATOMIC CHARGES
-----------------------
   0 C :    0.004014
   1 O :    0.002107
   2 H :   -0.005319
   3 H :   -0.000745
   4 H :    0.000009
   5 H :   -0.002815
   6 C :   -0.189091
   7 O :   -0.462398
   8 H :    0.311133
   9 H :    0.104957
  10 H :    0.112448
  11 H :    0.125700
Sum of atomic charges:    0.0000000

LOEWDIN ATOMIC CHARGES
----------------------
   0 C :   -0.003237
   1 O :   -0.007476
   2 H :   -0.021806
   3 H :   -0.000296
   4 H :   -0.000013
   5 H :   -0.001251
   6 C :   -0.382049
   7 O :   -0.053287
   8 H :    0.164082
   9 H :    0.098848
  10 H :    0.097187
  11 H :    0.109298

  Mayer bond orders larger than 0.1
B(  6-C ,  7-O ) :   0.9982 B(  6-C ,  9-H ) :   0.9755 B(  6-C , 10-H ) :   0.9686
B(  6-C , 11-H ) :   0.9779 B(  7-O ,  8-H ) :   0.9007

Dispersion correction           -0.000253666
FINAL SINGLE POINT ENERGY      -115.735294031815

DIPOLE MOMENT
-------------
                                X             Y             Z
Electronic contribution:      0.79674       1.45720       0.95889
Nuclear contribution   :     -0.52180      -2.09244      -1.08658
                        -----------------------------------------
Total Dipole Moment    :      0.27494      -0.63524      -0.12769
                        -----------------------------------------
Magnitude (a.u.)       :      0.70386
Magnitude (Debye)      :      1.78908

Rotational constants in cm-1:     4.361321     0.822321     0.792164
Rotational constants in MHz : 130749.126743 24652.562582 23748.481641

                             ****ORCA TERMINATED NORMALLY****
TOTAL RUN TIME: 0 days 0 hours 1 minutes 9 seconds 523 msec
