                         Program Version 4.1.2  - RELEASE  -
|  1> #Run DFT-D3 single point of the dimer
|  2> ! wB97X-D3 def2-TZVP TIGHTSCF CHELPG PMODEL PAL8
|  3>
|  4> %base "18-108_DFT_AB"
|  5>
|  6> %scf
|  7> MaxIter 1000
|  8> end
|  9>
| 10> * xyz 0 1
| 11>   C                      -6.192142            3.316149             -6.809267
| 12>   O                      -7.336972            3.537002             -7.548146
| 13>   H                      -7.789556            2.702504             -7.730848
| 14>   H                      -5.550803            2.508840             -7.203394
| 15>   H                      -5.617500            4.249866             -6.681300
| 16>   H                      -6.487296            3.059654             -5.826811
| 17>   C                      -9.141681            1.126065             -9.212686
| 18>   O                      -9.397543            1.739633             -7.958958
| 19>   H                      -10.288361           1.627648             -7.600208
| 20>   H                      -9.376908            0.033728             -9.233123
| 21>   H                      -9.651895            1.656308             -9.992058
| 22>   H                      -8.030558            1.063212             -9.437059
| 23> *
| 24>
| 25> #Run DFT-D3 single point of the molecule with dimer basis set
| 26> $new_job
| 27> %base "18-108_DFT_A"
| 28> ! wB97X-D3 def2-TZVP TIGHTSCF CHELPG PMODEL
| 29>
| 30> %scf
| 31> MaxIter 1000
| 32> end
| 33>
| 34> * xyz 0 1
| 35>   C                      -6.192142            3.316149             -6.809267
| 36>   O                      -7.336972            3.537002             -7.548146
| 37>   H                      -7.789556            2.702504             -7.730848
| 38>   H                      -5.550803            2.508840             -7.203394
| 39>   H                      -5.617500            4.249866             -6.681300
| 40>   H                      -6.487296            3.059654             -5.826811
| 41>   C                    : -9.141681            1.126065             -9.212686
| 42>   O                    : -9.397543            1.739633             -7.958958
| 43>   H                    : -10.288361           1.627648             -7.600208
| 44>   H                    : -9.376908            0.033728             -9.233123
| 45>   H                    : -9.651895            1.656308             -9.992058
| 46>   H                    : -8.030558            1.063212             -9.437059
| 47> *
| 48>
| 49> #Run DFT-D3 single point of the particle with dimer basis set
| 50> $new_job
| 51> %base "18-108_DFT_B"
| 52> ! wB97X-D3 def2-TZVP TIGHTSCF CHELPG PMODEL
| 53>
| 54> %scf
| 55> MaxIter 1000
| 56> end
| 57>
| 58> * xyz 0 1
| 59>   C                    : -6.192142            3.316149             -6.809267
| 60>   O                    : -7.336972            3.537002             -7.548146
| 61>   H                    : -7.789556            2.702504             -7.730848
| 62>   H                    : -5.550803            2.508840             -7.203394
| 63>   H                    : -5.617500            4.249866             -6.681300
| 64>   H                    : -6.487296            3.059654             -5.826811
| 65>   C                      -9.141681            1.126065             -9.212686
| 66>   O                      -9.397543            1.739633             -7.958958
| 67>   H                      -10.288361           1.627648             -7.600208
| 68>   H                      -9.376908            0.033728             -9.233123
| 69>   H                      -9.651895            1.656308             -9.992058
| 70>   H                      -8.030558            1.063212             -9.437059
| 71> *
| 72>
| 73>                          ****END OF INPUT****
 Total Charge           Charge          ....    0
 Multiplicity           Mult            ....    1
 Number of Electrons    NEL             ....   36
Dispersion correction           -0.001699205
FINAL SINGLE POINT ENERGY      -231.470678171441
Dispersion correction           -0.000224915
FINAL SINGLE POINT ENERGY      -115.734109270576

CARTESIAN COORDINATES (ANGSTROEM)
---------------------------------
  C     -6.192142    3.316149   -6.809267
  O     -7.336972    3.537002   -7.548146
  H     -7.789556    2.702504   -7.730848
  H     -5.550803    2.508840   -7.203394
  H     -5.617500    4.249866   -6.681300
  H     -6.487296    3.059654   -5.826811
  C     -9.141681    1.126065   -9.212686
  O     -9.397543    1.739633   -7.958958
  H    -10.288361    1.627648   -7.600208
  H     -9.376908    0.033728   -9.233123
  H     -9.651895    1.656308   -9.992058
  H     -8.030558    1.063212   -9.437059

 Multiplicity           Mult            ....    1
 Number of Electrons    NEL             ....   18
 Basis Dimension        Dim             ....  172

ORBITAL ENERGIES
----------------

  NO   OCC          E(Eh)            E(eV)
   0   2.0000     -19.228663      -523.2385
   1   2.0000     -10.318859      -280.7904
   2   2.0000      -1.128265       -30.7016
   3   2.0000      -0.796318       -21.6689
   4   2.0000      -0.609258       -16.5788
   5   2.0000      -0.549618       -14.9559
   6   2.0000      -0.518448       -14.1077
   7   2.0000      -0.416625       -11.3369
   8   2.0000      -0.375626       -10.2213
   9   0.0000       0.099440         2.7059
  10   0.0000       0.123082         3.3492
  11   0.0000       0.146688         3.9916
  12   0.0000       0.187272         5.0959
  13   0.0000       0.205473         5.5912

MULLIKEN ATOMIC CHARGES
-----------------------
   0 C :   -0.001660
   1 O :    0.001868
   2 H :   -0.003356
   3 H :   -0.000000
   4 H :   -0.000083
   5 H :   -0.000390
   6 C :   -0.150824
   7 O :   -0.491569
   8 H :    0.317284
   9 H :    0.101088
  10 H :    0.106838
  11 H :    0.120806
Sum of atomic charges:    0.0000000

LOEWDIN ATOMIC CHARGES
----------------------
   0 C :   -0.001502
   1 O :   -0.008408
   2 H :   -0.040729
   3 H :   -0.000059
   4 H :   -0.000027
   5 H :   -0.000178
   6 C :   -0.379336
   7 O :   -0.049523
   8 H :    0.169856
   9 H :    0.099446
  10 H :    0.090626
  11 H :    0.119834

  Mayer bond orders larger than 0.1
B(  6-C ,  7-O ) :   0.9856 B(  6-C ,  9-H ) :   0.9706 B(  6-C , 10-H ) :   0.9768
B(  6-C , 11-H ) :   0.9738 B(  7-O ,  8-H ) :   0.8887

Dispersion correction           -0.000275052
FINAL SINGLE POINT ENERGY      -115.731356012715

DIPOLE MOMENT
-------------
                                X             Y             Z
Electronic contribution:     -0.31366       0.90261       1.57093
Nuclear contribution   :     -0.16262      -1.24626      -1.85772
                        -----------------------------------------
Total Dipole Moment    :     -0.47628      -0.34365      -0.28679
                        -----------------------------------------
Magnitude (a.u.)       :      0.65359
Magnitude (Debye)      :      1.66130

Rotational constants in cm-1:     4.370122     0.803809     0.785223
Rotational constants in MHz : 131012.962399 24097.589856 23540.396381

                             ****ORCA TERMINATED NORMALLY****
TOTAL RUN TIME: 0 days 0 hours 1 minutes 6 seconds 524 msec
