                         Program Version 4.1.2  - RELEASE  -
|  1> #Run DFT-D3 single point of the dimer
|  2> ! wB97X-D3 def2-TZVP TIGHTSCF CHELPG PMODEL PAL8
|  3>
|  4> %base "3-69_DFT_AB"
|  5>
|  6> %scf
|  7> MaxIter 1000
|  8> end
|  9>
| 10> * xyz 0 1
| 11>   C                      -8.550756            3.122368             3.230009
| 12>   O                      -8.562572            2.964860             1.793958
| 13>   H                      -8.190921            3.761981             1.375839
| 14>   H                      -9.274297            2.452273             3.762807
| 15>   H                      -7.574168            2.767367             3.602449
| 16>   H                      -8.847867            4.108928             3.617314
| 17>   C                      -5.006678            3.473235             5.282168
| 18>   O                      -3.904577            3.294647             6.106569
| 19>   H                      -3.139534            2.854562             5.646487
| 20>   H                      -5.948990            3.414311             5.817788
| 21>   H                      -4.871574            4.409236             4.792176
| 22>   H                      -5.065093            2.613388             4.563416
| 23> *
| 24>
| 25> #Run DFT-D3 single point of the molecule with dimer basis set
| 26> $new_job
| 27> %base "3-69_DFT_A"
| 28> ! wB97X-D3 def2-TZVP TIGHTSCF CHELPG PMODEL
| 29>
| 30> %scf
| 31> MaxIter 1000
| 32> end
| 33>
| 34> * xyz 0 1
| 35>   C                      -8.550756            3.122368             3.230009
| 36>   O                      -8.562572            2.964860             1.793958
| 37>   H                      -8.190921            3.761981             1.375839
| 38>   H                      -9.274297            2.452273             3.762807
| 39>   H                      -7.574168            2.767367             3.602449
| 40>   H                      -8.847867            4.108928             3.617314
| 41>   C                    : -5.006678            3.473235             5.282168
| 42>   O                    : -3.904577            3.294647             6.106569
| 43>   H                    : -3.139534            2.854562             5.646487
| 44>   H                    : -5.948990            3.414311             5.817788
| 45>   H                    : -4.871574            4.409236             4.792176
| 46>   H                    : -5.065093            2.613388             4.563416
| 47> *
| 48>
| 49> #Run DFT-D3 single point of the particle with dimer basis set
| 50> $new_job
| 51> %base "3-69_DFT_B"
| 52> ! wB97X-D3 def2-TZVP TIGHTSCF CHELPG PMODEL
| 53>
| 54> %scf
| 55> MaxIter 1000
| 56> end
| 57>
| 58> * xyz 0 1
| 59>   C                    : -8.550756            3.122368             3.230009
| 60>   O                    : -8.562572            2.964860             1.793958
| 61>   H                    : -8.190921            3.761981             1.375839
| 62>   H                    : -9.274297            2.452273             3.762807
| 63>   H                    : -7.574168            2.767367             3.602449
| 64>   H                    : -8.847867            4.108928             3.617314
| 65>   C                      -5.006678            3.473235             5.282168
| 66>   O                      -3.904577            3.294647             6.106569
| 67>   H                      -3.139534            2.854562             5.646487
| 68>   H                      -5.948990            3.414311             5.817788
| 69>   H                      -4.871574            4.409236             4.792176
| 70>   H                      -5.065093            2.613388             4.563416
| 71> *
| 72>
| 73>                          ****END OF INPUT****
 Total Charge           Charge          ....    0
 Multiplicity           Mult            ....    1
 Number of Electrons    NEL             ....   36
Dispersion correction           -0.001301289
FINAL SINGLE POINT ENERGY      -231.462440526724
Dispersion correction           -0.000281362
FINAL SINGLE POINT ENERGY      -115.731236487903

CARTESIAN COORDINATES (ANGSTROEM)
---------------------------------
  C     -8.550756    3.122368    3.230009
  O     -8.562572    2.964860    1.793958
  H     -8.190921    3.761981    1.375839
  H     -9.274297    2.452273    3.762807
  H     -7.574168    2.767367    3.602449
  H     -8.847867    4.108928    3.617314
  C     -5.006678    3.473235    5.282168
  O     -3.904577    3.294647    6.106569
  H     -3.139534    2.854562    5.646487
  H     -5.948990    3.414311    5.817788
  H     -4.871574    4.409236    4.792176
  H     -5.065093    2.613388    4.563416

 Multiplicity           Mult            ....    1
 Number of Electrons    NEL             ....   18
 Basis Dimension        Dim             ....  172

ORBITAL ENERGIES
----------------

  NO   OCC          E(Eh)            E(eV)
   0   2.0000     -19.226820      -523.1884
   1   2.0000     -10.309389      -280.5327
   2   2.0000      -1.133463       -30.8431
   3   2.0000      -0.792314       -21.5599
   4   2.0000      -0.606815       -16.5123
   5   2.0000      -0.555666       -15.1204
   6   2.0000      -0.529271       -14.4022
   7   2.0000      -0.416542       -11.3347
   8   2.0000      -0.370254       -10.0751
   9   0.0000       0.083272         2.2660
  10   0.0000       0.110012         2.9936
  11   0.0000       0.149039         4.0556
  12   0.0000       0.167088         4.5467
  13   0.0000       0.185606         5.0506

MULLIKEN ATOMIC CHARGES
-----------------------
   0 C :    0.002724
   1 O :   -0.000043
   2 H :   -0.000020
   3 H :   -0.000098
   4 H :   -0.005137
   5 H :   -0.000131
   6 C :   -0.141443
   7 O :   -0.492384
   8 H :    0.324158
   9 H :    0.116512
  10 H :    0.103716
  11 H :    0.092147
Sum of atomic charges:   -0.0000000

LOEWDIN ATOMIC CHARGES
----------------------
   0 C :   -0.000992
   1 O :   -0.000008
   2 H :   -0.000002
   3 H :   -0.000012
   4 H :   -0.003022
   5 H :   -0.000042
   6 C :   -0.401226
   7 O :   -0.081649
   8 H :    0.190491
   9 H :    0.104966
  10 H :    0.091048
  11 H :    0.100449

  Mayer bond orders larger than 0.1
B(  6-C ,  7-O ) :   0.9999 B(  6-C ,  9-H ) :   0.9673 B(  6-C , 10-H ) :   0.9782
B(  6-C , 11-H ) :   0.9883 B(  7-O ,  8-H ) :   0.8864

Dispersion correction           -0.000230563
FINAL SINGLE POINT ENERGY      -115.730535504524

DIPOLE MOMENT
-------------
                                X             Y             Z
Electronic contribution:      1.29130      -0.06647       1.18077
Nuclear contribution   :     -1.23603      -0.15966      -1.79175
                        -----------------------------------------
Total Dipole Moment    :      0.05527      -0.22614      -0.61098
                        -----------------------------------------
Magnitude (a.u.)       :      0.65383
Magnitude (Debye)      :      1.66190

Rotational constants in cm-1:     4.270333     0.851932     0.827406
Rotational constants in MHz : 128021.369852 25540.270240 24805.020322

                             ****ORCA TERMINATED NORMALLY****
TOTAL RUN TIME: 0 days 0 hours 6 minutes 18 seconds 577 msec
