                         Program Version 4.1.2  - RELEASE  -
|  1> #Run DFT-D3 single point of the dimer
|  2> ! wB97X-D3 def2-TZVP TIGHTSCF CHELPG PMODEL PAL8
|  3>
|  4> %base "20-123_DFT_AB"
|  5>
|  6> %scf
|  7> MaxIter 1000
|  8> end
|  9>
| 10> * xyz 0 1
| 11>   C                      -1.761067            5.722091             -2.002277
| 12>   O                      -1.949604            4.450320             -2.319201
| 13>   H                      -2.743328            3.992807             -2.075747
| 14>   H                      -2.692750            6.144057             -1.678658
| 15>   H                      -0.954174            5.871586             -1.341224
| 16>   H                      -1.561292            6.309232             -2.952997
| 17>   C                      -7.108575            6.913722             -0.857616
| 18>   O                      -5.910933            6.151993             -0.758104
| 19>   H                      -6.108608            5.514156             0.021846
| 20>   H                      -8.052278            6.348833             -0.737678
| 21>   H                      -7.212517            7.592448             -0.076732
| 22>   H                      -7.252339            7.360240             -1.857203
| 23> *
| 24>
| 25> #Run DFT-D3 single point of the molecule with dimer basis set
| 26> $new_job
| 27> %base "20-123_DFT_A"
| 28> ! wB97X-D3 def2-TZVP TIGHTSCF CHELPG PMODEL
| 29>
| 30> %scf
| 31> MaxIter 1000
| 32> end
| 33>
| 34> * xyz 0 1
| 35>   C                      -1.761067            5.722091             -2.002277
| 36>   O                      -1.949604            4.450320             -2.319201
| 37>   H                      -2.743328            3.992807             -2.075747
| 38>   H                      -2.692750            6.144057             -1.678658
| 39>   H                      -0.954174            5.871586             -1.341224
| 40>   H                      -1.561292            6.309232             -2.952997
| 41>   C                    : -7.108575            6.913722             -0.857616
| 42>   O                    : -5.910933            6.151993             -0.758104
| 43>   H                    : -6.108608            5.514156             0.021846
| 44>   H                    : -8.052278            6.348833             -0.737678
| 45>   H                    : -7.212517            7.592448             -0.076732
| 46>   H                    : -7.252339            7.360240             -1.857203
| 47> *
| 48>
| 49> #Run DFT-D3 single point of the particle with dimer basis set
| 50> $new_job
| 51> %base "20-123_DFT_B"
| 52> ! wB97X-D3 def2-TZVP TIGHTSCF CHELPG PMODEL
| 53>
| 54> %scf
| 55> MaxIter 1000
| 56> end
| 57>
| 58> * xyz 0 1
| 59>   C                    : -1.761067            5.722091             -2.002277
| 60>   O                    : -1.949604            4.450320             -2.319201
| 61>   H                    : -2.743328            3.992807             -2.075747
| 62>   H                    : -2.692750            6.144057             -1.678658
| 63>   H                    : -0.954174            5.871586             -1.341224
| 64>   H                    : -1.561292            6.309232             -2.952997
| 65>   C                      -7.108575            6.913722             -0.857616
| 66>   O                      -5.910933            6.151993             -0.758104
| 67>   H                      -6.108608            5.514156             0.021846
| 68>   H                      -8.052278            6.348833             -0.737678
| 69>   H                      -7.212517            7.592448             -0.076732
| 70>   H                      -7.252339            7.360240             -1.857203
| 71> *
| 72>
| 73>                          ****END OF INPUT****
 Total Charge           Charge          ....    0
 Multiplicity           Mult            ....    1
 Number of Electrons    NEL             ....   36
Dispersion correction           -0.000873542
FINAL SINGLE POINT ENERGY      -231.450346714784
Dispersion correction           -0.000226593
FINAL SINGLE POINT ENERGY      -115.723032424352

CARTESIAN COORDINATES (ANGSTROEM)
---------------------------------
  C     -1.761067    5.722091   -2.002277
  O     -1.949604    4.450320   -2.319201
  H     -2.743328    3.992807   -2.075747
  H     -2.692750    6.144057   -1.678658
  H     -0.954174    5.871586   -1.341224
  H     -1.561292    6.309232   -2.952997
  C     -7.108575    6.913722   -0.857616
  O     -5.910933    6.151993   -0.758104
  H     -6.108608    5.514156    0.021846
  H     -8.052278    6.348833   -0.737678
  H     -7.212517    7.592448   -0.076732
  H     -7.252339    7.360240   -1.857203

 Multiplicity           Mult            ....    1
 Number of Electrons    NEL             ....   18
 Basis Dimension        Dim             ....  172

ORBITAL ENERGIES
----------------

  NO   OCC          E(Eh)            E(eV)
   0   2.0000     -19.240726      -523.5668
   1   2.0000     -10.309892      -280.5464
   2   2.0000      -1.126354       -30.6497
   3   2.0000      -0.794872       -21.6296
   4   2.0000      -0.606707       -16.5093
   5   2.0000      -0.545091       -14.8327
   6   2.0000      -0.516960       -14.0672
   7   2.0000      -0.438200       -11.9240
   8   2.0000      -0.374171       -10.1817
   9   0.0000       0.094813         2.5800
  10   0.0000       0.110931         3.0186
  11   0.0000       0.149497         4.0680
  12   0.0000       0.175581         4.7778
  13   0.0000       0.193528         5.2662

MULLIKEN ATOMIC CHARGES
-----------------------
   0 C :    0.002045
   1 O :    0.000000
   2 H :   -0.000481
   3 H :   -0.004902
   4 H :   -0.000044
   5 H :   -0.000075
   6 C :   -0.180208
   7 O :   -0.460813
   8 H :    0.316881
   9 H :    0.096373
  10 H :    0.109795
  11 H :    0.121428
Sum of atomic charges:    0.0000000

LOEWDIN ATOMIC CHARGES
----------------------
   0 C :   -0.000496
   1 O :   -0.000016
   2 H :   -0.000237
   3 H :   -0.002095
   4 H :   -0.000003
   5 H :   -0.000003
   6 C :   -0.392826
   7 O :   -0.104488
   8 H :    0.209730
   9 H :    0.096751
  10 H :    0.082214
  11 H :    0.111469

  Mayer bond orders larger than 0.1
B(  6-C ,  7-O ) :   1.0038 B(  6-C ,  9-H ) :   0.9757 B(  6-C , 10-H ) :   0.9747
B(  6-C , 11-H ) :   0.9731 B(  7-O ,  8-H ) :   0.8919

Dispersion correction           -0.000243016
FINAL SINGLE POINT ENERGY      -115.725752498294

DIPOLE MOMENT
-------------
                                X             Y             Z
Electronic contribution:      1.77823      -0.82899      -0.01481
Nuclear contribution   :     -2.39216       0.73381       0.45418
                        -----------------------------------------
Total Dipole Moment    :     -0.61393      -0.09519       0.43937
                        -----------------------------------------
Magnitude (a.u.)       :      0.76093
Magnitude (Debye)      :      1.93414

Rotational constants in cm-1:     4.319956     0.821904     0.781044
Rotational constants in MHz : 129509.021100 24640.048189 23415.116359

                             ****ORCA TERMINATED NORMALLY****
TOTAL RUN TIME: 0 days 0 hours 0 minutes 59 seconds 917 msec
