                         Program Version 4.1.2  - RELEASE  -
|  1> #Run DFT-D3 single point of the dimer
|  2> ! wB97X-D3 def2-TZVP TIGHTSCF CHELPG PMODEL PAL8
|  3>
|  4> %base "13-63_DFT_AB"
|  5>
|  6> %scf
|  7> MaxIter 1000
|  8> end
|  9>
| 10> * xyz 0 1
| 11>   C                      6.579677             -4.656054            2.098122
| 12>   O                      6.418017             -5.253259            3.379541
| 13>   H                      5.507121             -5.599913            3.333520
| 14>   H                      5.924402             -3.782596            1.864666
| 15>   H                      7.523478             -4.087973            1.999012
| 16>   H                      6.439044             -5.427651            1.315982
| 17>   C                      8.739010             -7.472333            0.384372
| 18>   O                      9.423691             -8.127046            -0.704583
| 19>   H                      10.321739            -8.330021            -0.494526
| 20>   H                      8.843660             -8.055029            1.293101
| 21>   H                      9.152455             -6.457081            0.466172
| 22>   H                      7.672785             -7.384907            0.144877
| 23> *
| 24>
| 25> #Run DFT-D3 single point of the molecule with dimer basis set
| 26> $new_job
| 27> %base "13-63_DFT_A"
| 28> ! wB97X-D3 def2-TZVP TIGHTSCF CHELPG PMODEL
| 29>
| 30> %scf
| 31> MaxIter 1000
| 32> end
| 33>
| 34> * xyz 0 1
| 35>   C                      6.579677             -4.656054            2.098122
| 36>   O                      6.418017             -5.253259            3.379541
| 37>   H                      5.507121             -5.599913            3.333520
| 38>   H                      5.924402             -3.782596            1.864666
| 39>   H                      7.523478             -4.087973            1.999012
| 40>   H                      6.439044             -5.427651            1.315982
| 41>   C                    : 8.739010             -7.472333            0.384372
| 42>   O                    : 9.423691             -8.127046            -0.704583
| 43>   H                    : 10.321739            -8.330021            -0.494526
| 44>   H                    : 8.843660             -8.055029            1.293101
| 45>   H                    : 9.152455             -6.457081            0.466172
| 46>   H                    : 7.672785             -7.384907            0.144877
| 47> *
| 48>
| 49> #Run DFT-D3 single point of the particle with dimer basis set
| 50> $new_job
| 51> %base "13-63_DFT_B"
| 52> ! wB97X-D3 def2-TZVP TIGHTSCF CHELPG PMODEL
| 53>
| 54> %scf
| 55> MaxIter 1000
| 56> end
| 57>
| 58> * xyz 0 1
| 59>   C                    : 6.579677             -4.656054            2.098122
| 60>   O                    : 6.418017             -5.253259            3.379541
| 61>   H                    : 5.507121             -5.599913            3.333520
| 62>   H                    : 5.924402             -3.782596            1.864666
| 63>   H                    : 7.523478             -4.087973            1.999012
| 64>   H                    : 6.439044             -5.427651            1.315982
| 65>   C                      8.739010             -7.472333            0.384372
| 66>   O                      9.423691             -8.127046            -0.704583
| 67>   H                      10.321739            -8.330021            -0.494526
| 68>   H                      8.843660             -8.055029            1.293101
| 69>   H                      9.152455             -6.457081            0.466172
| 70>   H                      7.672785             -7.384907            0.144877
| 71> *
| 72>
| 73>                          ****END OF INPUT****
 Total Charge           Charge          ....    0
 Multiplicity           Mult            ....    1
 Number of Electrons    NEL             ....   36
Dispersion correction           -0.001423391
FINAL SINGLE POINT ENERGY      -231.465965799774
Dispersion correction           -0.000250269
FINAL SINGLE POINT ENERGY      -115.729891976209

CARTESIAN COORDINATES (ANGSTROEM)
---------------------------------
  C      6.579677   -4.656054    2.098122
  O      6.418017   -5.253259    3.379541
  H      5.507121   -5.599913    3.333520
  H      5.924402   -3.782596    1.864666
  H      7.523478   -4.087973    1.999012
  H      6.439044   -5.427651    1.315982
  C      8.739010   -7.472333    0.384372
  O      9.423691   -8.127046   -0.704583
  H     10.321739   -8.330021   -0.494526
  H      8.843660   -8.055029    1.293101
  H      9.152455   -6.457081    0.466172
  H      7.672785   -7.384907    0.144877

 Multiplicity           Mult            ....    1
 Number of Electrons    NEL             ....   18
 Basis Dimension        Dim             ....  172

ORBITAL ENERGIES
----------------

  NO   OCC          E(Eh)            E(eV)
   0   2.0000     -19.222775      -523.0783
   1   2.0000     -10.315926      -280.7106
   2   2.0000      -1.125596       -30.6290
   3   2.0000      -0.798501       -21.7283
   4   2.0000      -0.602863       -16.4047
   5   2.0000      -0.544762       -14.8237
   6   2.0000      -0.526276       -14.3207
   7   2.0000      -0.426931       -11.6174
   8   2.0000      -0.372967       -10.1489
   9   0.0000       0.083452         2.2708
  10   0.0000       0.118587         3.2269
  11   0.0000       0.152595         4.1523
  12   0.0000       0.162244         4.4149
  13   0.0000       0.181232         4.9316

MULLIKEN ATOMIC CHARGES
-----------------------
   0 C :    0.001228
   1 O :   -0.000038
   2 H :   -0.000025
   3 H :   -0.000022
   4 H :   -0.000281
   5 H :   -0.001958
   6 C :   -0.160407
   7 O :   -0.493069
   8 H :    0.312212
   9 H :    0.108393
  10 H :    0.106414
  11 H :    0.127554
Sum of atomic charges:    0.0000000

LOEWDIN ATOMIC CHARGES
----------------------
   0 C :   -0.002123
   1 O :   -0.000016
   2 H :   -0.000004
   3 H :   -0.000013
   4 H :   -0.000436
   5 H :   -0.002453
   6 C :   -0.355784
   7 O :   -0.097303
   8 H :    0.152650
   9 H :    0.094868
  10 H :    0.099086
  11 H :    0.111528

  Mayer bond orders larger than 0.1
B(  6-C ,  7-O ) :   0.9878 B(  6-C ,  9-H ) :   0.9737 B(  6-C , 10-H ) :   0.9789
B(  6-C , 11-H ) :   0.9699 B(  7-O ,  8-H ) :   0.9006

Dispersion correction           -0.000247410
FINAL SINGLE POINT ENERGY      -115.735108710016

DIPOLE MOMENT
-------------
                                X             Y             Z
Electronic contribution:      0.70907      -0.80261      -1.32483
Nuclear contribution   :     -0.42985       0.94513       1.92759
                        -----------------------------------------
Total Dipole Moment    :      0.27921       0.14252       0.60276
                        -----------------------------------------
Magnitude (a.u.)       :      0.67940
Magnitude (Debye)      :      1.72691

Rotational constants in cm-1:     4.298309     0.803147     0.781985
Rotational constants in MHz : 128860.064654 24077.742359 23443.313010

                             ****ORCA TERMINATED NORMALLY****
TOTAL RUN TIME: 0 days 0 hours 1 minutes 10 seconds 251 msec
