                         Program Version 4.1.2  - RELEASE  -
|  1> #Run DFT-D3 single point of the dimer
|  2> ! wB97X-D3 def2-TZVP TIGHTSCF CHELPG PMODEL PAL8
|  3>
|  4> %base "10-207_DFT_AB"
|  5>
|  6> %scf
|  7> MaxIter 1000
|  8> end
|  9>
| 10> * xyz 0 1
| 11>   C                      -4.436404            -0.272162            -8.295622
| 12>   O                      -4.799837            -0.104857            -6.970533
| 13>   H                      -4.263745            0.539021             -6.535628
| 14>   H                      -4.690986            0.619393             -8.951854
| 15>   H                      -3.332834            -0.407607            -8.352097
| 16>   H                      -4.835055            -1.202201            -8.789078
| 17>   C                      -4.035826            3.602691             -6.259636
| 18>   O                      -3.371976            2.385973             -6.428741
| 19>   H                      -2.425524            2.630359             -6.586331
| 20>   H                      -5.124639            3.452546             -6.112289
| 21>   H                      -3.624570            4.076056             -5.310521
| 22>   H                      -3.821326            4.349010             -7.031137
| 23> *
| 24>
| 25> #Run DFT-D3 single point of the molecule with dimer basis set
| 26> $new_job
| 27> %base "10-207_DFT_A"
| 28> ! wB97X-D3 def2-TZVP TIGHTSCF CHELPG PMODEL
| 29>
| 30> %scf
| 31> MaxIter 1000
| 32> end
| 33>
| 34> * xyz 0 1
| 35>   C                      -4.436404            -0.272162            -8.295622
| 36>   O                      -4.799837            -0.104857            -6.970533
| 37>   H                      -4.263745            0.539021             -6.535628
| 38>   H                      -4.690986            0.619393             -8.951854
| 39>   H                      -3.332834            -0.407607            -8.352097
| 40>   H                      -4.835055            -1.202201            -8.789078
| 41>   C                    : -4.035826            3.602691             -6.259636
| 42>   O                    : -3.371976            2.385973             -6.428741
| 43>   H                    : -2.425524            2.630359             -6.586331
| 44>   H                    : -5.124639            3.452546             -6.112289
| 45>   H                    : -3.624570            4.076056             -5.310521
| 46>   H                    : -3.821326            4.349010             -7.031137
| 47> *
| 48>
| 49> #Run DFT-D3 single point of the particle with dimer basis set
| 50> $new_job
| 51> %base "10-207_DFT_B"
| 52> ! wB97X-D3 def2-TZVP TIGHTSCF CHELPG PMODEL
| 53>
| 54> %scf
| 55> MaxIter 1000
| 56> end
| 57>
| 58> * xyz 0 1
| 59>   C                    : -4.436404            -0.272162            -8.295622
| 60>   O                    : -4.799837            -0.104857            -6.970533
| 61>   H                    : -4.263745            0.539021             -6.535628
| 62>   H                    : -4.690986            0.619393             -8.951854
| 63>   H                    : -3.332834            -0.407607            -8.352097
| 64>   H                    : -4.835055            -1.202201            -8.789078
| 65>   C                      -4.035826            3.602691             -6.259636
| 66>   O                      -3.371976            2.385973             -6.428741
| 67>   H                      -2.425524            2.630359             -6.586331
| 68>   H                      -5.124639            3.452546             -6.112289
| 69>   H                      -3.624570            4.076056             -5.310521
| 70>   H                      -3.821326            4.349010             -7.031137
| 71> *
| 72>
| 73>                          ****END OF INPUT****
 Total Charge           Charge          ....    0
 Multiplicity           Mult            ....    1
 Number of Electrons    NEL             ....   36
Dispersion correction           -0.001780554
FINAL SINGLE POINT ENERGY      -231.473188909783
Dispersion correction           -0.000250377
FINAL SINGLE POINT ENERGY      -115.732657421927

CARTESIAN COORDINATES (ANGSTROEM)
---------------------------------
  C     -4.436404   -0.272162   -8.295622
  O     -4.799837   -0.104857   -6.970533
  H     -4.263745    0.539021   -6.535628
  H     -4.690986    0.619393   -8.951854
  H     -3.332834   -0.407607   -8.352097
  H     -4.835055   -1.202201   -8.789078
  C     -4.035826    3.602691   -6.259636
  O     -3.371976    2.385973   -6.428741
  H     -2.425524    2.630359   -6.586331
  H     -5.124639    3.452546   -6.112289
  H     -3.624570    4.076056   -5.310521
  H     -3.821326    4.349010   -7.031137

 Multiplicity           Mult            ....    1
 Number of Electrons    NEL             ....   18
 Basis Dimension        Dim             ....  172

ORBITAL ENERGIES
----------------

  NO   OCC          E(Eh)            E(eV)
   0   2.0000     -19.235531      -523.4254
   1   2.0000     -10.318465      -280.7797
   2   2.0000      -1.140170       -31.0256
   3   2.0000      -0.786610       -21.4047
   4   2.0000      -0.613639       -16.6980
   5   2.0000      -0.534983       -14.5576
   6   2.0000      -0.530839       -14.4449
   7   2.0000      -0.439224       -11.9519
   8   2.0000      -0.367855       -10.0098
   9   0.0000       0.095776         2.6062
  10   0.0000       0.122685         3.3384
  11   0.0000       0.152487         4.1494
  12   0.0000       0.182969         4.9788
  13   0.0000       0.196989         5.3603

MULLIKEN ATOMIC CHARGES
-----------------------
   0 C :    0.001974
   1 O :    0.001410
   2 H :   -0.009660
   3 H :   -0.002789
   4 H :   -0.002085
   5 H :   -0.000367
   6 C :   -0.171645
   7 O :   -0.454893
   8 H :    0.315741
   9 H :    0.124347
  10 H :    0.090931
  11 H :    0.107036
Sum of atomic charges:    0.0000000

LOEWDIN ATOMIC CHARGES
----------------------
   0 C :   -0.007213
   1 O :   -0.004106
   2 H :   -0.030667
   3 H :   -0.001288
   4 H :   -0.000840
   5 H :   -0.000117
   6 C :   -0.409016
   7 O :   -0.041966
   8 H :    0.190669
   9 H :    0.112156
  10 H :    0.099646
  11 H :    0.092741

  Mayer bond orders larger than 0.1
B(  6-C ,  7-O ) :   0.9893 B(  6-C ,  9-H ) :   0.9730 B(  6-C , 10-H ) :   0.9799
B(  6-C , 11-H ) :   0.9670 B(  7-O ,  8-H ) :   0.8919

Dispersion correction           -0.000226902
FINAL SINGLE POINT ENERGY      -115.732849869734

DIPOLE MOMENT
-------------
                                X             Y             Z
Electronic contribution:      0.63092      -1.73732      -0.35125
Nuclear contribution   :     -0.29864       2.35052       0.31419
                        -----------------------------------------
Total Dipole Moment    :      0.33227       0.61320      -0.03706
                        -----------------------------------------
Magnitude (a.u.)       :      0.69842
Magnitude (Debye)      :      1.77525

Rotational constants in cm-1:     4.101161     0.851658     0.810301
Rotational constants in MHz : 122949.699534 25532.054108 24292.213387

                             ****ORCA TERMINATED NORMALLY****
TOTAL RUN TIME: 0 days 0 hours 1 minutes 10 seconds 235 msec
