                         Program Version 4.1.2  - RELEASE  -
|  1> #Run DFT-D3 single point of the dimer
|  2> ! wB97X-D3 def2-TZVP TIGHTSCF CHELPG PMODEL PAL8
|  3>
|  4> %base "16-61_DFT_AB"
|  5>
|  6> %scf
|  7> MaxIter 1000
|  8> end
|  9>
| 10> * xyz 0 1
| 11>   C                      8.058946             -9.033042            0.461038
| 12>   O                      8.872390             -8.090761            1.090432
| 13>   H                      8.823240             -8.265778            1.999192
| 14>   H                      7.747471             -8.809037            -0.550858
| 15>   H                      8.601848             -9.949009            0.269711
| 16>   H                      7.118040             -9.192842            0.968932
| 17>   C                      5.695162             -8.591498            -4.377994
| 18>   O                      6.655269             -9.376518            -5.019318
| 19>   H                      6.129340             -9.955348            -5.594773
| 20>   H                      5.650426             -7.587364            -4.835923
| 21>   H                      4.722369             -9.035779            -4.375964
| 22>   H                      6.001273             -8.376452            -3.316426
| 23> *
| 24>
| 25> #Run DFT-D3 single point of the molecule with dimer basis set
| 26> $new_job
| 27> %base "16-61_DFT_A"
| 28> ! wB97X-D3 def2-TZVP TIGHTSCF CHELPG PMODEL
| 29>
| 30> %scf
| 31> MaxIter 1000
| 32> end
| 33>
| 34> * xyz 0 1
| 35>   C                      8.058946             -9.033042            0.461038
| 36>   O                      8.872390             -8.090761            1.090432
| 37>   H                      8.823240             -8.265778            1.999192
| 38>   H                      7.747471             -8.809037            -0.550858
| 39>   H                      8.601848             -9.949009            0.269711
| 40>   H                      7.118040             -9.192842            0.968932
| 41>   C                    : 5.695162             -8.591498            -4.377994
| 42>   O                    : 6.655269             -9.376518            -5.019318
| 43>   H                    : 6.129340             -9.955348            -5.594773
| 44>   H                    : 5.650426             -7.587364            -4.835923
| 45>   H                    : 4.722369             -9.035779            -4.375964
| 46>   H                    : 6.001273             -8.376452            -3.316426
| 47> *
| 48>
| 49> #Run DFT-D3 single point of the particle with dimer basis set
| 50> $new_job
| 51> %base "16-61_DFT_B"
| 52> ! wB97X-D3 def2-TZVP TIGHTSCF CHELPG PMODEL
| 53>
| 54> %scf
| 55> MaxIter 1000
| 56> end
| 57>
| 58> * xyz 0 1
| 59>   C                    : 8.058946             -9.033042            0.461038
| 60>   O                    : 8.872390             -8.090761            1.090432
| 61>   H                    : 8.823240             -8.265778            1.999192
| 62>   H                    : 7.747471             -8.809037            -0.550858
| 63>   H                    : 8.601848             -9.949009            0.269711
| 64>   H                    : 7.118040             -9.192842            0.968932
| 65>   C                      5.695162             -8.591498            -4.377994
| 66>   O                      6.655269             -9.376518            -5.019318
| 67>   H                      6.129340             -9.955348            -5.594773
| 68>   H                      5.650426             -7.587364            -4.835923
| 69>   H                      4.722369             -9.035779            -4.375964
| 70>   H                      6.001273             -8.376452            -3.316426
| 71> *
| 72>
| 73>                          ****END OF INPUT****
 Total Charge           Charge          ....    0
 Multiplicity           Mult            ....    1
 Number of Electrons    NEL             ....   36
Dispersion correction           -0.000714359
FINAL SINGLE POINT ENERGY      -231.464329993645
Dispersion correction           -0.000234318
FINAL SINGLE POINT ENERGY      -115.730629895841

CARTESIAN COORDINATES (ANGSTROEM)
---------------------------------
  C      8.058946   -9.033042    0.461038
  O      8.872390   -8.090761    1.090432
  H      8.823240   -8.265778    1.999192
  H      7.747471   -8.809037   -0.550858
  H      8.601848   -9.949009    0.269711
  H      7.118040   -9.192842    0.968932
  C      5.695162   -8.591498   -4.377994
  O      6.655269   -9.376518   -5.019318
  H      6.129340   -9.955348   -5.594773
  H      5.650426   -7.587364   -4.835923
  H      4.722369   -9.035779   -4.375964
  H      6.001273   -8.376452   -3.316426

 Multiplicity           Mult            ....    1
 Number of Electrons    NEL             ....   18
 Basis Dimension        Dim             ....  172

ORBITAL ENERGIES
----------------

  NO   OCC          E(Eh)            E(eV)
   0   2.0000     -19.232762      -523.3501
   1   2.0000     -10.312547      -280.6187
   2   2.0000      -1.143367       -31.1126
   3   2.0000      -0.790227       -21.5032
   4   2.0000      -0.616326       -16.7711
   5   2.0000      -0.539081       -14.6691
   6   2.0000      -0.527909       -14.3651
   7   2.0000      -0.440113       -11.9761
   8   2.0000      -0.369786       -10.0624
   9   0.0000       0.089110         2.4248
  10   0.0000       0.112494         3.0611
  11   0.0000       0.147586         4.0160
  12   0.0000       0.169599         4.6150
  13   0.0000       0.193432         5.2635

MULLIKEN ATOMIC CHARGES
-----------------------
   0 C :   -0.000763
   1 O :    0.000015
   2 H :    0.000000
   3 H :    0.001123
   4 H :    0.000021
   5 H :    0.000044
   6 C :   -0.176198
   7 O :   -0.456797
   8 H :    0.316147
   9 H :    0.100296
  10 H :    0.108693
  11 H :    0.107419
Sum of atomic charges:    0.0000000

LOEWDIN ATOMIC CHARGES
----------------------
   0 C :   -0.000131
   1 O :   -0.000002
   2 H :   -0.000000
   3 H :   -0.000368
   4 H :   -0.000001
   5 H :   -0.000004
   6 C :   -0.407367
   7 O :   -0.067959
   8 H :    0.180038
   9 H :    0.096938
  10 H :    0.090115
  11 H :    0.108743

  Mayer bond orders larger than 0.1
B(  6-C ,  7-O ) :   1.0184 B(  6-C ,  9-H ) :   0.9773 B(  6-C , 10-H ) :   0.9828
B(  6-C , 11-H ) :   0.9741 B(  7-O ,  8-H ) :   0.9004

Dispersion correction           -0.000234822
FINAL SINGLE POINT ENERGY      -115.733467375494

DIPOLE MOMENT
-------------
                                X             Y             Z
Electronic contribution:      1.31639      -1.06867      -0.81677
Nuclear contribution   :     -2.01916       0.98240       0.69605
                        -----------------------------------------
Total Dipole Moment    :     -0.70277      -0.08627      -0.12072
                        -----------------------------------------
Magnitude (a.u.)       :      0.71826
Magnitude (Debye)      :      1.82568

Rotational constants in cm-1:     4.230887     0.852416     0.815585
Rotational constants in MHz : 126838.786694 25554.782581 24450.633940

                             ****ORCA TERMINATED NORMALLY****
TOTAL RUN TIME: 0 days 0 hours 1 minutes 0 seconds 116 msec
