                         Program Version 4.1.2  - RELEASE  -
|  1> #Run DFT-D3 single point of the dimer
|  2> ! wB97X-D3 def2-TZVP TIGHTSCF CHELPG PMODEL PAL8
|  3>
|  4> %base "3-195_DFT_AB"
|  5>
|  6> %scf
|  7> MaxIter 1000
|  8> end
|  9>
| 10> * xyz 0 1
| 11>   C                      -7.928530            3.771707             -6.464146
| 12>   O                      -7.849009            4.322399             -5.205604
| 13>   H                      -7.952925            3.642590             -4.493695
| 14>   H                      -7.525502            2.716763             -6.413435
| 15>   H                      -8.987006            3.641655             -6.788111
| 16>   H                      -7.464347            4.472502             -7.174355
| 17>   C                      -5.693072            1.112097             -3.767097
| 18>   O                      -6.108488            1.713460             -2.566644
| 19>   H                      -6.511621            1.097057             -1.946003
| 20>   H                      -5.085930            0.251614             -3.445419
| 21>   H                      -6.602067            0.636664             -4.169847
| 22>   H                      -5.104219            1.728336             -4.437093
| 23> *
| 24>
| 25> #Run DFT-D3 single point of the molecule with dimer basis set
| 26> $new_job
| 27> %base "3-195_DFT_A"
| 28> ! wB97X-D3 def2-TZVP TIGHTSCF CHELPG PMODEL
| 29>
| 30> %scf
| 31> MaxIter 1000
| 32> end
| 33>
| 34> * xyz 0 1
| 35>   C                      -7.928530            3.771707             -6.464146
| 36>   O                      -7.849009            4.322399             -5.205604
| 37>   H                      -7.952925            3.642590             -4.493695
| 38>   H                      -7.525502            2.716763             -6.413435
| 39>   H                      -8.987006            3.641655             -6.788111
| 40>   H                      -7.464347            4.472502             -7.174355
| 41>   C                    : -5.693072            1.112097             -3.767097
| 42>   O                    : -6.108488            1.713460             -2.566644
| 43>   H                    : -6.511621            1.097057             -1.946003
| 44>   H                    : -5.085930            0.251614             -3.445419
| 45>   H                    : -6.602067            0.636664             -4.169847
| 46>   H                    : -5.104219            1.728336             -4.437093
| 47> *
| 48>
| 49> #Run DFT-D3 single point of the particle with dimer basis set
| 50> $new_job
| 51> %base "3-195_DFT_B"
| 52> ! wB97X-D3 def2-TZVP TIGHTSCF CHELPG PMODEL
| 53>
| 54> %scf
| 55> MaxIter 1000
| 56> end
| 57>
| 58> * xyz 0 1
| 59>   C                    : -7.928530            3.771707             -6.464146
| 60>   O                    : -7.849009            4.322399             -5.205604
| 61>   H                    : -7.952925            3.642590             -4.493695
| 62>   H                    : -7.525502            2.716763             -6.413435
| 63>   H                    : -8.987006            3.641655             -6.788111
| 64>   H                    : -7.464347            4.472502             -7.174355
| 65>   C                      -5.693072            1.112097             -3.767097
| 66>   O                      -6.108488            1.713460             -2.566644
| 67>   H                      -6.511621            1.097057             -1.946003
| 68>   H                      -5.085930            0.251614             -3.445419
| 69>   H                      -6.602067            0.636664             -4.169847
| 70>   H                      -5.104219            1.728336             -4.437093
| 71> *
| 72>
| 73>                          ****END OF INPUT****
 Total Charge           Charge          ....    0
 Multiplicity           Mult            ....    1
 Number of Electrons    NEL             ....   36
Dispersion correction           -0.001438470
FINAL SINGLE POINT ENERGY      -231.460711086304
Dispersion correction           -0.000234358
FINAL SINGLE POINT ENERGY      -115.730999091857

CARTESIAN COORDINATES (ANGSTROEM)
---------------------------------
  C     -7.928530    3.771707   -6.464146
  O     -7.849009    4.322399   -5.205604
  H     -7.952925    3.642590   -4.493695
  H     -7.525502    2.716763   -6.413435
  H     -8.987006    3.641655   -6.788111
  H     -7.464347    4.472502   -7.174355
  C     -5.693072    1.112097   -3.767097
  O     -6.108488    1.713460   -2.566644
  H     -6.511621    1.097057   -1.946003
  H     -5.085930    0.251614   -3.445419
  H     -6.602067    0.636664   -4.169847
  H     -5.104219    1.728336   -4.437093

 Multiplicity           Mult            ....    1
 Number of Electrons    NEL             ....   18
 Basis Dimension        Dim             ....  172

ORBITAL ENERGIES
----------------

  NO   OCC          E(Eh)            E(eV)
   0   2.0000     -19.222400      -523.0681
   1   2.0000     -10.314293      -280.6662
   2   2.0000      -1.133249       -30.8373
   3   2.0000      -0.794895       -21.6302
   4   2.0000      -0.609663       -16.5898
   5   2.0000      -0.548930       -14.9371
   6   2.0000      -0.532404       -14.4875
   7   2.0000      -0.423675       -11.5288
   8   2.0000      -0.362465        -9.8632
   9   0.0000       0.090156         2.4533
  10   0.0000       0.115151         3.1334
  11   0.0000       0.155192         4.2230
  12   0.0000       0.178813         4.8658
  13   0.0000       0.186572         5.0769

MULLIKEN ATOMIC CHARGES
-----------------------
   0 C :   -0.000174
   1 O :    0.000336
   2 H :   -0.002211
   3 H :   -0.000430
   4 H :   -0.000011
   5 H :   -0.000021
   6 C :   -0.159092
   7 O :   -0.491846
   8 H :    0.318939
   9 H :    0.102409
  10 H :    0.102257
  11 H :    0.129844
Sum of atomic charges:    0.0000000

LOEWDIN ATOMIC CHARGES
----------------------
   0 C :   -0.000462
   1 O :   -0.000069
   2 H :   -0.002208
   3 H :   -0.000898
   4 H :   -0.000003
   5 H :   -0.000006
   6 C :   -0.385793
   7 O :   -0.083828
   8 H :    0.170016
   9 H :    0.097290
  10 H :    0.098595
  11 H :    0.107366

  Mayer bond orders larger than 0.1
B(  6-C ,  7-O ) :   0.9664 B(  6-C ,  9-H ) :   0.9851 B(  6-C , 10-H ) :   0.9874
B(  6-C , 11-H ) :   0.9651 B(  7-O ,  8-H ) :   0.8917

Dispersion correction           -0.000214825
FINAL SINGLE POINT ENERGY      -115.727452444376

DIPOLE MOMENT
-------------
                                X             Y             Z
Electronic contribution:     -0.41173       1.06650       1.28658
Nuclear contribution   :      0.33963      -1.72458      -1.36344
                        -----------------------------------------
Total Dipole Moment    :     -0.07209      -0.65808      -0.07686
                        -----------------------------------------
Magnitude (a.u.)       :      0.66646
Magnitude (Debye)      :      1.69401

Rotational constants in cm-1:     4.280880     0.846829     0.809094
Rotational constants in MHz : 128337.547650 25387.300856 24256.041407

                             ****ORCA TERMINATED NORMALLY****
TOTAL RUN TIME: 0 days 0 hours 6 minutes 11 seconds 266 msec
