                         Program Version 4.1.2  - RELEASE  -
|  1> #Run DFT-D3 single point of the dimer
|  2> ! wB97X-D3 def2-TZVP TIGHTSCF  CHELPG PAL8
|  3>
|  4> %base "144_charges"
|  5>
|  6> %scf
|  7> MaxIter 1000
|  8> end
|  9> %output
| 10>   Print[ P_Mayer ] 1
| 11>   Print[ P_NatPop ] 1
| 12>   Print[ P_Hirshfeld ] 1
| 13>   Print[ P_Mulliken ] 1
| 14>   Print [ P_Loewdin ] 1
| 15> end
| 16>
| 17> * xyz 0 1
| 18>   C                      -10.888933           5.527516             10.649440
| 19>   O                      -11.403733           6.027131             9.444336
| 20>   H                      -11.472208           5.208475             8.934901
| 21>   H                      -11.143720           6.223615             11.446204
| 22>   H                      -11.340169           4.525400             10.790329
| 23>   H                      -9.782563            5.408685             10.735962
| 24> *
| 25>
| 26>                          ****END OF INPUT****

CARTESIAN COORDINATES (ANGSTROEM)
---------------------------------
  C    -10.888933    5.527516   10.649440
  O    -11.403733    6.027131    9.444336
  H    -11.472208    5.208475    8.934901
  H    -11.143720    6.223615   11.446204
  H    -11.340169    4.525400   10.790329
  H     -9.782563    5.408685   10.735962

 Total Charge           Charge          ....    0
 Multiplicity           Mult            ....    1
 Number of Electrons    NEL             ....   18
 Basis Dimension        Dim             ....   86

ORBITAL ENERGIES
----------------

  NO   OCC          E(Eh)            E(eV)
   0   2.0000     -19.234256      -523.3907
   1   2.0000     -10.315374      -280.6956
   2   2.0000      -1.145677       -31.1755
   3   2.0000      -0.788354       -21.4522
   4   2.0000      -0.614371       -16.7179
   5   2.0000      -0.542172       -14.7533
   6   2.0000      -0.526379       -14.3235
   7   2.0000      -0.441940       -12.0258
   8   2.0000      -0.372106       -10.1255
   9   0.0000       0.110017         2.9937
  10   0.0000       0.156307         4.2533
  11   0.0000       0.198824         5.4103
  12   0.0000       0.206796         5.6272
  13   0.0000       0.229321         6.2401

MULLIKEN ATOMIC CHARGES
-----------------------
   0 C :   -0.172682
   1 O :   -0.451291
   2 H :    0.315241
   3 H :    0.118941
   4 H :    0.095567
   5 H :    0.094226
Sum of atomic charges:    0.0000000

LOEWDIN ATOMIC CHARGES
----------------------
   0 C :   -0.406030
   1 O :   -0.069371
   2 H :    0.178347
   3 H :    0.104590
   4 H :    0.097720
   5 H :    0.094744

  Mayer bond orders larger than 0.1
B(  0-C ,  1-O ) :   1.0144 B(  0-C ,  3-H ) :   0.9770 B(  0-C ,  4-H ) :   0.9925
B(  0-C ,  5-H ) :   0.9610 B(  1-O ,  2-H ) :   0.9032

Dispersion correction           -0.000228198
FINAL SINGLE POINT ENERGY      -115.731368863969

DIPOLE MOMENT
-------------
                                X             Y             Z
Electronic contribution:     -0.67952       0.85949      -1.54604
Nuclear contribution   :      0.81087      -1.54220       1.68331
                        -----------------------------------------
Total Dipole Moment    :      0.13135      -0.68271       0.13727
                        -----------------------------------------
Magnitude (a.u.)       :      0.70865
Magnitude (Debye)      :      1.80125

Rotational constants in cm-1:     4.181664     0.854034     0.812450
Rotational constants in MHz : 125363.139190 25603.305445 24356.631094

                             ****ORCA TERMINATED NORMALLY****
TOTAL RUN TIME: 0 days 0 hours 0 minutes 40 seconds 314 msec
