                         Program Version 4.1.2  - RELEASE  -
|  1> #Run DFT-D3 single point of the dimer
|  2> ! wB97X-D3 def2-TZVP TIGHTSCF CHELPG PMODEL PAL8
|  3>
|  4> %base "12-49_DFT_AB"
|  5>
|  6> %scf
|  7> MaxIter 1000
|  8> end
|  9>
| 10> * xyz 0 1
| 11>   C                      -2.565252            4.718114             -0.085181
| 12>   O                      -2.001019            4.805665             -1.430314
| 13>   H                      -1.240345            5.338943             -1.221299
| 14>   H                      -1.779562            4.387065             0.613376
| 15>   H                      -2.893558            5.626545             0.347260
| 16>   H                      -3.394099            4.098800             0.009473
| 17>   C                      -4.796835            4.220593             -3.241438
| 18>   O                      -3.623748            3.536145             -3.223031
| 19>   H                      -2.971808            4.116737             -2.850805
| 20>   H                      -5.639609            3.584267             -3.211431
| 21>   H                      -4.869373            4.911366             -2.405323
| 22>   H                      -4.833303            4.912710             -4.107537
| 23> *
| 24>
| 25> #Run DFT-D3 single point of the molecule with dimer basis set
| 26> $new_job
| 27> %base "12-49_DFT_A"
| 28> ! wB97X-D3 def2-TZVP TIGHTSCF CHELPG PMODEL
| 29>
| 30> %scf
| 31> MaxIter 1000
| 32> end
| 33>
| 34> * xyz 0 1
| 35>   C                      -2.565252            4.718114             -0.085181
| 36>   O                      -2.001019            4.805665             -1.430314
| 37>   H                      -1.240345            5.338943             -1.221299
| 38>   H                      -1.779562            4.387065             0.613376
| 39>   H                      -2.893558            5.626545             0.347260
| 40>   H                      -3.394099            4.098800             0.009473
| 41>   C                    : -4.796835            4.220593             -3.241438
| 42>   O                    : -3.623748            3.536145             -3.223031
| 43>   H                    : -2.971808            4.116737             -2.850805
| 44>   H                    : -5.639609            3.584267             -3.211431
| 45>   H                    : -4.869373            4.911366             -2.405323
| 46>   H                    : -4.833303            4.912710             -4.107537
| 47> *
| 48>
| 49> #Run DFT-D3 single point of the particle with dimer basis set
| 50> $new_job
| 51> %base "12-49_DFT_B"
| 52> ! wB97X-D3 def2-TZVP TIGHTSCF CHELPG PMODEL
| 53>
| 54> %scf
| 55> MaxIter 1000
| 56> end
| 57>
| 58> * xyz 0 1
| 59>   C                    : -2.565252            4.718114             -0.085181
| 60>   O                    : -2.001019            4.805665             -1.430314
| 61>   H                    : -1.240345            5.338943             -1.221299
| 62>   H                    : -1.779562            4.387065             0.613376
| 63>   H                    : -2.893558            5.626545             0.347260
| 64>   H                    : -3.394099            4.098800             0.009473
| 65>   C                      -4.796835            4.220593             -3.241438
| 66>   O                      -3.623748            3.536145             -3.223031
| 67>   H                      -2.971808            4.116737             -2.850805
| 68>   H                      -5.639609            3.584267             -3.211431
| 69>   H                      -4.869373            4.911366             -2.405323
| 70>   H                      -4.833303            4.912710             -4.107537
| 71> *
| 72>
| 73>                          ****END OF INPUT****
 Total Charge           Charge          ....    0
 Multiplicity           Mult            ....    1
 Number of Electrons    NEL             ....   36
Dispersion correction           -0.001991401
FINAL SINGLE POINT ENERGY      -231.467512196238
Dispersion correction           -0.000233859
FINAL SINGLE POINT ENERGY      -115.727298349171

CARTESIAN COORDINATES (ANGSTROEM)
---------------------------------
  C     -2.565252    4.718114   -0.085181
  O     -2.001019    4.805665   -1.430314
  H     -1.240345    5.338943   -1.221299
  H     -1.779562    4.387065    0.613376
  H     -2.893558    5.626545    0.347260
  H     -3.394099    4.098800    0.009473
  C     -4.796835    4.220593   -3.241438
  O     -3.623748    3.536145   -3.223031
  H     -2.971808    4.116737   -2.850805
  H     -5.639609    3.584267   -3.211431
  H     -4.869373    4.911366   -2.405323
  H     -4.833303    4.912710   -4.107537

 Multiplicity           Mult            ....    1
 Number of Electrons    NEL             ....   18
 Basis Dimension        Dim             ....  172

ORBITAL ENERGIES
----------------

  NO   OCC          E(Eh)            E(eV)
   0   2.0000     -19.230367      -523.2849
   1   2.0000     -10.305790      -280.4348
   2   2.0000      -1.158763       -31.5315
   3   2.0000      -0.796791       -21.6818
   4   2.0000      -0.627543       -17.0763
   5   2.0000      -0.550129       -14.9698
   6   2.0000      -0.535785       -14.5794
   7   2.0000      -0.435578       -11.8527
   8   2.0000      -0.368725       -10.0335
   9   0.0000       0.070584         1.9207
  10   0.0000       0.138109         3.7581
  11   0.0000       0.144770         3.9394
  12   0.0000       0.175789         4.7835
  13   0.0000       0.187408         5.0996

MULLIKEN ATOMIC CHARGES
-----------------------
   0 C :   -0.003264
   1 O :   -0.005761
   2 H :   -0.000384
   3 H :    0.000050
   4 H :   -0.000111
   5 H :   -0.000604
   6 C :   -0.153237
   7 O :   -0.450620
   8 H :    0.316217
   9 H :    0.115121
  10 H :    0.091395
  11 H :    0.091198
Sum of atomic charges:   -0.0000000

LOEWDIN ATOMIC CHARGES
----------------------
   0 C :   -0.006985
   1 O :   -0.025447
   2 H :   -0.000994
   3 H :   -0.000070
   4 H :   -0.000130
   5 H :   -0.001345
   6 C :   -0.420404
   7 O :   -0.011357
   8 H :    0.180148
   9 H :    0.098415
  10 H :    0.092739
  11 H :    0.095431

  Mayer bond orders larger than 0.1
B(  6-C ,  7-O ) :   1.0022 B(  6-C ,  9-H ) :   0.9729 B(  6-C , 10-H ) :   0.9829
B(  6-C , 11-H ) :   0.9854 B(  7-O ,  8-H ) :   0.9040

Dispersion correction           -0.000206876
FINAL SINGLE POINT ENERGY      -115.732394951356

DIPOLE MOMENT
-------------
                                X             Y             Z
Electronic contribution:      1.45598      -1.19638      -0.03180
Nuclear contribution   :     -1.47365       1.80423       0.28585
                        -----------------------------------------
Total Dipole Moment    :     -0.01767       0.60786       0.25405
                        -----------------------------------------
Magnitude (a.u.)       :      0.65905
Magnitude (Debye)      :      1.67517

Rotational constants in cm-1:     4.393827     0.891764     0.855777
Rotational constants in MHz : 131723.612475 26734.404052 25655.538423

                             ****ORCA TERMINATED NORMALLY****
TOTAL RUN TIME: 0 days 0 hours 1 minutes 16 seconds 180 msec
