                         Program Version 4.1.2  - RELEASE  -
|  1> #Run DFT-D3 single point of the dimer
|  2> ! wB97X-D3 def2-TZVP TIGHTSCF CHELPG PMODEL PAL8
|  3>
|  4> %base "1-45_DFT_AB"
|  5>
|  6> %scf
|  7> MaxIter 1000
|  8> end
|  9>
| 10> * xyz 0 1
| 11>   C                      -2.553089            -9.341690            7.829840
| 12>   O                      -3.202982            -9.262673            6.528423
| 13>   H                      -3.995979            -9.807772            6.501171
| 14>   H                      -1.675079            -8.720392            7.907150
| 15>   H                      -3.152298            -8.937749            8.646217
| 16>   H                      -2.217675            -10.345372           8.116701
| 17>   C                      -6.542169            -8.914744            7.551688
| 18>   O                      -5.821048            -8.219840            8.538104
| 19>   H                      -4.894167            -8.094710            8.192385
| 20>   H                      -5.939623            -9.394232            6.790370
| 21>   H                      -7.311096            -9.508938            7.971957
| 22>   H                      -7.045802            -8.227114            6.811990
| 23> *
| 24>
| 25> #Run DFT-D3 single point of the molecule with dimer basis set
| 26> $new_job
| 27> %base "1-45_DFT_A"
| 28> ! wB97X-D3 def2-TZVP TIGHTSCF CHELPG PMODEL
| 29>
| 30> %scf
| 31> MaxIter 1000
| 32> end
| 33>
| 34> * xyz 0 1
| 35>   C                      -2.553089            -9.341690            7.829840
| 36>   O                      -3.202982            -9.262673            6.528423
| 37>   H                      -3.995979            -9.807772            6.501171
| 38>   H                      -1.675079            -8.720392            7.907150
| 39>   H                      -3.152298            -8.937749            8.646217
| 40>   H                      -2.217675            -10.345372           8.116701
| 41>   C                    : -6.542169            -8.914744            7.551688
| 42>   O                    : -5.821048            -8.219840            8.538104
| 43>   H                    : -4.894167            -8.094710            8.192385
| 44>   H                    : -5.939623            -9.394232            6.790370
| 45>   H                    : -7.311096            -9.508938            7.971957
| 46>   H                    : -7.045802            -8.227114            6.811990
| 47> *
| 48>
| 49> #Run DFT-D3 single point of the particle with dimer basis set
| 50> $new_job
| 51> %base "1-45_DFT_B"
| 52> ! wB97X-D3 def2-TZVP TIGHTSCF CHELPG PMODEL
| 53>
| 54> %scf
| 55> MaxIter 1000
| 56> end
| 57>
| 58> * xyz 0 1
| 59>   C                    : -2.553089            -9.341690            7.829840
| 60>   O                    : -3.202982            -9.262673            6.528423
| 61>   H                    : -3.995979            -9.807772            6.501171
| 62>   H                    : -1.675079            -8.720392            7.907150
| 63>   H                    : -3.152298            -8.937749            8.646217
| 64>   H                    : -2.217675            -10.345372           8.116701
| 65>   C                      -6.542169            -8.914744            7.551688
| 66>   O                      -5.821048            -8.219840            8.538104
| 67>   H                      -4.894167            -8.094710            8.192385
| 68>   H                      -5.939623            -9.394232            6.790370
| 69>   H                      -7.311096            -9.508938            7.971957
| 70>   H                      -7.045802            -8.227114            6.811990
| 71> *
| 72>
| 73>                          ****END OF INPUT****
 Total Charge           Charge          ....    0
 Multiplicity           Mult            ....    1
 Number of Electrons    NEL             ....   36
Dispersion correction           -0.002262884
FINAL SINGLE POINT ENERGY      -231.462258197036
Dispersion correction           -0.000288248
FINAL SINGLE POINT ENERGY      -115.732973009960

CARTESIAN COORDINATES (ANGSTROEM)
---------------------------------
  C     -2.553089   -9.341690    7.829840
  O     -3.202982   -9.262673    6.528423
  H     -3.995979   -9.807772    6.501171
  H     -1.675079   -8.720392    7.907150
  H     -3.152298   -8.937749    8.646217
  H     -2.217675  -10.345372    8.116701
  C     -6.542169   -8.914744    7.551688
  O     -5.821048   -8.219840    8.538104
  H     -4.894167   -8.094710    8.192385
  H     -5.939623   -9.394232    6.790370
  H     -7.311096   -9.508938    7.971957
  H     -7.045802   -8.227114    6.811990

 Multiplicity           Mult            ....    1
 Number of Electrons    NEL             ....   18
 Basis Dimension        Dim             ....  172

ORBITAL ENERGIES
----------------

  NO   OCC          E(Eh)            E(eV)
   0   2.0000     -19.238161      -523.4970
   1   2.0000     -10.311429      -280.5882
   2   2.0000      -1.134882       -30.8817
   3   2.0000      -0.796199       -21.6657
   4   2.0000      -0.618964       -16.8429
   5   2.0000      -0.539801       -14.6887
   6   2.0000      -0.520173       -14.1546
   7   2.0000      -0.443887       -12.0788
   8   2.0000      -0.366407        -9.9704
   9   0.0000       0.071390         1.9426
  10   0.0000       0.134816         3.6685
  11   0.0000       0.148554         4.0424
  12   0.0000       0.171752         4.6736
  13   0.0000       0.189207         5.1486

MULLIKEN ATOMIC CHARGES
-----------------------
   0 C :    0.000416
   1 O :   -0.001319
   2 H :    0.000846
   3 H :   -0.000106
   4 H :   -0.008531
   5 H :    0.000015
   6 C :   -0.173033
   7 O :   -0.462384
   8 H :    0.321150
   9 H :    0.107084
  10 H :    0.128806
  11 H :    0.087056
Sum of atomic charges:   -0.0000000

LOEWDIN ATOMIC CHARGES
----------------------
   0 C :   -0.008290
   1 O :   -0.002867
   2 H :   -0.010674
   3 H :   -0.000096
   4 H :   -0.008261
   5 H :   -0.000078
   6 C :   -0.395939
   7 O :   -0.071816
   8 H :    0.197966
   9 H :    0.100455
  10 H :    0.099057
  11 H :    0.100543

  Mayer bond orders larger than 0.1
B(  6-C ,  7-O ) :   1.0084 B(  6-C ,  9-H ) :   0.9744 B(  6-C , 10-H ) :   0.9768
B(  6-C , 11-H ) :   0.9743 B(  7-O ,  8-H ) :   0.8951

Dispersion correction           -0.000251592
FINAL SINGLE POINT ENERGY      -115.727518038441

DIPOLE MOMENT
-------------
                                X             Y             Z
Electronic contribution:      0.84845       0.74590       1.59549
Nuclear contribution   :     -0.54427      -0.94123      -2.20171
                        -----------------------------------------
Total Dipole Moment    :      0.30418      -0.19534      -0.60622
                        -----------------------------------------
Magnitude (a.u.)       :      0.70582
Magnitude (Debye)      :      1.79406

Rotational constants in cm-1:     4.362148     0.837527     0.792342
Rotational constants in MHz : 130773.894709 25108.422498 23753.827395

                             ****ORCA TERMINATED NORMALLY****
TOTAL RUN TIME: 0 days 0 hours 6 minutes 17 seconds 305 msec
