                         Program Version 4.1.2  - RELEASE  -
|  1> #Run DFT-D3 single point of the dimer
|  2> ! wB97X-D3 def2-TZVP TIGHTSCF CHELPG PMODEL PAL8
|  3>
|  4> %base "6-166_DFT_AB"
|  5>
|  6> %scf
|  7> MaxIter 1000
|  8> end
|  9>
| 10> * xyz 0 1
| 11>   C                      7.921592             -9.643380            5.268875
| 12>   O                      8.729613             -8.573952            4.837167
| 13>   H                      8.174072             -7.825036            4.434077
| 14>   H                      8.433361             -10.193491           6.014222
| 15>   H                      6.942352             -9.413133            5.582032
| 16>   H                      7.760987             -10.375064           4.441845
| 17>   C                      7.712186             -6.551031            7.430713
| 18>   O                      6.356131             -6.462621            7.029702
| 19>   H                      6.229425             -6.355896            6.039159
| 20>   H                      7.888485             -6.577326            8.505830
| 21>   H                      8.158836             -7.446520            7.052474
| 22>   H                      8.295175             -5.696844            7.093777
| 23> *
| 24>
| 25> #Run DFT-D3 single point of the molecule with dimer basis set
| 26> $new_job
| 27> %base "6-166_DFT_A"
| 28> ! wB97X-D3 def2-TZVP TIGHTSCF CHELPG PMODEL
| 29>
| 30> %scf
| 31> MaxIter 1000
| 32> end
| 33>
| 34> * xyz 0 1
| 35>   C                      7.921592             -9.643380            5.268875
| 36>   O                      8.729613             -8.573952            4.837167
| 37>   H                      8.174072             -7.825036            4.434077
| 38>   H                      8.433361             -10.193491           6.014222
| 39>   H                      6.942352             -9.413133            5.582032
| 40>   H                      7.760987             -10.375064           4.441845
| 41>   C                    : 7.712186             -6.551031            7.430713
| 42>   O                    : 6.356131             -6.462621            7.029702
| 43>   H                    : 6.229425             -6.355896            6.039159
| 44>   H                    : 7.888485             -6.577326            8.505830
| 45>   H                    : 8.158836             -7.446520            7.052474
| 46>   H                    : 8.295175             -5.696844            7.093777
| 47> *
| 48>
| 49> #Run DFT-D3 single point of the particle with dimer basis set
| 50> $new_job
| 51> %base "6-166_DFT_B"
| 52> ! wB97X-D3 def2-TZVP TIGHTSCF CHELPG PMODEL
| 53>
| 54> %scf
| 55> MaxIter 1000
| 56> end
| 57>
| 58> * xyz 0 1
| 59>   C                    : 7.921592             -9.643380            5.268875
| 60>   O                    : 8.729613             -8.573952            4.837167
| 61>   H                    : 8.174072             -7.825036            4.434077
| 62>   H                    : 8.433361             -10.193491           6.014222
| 63>   H                    : 6.942352             -9.413133            5.582032
| 64>   H                    : 7.760987             -10.375064           4.441845
| 65>   C                      7.712186             -6.551031            7.430713
| 66>   O                      6.356131             -6.462621            7.029702
| 67>   H                      6.229425             -6.355896            6.039159
| 68>   H                      7.888485             -6.577326            8.505830
| 69>   H                      8.158836             -7.446520            7.052474
| 70>   H                      8.295175             -5.696844            7.093777
| 71> *
| 72>
| 73>                          ****END OF INPUT****
 Total Charge           Charge          ....    0
 Multiplicity           Mult            ....    1
 Number of Electrons    NEL             ....   36
Dispersion correction           -0.002207151
FINAL SINGLE POINT ENERGY      -231.462744757568
Dispersion correction           -0.000257863
FINAL SINGLE POINT ENERGY      -115.730592583732

CARTESIAN COORDINATES (ANGSTROEM)
---------------------------------
  C      7.921592   -9.643380    5.268875
  O      8.729613   -8.573952    4.837167
  H      8.174072   -7.825036    4.434077
  H      8.433361  -10.193491    6.014222
  H      6.942352   -9.413133    5.582032
  H      7.760987  -10.375064    4.441845
  C      7.712186   -6.551031    7.430713
  O      6.356131   -6.462621    7.029702
  H      6.229425   -6.355896    6.039159
  H      7.888485   -6.577326    8.505830
  H      8.158836   -7.446520    7.052474
  H      8.295175   -5.696844    7.093777

 Multiplicity           Mult            ....    1
 Number of Electrons    NEL             ....   18
 Basis Dimension        Dim             ....  172

ORBITAL ENERGIES
----------------

  NO   OCC          E(Eh)            E(eV)
   0   2.0000     -19.231938      -523.3276
   1   2.0000     -10.309805      -280.5441
   2   2.0000      -1.123306       -30.5667
   3   2.0000      -0.798140       -21.7185
   4   2.0000      -0.606113       -16.4932
   5   2.0000      -0.543101       -14.7785
   6   2.0000      -0.529871       -14.4185
   7   2.0000      -0.421874       -11.4798
   8   2.0000      -0.372459       -10.1351
   9   0.0000       0.077868         2.1189
  10   0.0000       0.121871         3.3163
  11   0.0000       0.150905         4.1063
  12   0.0000       0.167223         4.5504
  13   0.0000       0.192910         5.2493

MULLIKEN ATOMIC CHARGES
-----------------------
   0 C :    0.005762
   1 O :    0.000190
   2 H :   -0.000452
   3 H :   -0.001118
   4 H :   -0.003694
   5 H :    0.000194
   6 C :   -0.148799
   7 O :   -0.494139
   8 H :    0.323824
   9 H :    0.123819
  10 H :    0.087783
  11 H :    0.106631
Sum of atomic charges:   -0.0000000

LOEWDIN ATOMIC CHARGES
----------------------
   0 C :   -0.007442
   1 O :   -0.004178
   2 H :   -0.001829
   3 H :   -0.000667
   4 H :   -0.001964
   5 H :   -0.000062
   6 C :   -0.377605
   7 O :   -0.099054
   8 H :    0.194332
   9 H :    0.109487
  10 H :    0.093810
  11 H :    0.095171

  Mayer bond orders larger than 0.1
B(  6-C ,  7-O ) :   0.9956 B(  6-C ,  9-H ) :   0.9716 B(  6-C , 10-H ) :   0.9799
B(  6-C , 11-H ) :   0.9850 B(  7-O ,  8-H ) :   0.8846

Dispersion correction           -0.000259722
FINAL SINGLE POINT ENERGY      -115.731402839747

DIPOLE MOMENT
-------------
                                X             Y             Z
Electronic contribution:     -1.81835       0.09755      -0.35664
Nuclear contribution   :      2.30400      -0.06047      -0.09713
                        -----------------------------------------
Total Dipole Moment    :      0.48565       0.03708      -0.45377
                        -----------------------------------------
Magnitude (a.u.)       :      0.66569
Magnitude (Debye)      :      1.69204

Rotational constants in cm-1:     4.488855     0.811062     0.786382
Rotational constants in MHz : 134572.493825 24315.017074 23575.145037

                             ****ORCA TERMINATED NORMALLY****
TOTAL RUN TIME: 0 days 0 hours 1 minutes 5 seconds 658 msec
