                         Program Version 4.1.2  - RELEASE  -
|  1> #Run DFT-D3 single point of the dimer
|  2> ! wB97X-D3 def2-TZVP TIGHTSCF CHELPG PMODEL PAL8
|  3>
|  4> %base "6-163_DFT_AB"
|  5>
|  6> %scf
|  7> MaxIter 1000
|  8> end
|  9>
| 10> * xyz 0 1
| 11>   C                      5.890683             -3.792645            -3.899730
| 12>   O                      7.139683             -3.398593            -4.503209
| 13>   H                      7.846260             -3.774391            -3.995121
| 14>   H                      5.910107             -3.919907            -2.837656
| 15>   H                      5.013322             -3.162493            -3.961290
| 16>   H                      5.576193             -4.798254            -4.168236
| 17>   C                      9.729221             -4.121742            -1.723665
| 18>   O                      9.536180             -4.272929            -3.104780
| 19>   H                      10.035135            -5.033447            -3.455573
| 20>   H                      10.036066            -5.072209            -1.324643
| 21>   H                      10.472148            -3.376382            -1.454949
| 22>   H                      8.885375             -3.866935            -1.091735
| 23> *
| 24>
| 25> #Run DFT-D3 single point of the molecule with dimer basis set
| 26> $new_job
| 27> %base "6-163_DFT_A"
| 28> ! wB97X-D3 def2-TZVP TIGHTSCF CHELPG PMODEL
| 29>
| 30> %scf
| 31> MaxIter 1000
| 32> end
| 33>
| 34> * xyz 0 1
| 35>   C                      5.890683             -3.792645            -3.899730
| 36>   O                      7.139683             -3.398593            -4.503209
| 37>   H                      7.846260             -3.774391            -3.995121
| 38>   H                      5.910107             -3.919907            -2.837656
| 39>   H                      5.013322             -3.162493            -3.961290
| 40>   H                      5.576193             -4.798254            -4.168236
| 41>   C                    : 9.729221             -4.121742            -1.723665
| 42>   O                    : 9.536180             -4.272929            -3.104780
| 43>   H                    : 10.035135            -5.033447            -3.455573
| 44>   H                    : 10.036066            -5.072209            -1.324643
| 45>   H                    : 10.472148            -3.376382            -1.454949
| 46>   H                    : 8.885375             -3.866935            -1.091735
| 47> *
| 48>
| 49> #Run DFT-D3 single point of the particle with dimer basis set
| 50> $new_job
| 51> %base "6-163_DFT_B"
| 52> ! wB97X-D3 def2-TZVP TIGHTSCF CHELPG PMODEL
| 53>
| 54> %scf
| 55> MaxIter 1000
| 56> end
| 57>
| 58> * xyz 0 1
| 59>   C                    : 5.890683             -3.792645            -3.899730
| 60>   O                    : 7.139683             -3.398593            -4.503209
| 61>   H                    : 7.846260             -3.774391            -3.995121
| 62>   H                    : 5.910107             -3.919907            -2.837656
| 63>   H                    : 5.013322             -3.162493            -3.961290
| 64>   H                    : 5.576193             -4.798254            -4.168236
| 65>   C                      9.729221             -4.121742            -1.723665
| 66>   O                      9.536180             -4.272929            -3.104780
| 67>   H                      10.035135            -5.033447            -3.455573
| 68>   H                      10.036066            -5.072209            -1.324643
| 69>   H                      10.472148            -3.376382            -1.454949
| 70>   H                      8.885375             -3.866935            -1.091735
| 71> *
| 72>
| 73>                          ****END OF INPUT****
 Total Charge           Charge          ....    0
 Multiplicity           Mult            ....    1
 Number of Electrons    NEL             ....   36
Dispersion correction           -0.001681795
FINAL SINGLE POINT ENERGY      -231.464241959018
Dispersion correction           -0.000275265
FINAL SINGLE POINT ENERGY      -115.725606554748

CARTESIAN COORDINATES (ANGSTROEM)
---------------------------------
  C      5.890683   -3.792645   -3.899730
  O      7.139683   -3.398593   -4.503209
  H      7.846260   -3.774391   -3.995121
  H      5.910107   -3.919907   -2.837656
  H      5.013322   -3.162493   -3.961290
  H      5.576193   -4.798254   -4.168236
  C      9.729221   -4.121742   -1.723665
  O      9.536180   -4.272929   -3.104780
  H     10.035135   -5.033447   -3.455573
  H     10.036066   -5.072209   -1.324643
  H     10.472148   -3.376382   -1.454949
  H      8.885375   -3.866935   -1.091735

 Multiplicity           Mult            ....    1
 Number of Electrons    NEL             ....   18
 Basis Dimension        Dim             ....  172

ORBITAL ENERGIES
----------------

  NO   OCC          E(Eh)            E(eV)
   0   2.0000     -19.232636      -523.3466
   1   2.0000     -10.309166      -280.5267
   2   2.0000      -1.135867       -30.9085
   3   2.0000      -0.800278       -21.7767
   4   2.0000      -0.615935       -16.7604
   5   2.0000      -0.542814       -14.7707
   6   2.0000      -0.534582       -14.5467
   7   2.0000      -0.422561       -11.4985
   8   2.0000      -0.374745       -10.1973
   9   0.0000       0.096247         2.6190
  10   0.0000       0.118458         3.2234
  11   0.0000       0.148266         4.0345
  12   0.0000       0.193532         5.2663
  13   0.0000       0.202376         5.5069

MULLIKEN ATOMIC CHARGES
-----------------------
   0 C :   -0.000982
   1 O :   -0.000197
   2 H :   -0.008038
   3 H :   -0.000358
   4 H :   -0.000156
   5 H :   -0.000008
   6 C :   -0.155792
   7 O :   -0.478799
   8 H :    0.324942
   9 H :    0.097228
  10 H :    0.103669
  11 H :    0.118492
Sum of atomic charges:    0.0000000

LOEWDIN ATOMIC CHARGES
----------------------
   0 C :   -0.001683
   1 O :   -0.005081
   2 H :   -0.040966
   3 H :   -0.000194
   4 H :   -0.000037
   5 H :   -0.000056
   6 C :   -0.390984
   7 O :   -0.035908
   8 H :    0.181990
   9 H :    0.094392
  10 H :    0.095135
  11 H :    0.103392

  Mayer bond orders larger than 0.1
B(  6-C ,  7-O ) :   0.9993 B(  6-C ,  9-H ) :   0.9883 B(  6-C , 10-H ) :   0.9747
B(  6-C , 11-H ) :   0.9736 B(  7-O ,  8-H ) :   0.8885

Dispersion correction           -0.000252507
FINAL SINGLE POINT ENERGY      -115.730380569234

DIPOLE MOMENT
-------------
                                X             Y             Z
Electronic contribution:     -0.37940      -0.03550      -1.88092
Nuclear contribution   :      0.77982      -0.42438       2.22339
                        -----------------------------------------
Total Dipole Moment    :      0.40042      -0.45988       0.34246
                        -----------------------------------------
Magnitude (a.u.)       :      0.69936
Magnitude (Debye)      :      1.77763

Rotational constants in cm-1:     4.587362     0.825682     0.799556
Rotational constants in MHz : 137525.656882 24753.319431 23970.091199

                             ****ORCA TERMINATED NORMALLY****
TOTAL RUN TIME: 0 days 0 hours 1 minutes 6 seconds 68 msec
