                         Program Version 4.1.2  - RELEASE  -
|  1> #Run DFT-D3 single point of the dimer
|  2> ! wB97X-D3 def2-TZVP TIGHTSCF CHELPG PMODEL PAL8
|  3>
|  4> %base "13-75_DFT_AB"
|  5>
|  6> %scf
|  7> MaxIter 1000
|  8> end
|  9>
| 10> * xyz 0 1
| 11>   C                      9.028161             -7.584521            4.100614
| 12>   O                      8.192791             -6.828802            5.014434
| 13>   H                      7.594326             -6.269406            4.519792
| 14>   H                      8.513725             -7.939866            3.227101
| 15>   H                      9.834166             -6.927564            3.751375
| 16>   H                      9.510038             -8.408056            4.560258
| 17>   C                      3.340212             -5.103759            4.722729
| 18>   O                      4.198028             -6.160828            5.112848
| 19>   H                      3.740715             -6.406466            5.979021
| 20>   H                      3.726197             -4.540154            3.788894
| 21>   H                      2.411893             -5.543951            4.462794
| 22>   H                      3.177969             -4.407597            5.559392
| 23> *
| 24>
| 25> #Run DFT-D3 single point of the molecule with dimer basis set
| 26> $new_job
| 27> %base "13-75_DFT_A"
| 28> ! wB97X-D3 def2-TZVP TIGHTSCF CHELPG PMODEL
| 29>
| 30> %scf
| 31> MaxIter 1000
| 32> end
| 33>
| 34> * xyz 0 1
| 35>   C                      9.028161             -7.584521            4.100614
| 36>   O                      8.192791             -6.828802            5.014434
| 37>   H                      7.594326             -6.269406            4.519792
| 38>   H                      8.513725             -7.939866            3.227101
| 39>   H                      9.834166             -6.927564            3.751375
| 40>   H                      9.510038             -8.408056            4.560258
| 41>   C                    : 3.340212             -5.103759            4.722729
| 42>   O                    : 4.198028             -6.160828            5.112848
| 43>   H                    : 3.740715             -6.406466            5.979021
| 44>   H                    : 3.726197             -4.540154            3.788894
| 45>   H                    : 2.411893             -5.543951            4.462794
| 46>   H                    : 3.177969             -4.407597            5.559392
| 47> *
| 48>
| 49> #Run DFT-D3 single point of the particle with dimer basis set
| 50> $new_job
| 51> %base "13-75_DFT_B"
| 52> ! wB97X-D3 def2-TZVP TIGHTSCF CHELPG PMODEL
| 53>
| 54> %scf
| 55> MaxIter 1000
| 56> end
| 57>
| 58> * xyz 0 1
| 59>   C                    : 9.028161             -7.584521            4.100614
| 60>   O                    : 8.192791             -6.828802            5.014434
| 61>   H                    : 7.594326             -6.269406            4.519792
| 62>   H                    : 8.513725             -7.939866            3.227101
| 63>   H                    : 9.834166             -6.927564            3.751375
| 64>   H                    : 9.510038             -8.408056            4.560258
| 65>   C                      3.340212             -5.103759            4.722729
| 66>   O                      4.198028             -6.160828            5.112848
| 67>   H                      3.740715             -6.406466            5.979021
| 68>   H                      3.726197             -4.540154            3.788894
| 69>   H                      2.411893             -5.543951            4.462794
| 70>   H                      3.177969             -4.407597            5.559392
| 71> *
| 72>
| 73>                          ****END OF INPUT****
 Total Charge           Charge          ....    0
 Multiplicity           Mult            ....    1
 Number of Electrons    NEL             ....   36
Dispersion correction           -0.000798615
FINAL SINGLE POINT ENERGY      -231.462110235371
Dispersion correction           -0.000256721
FINAL SINGLE POINT ENERGY      -115.733618655038

CARTESIAN COORDINATES (ANGSTROEM)
---------------------------------
  C      9.028161   -7.584521    4.100614
  O      8.192791   -6.828802    5.014434
  H      7.594326   -6.269406    4.519792
  H      8.513725   -7.939866    3.227101
  H      9.834166   -6.927564    3.751375
  H      9.510038   -8.408056    4.560258
  C      3.340212   -5.103759    4.722729
  O      4.198028   -6.160828    5.112848
  H      3.740715   -6.406466    5.979021
  H      3.726197   -4.540154    3.788894
  H      2.411893   -5.543951    4.462794
  H      3.177969   -4.407597    5.559392

 Multiplicity           Mult            ....    1
 Number of Electrons    NEL             ....   18
 Basis Dimension        Dim             ....  172

ORBITAL ENERGIES
----------------

  NO   OCC          E(Eh)            E(eV)
   0   2.0000     -19.235931      -523.4363
   1   2.0000     -10.316895      -280.7370
   2   2.0000      -1.133634       -30.8477
   3   2.0000      -0.784012       -21.3340
   4   2.0000      -0.603842       -16.4314
   5   2.0000      -0.547451       -14.8969
   6   2.0000      -0.520270       -14.1573
   7   2.0000      -0.438874       -11.9424
   8   2.0000      -0.371635       -10.1127
   9   0.0000       0.095463         2.5977
  10   0.0000       0.107351         2.9212
  11   0.0000       0.153778         4.1845
  12   0.0000       0.174827         4.7573
  13   0.0000       0.199386         5.4256

MULLIKEN ATOMIC CHARGES
-----------------------
   0 C :    0.000193
   1 O :    0.000002
   2 H :   -0.002305
   3 H :   -0.000052
   4 H :   -0.000009
   5 H :    0.000011
   6 C :   -0.181567
   7 O :   -0.459227
   8 H :    0.314887
   9 H :    0.115403
  10 H :    0.107284
  11 H :    0.105379
Sum of atomic charges:   -0.0000000

LOEWDIN ATOMIC CHARGES
----------------------
   0 C :   -0.000022
   1 O :   -0.000231
   2 H :   -0.001806
   3 H :   -0.000004
   4 H :   -0.000000
   5 H :   -0.000001
   6 C :   -0.400018
   7 O :   -0.100550
   8 H :    0.202803
   9 H :    0.118905
  10 H :    0.086304
  11 H :    0.094620

  Mayer bond orders larger than 0.1
B(  6-C ,  7-O ) :   0.9886 B(  6-C ,  9-H ) :   0.9695 B(  6-C , 10-H ) :   0.9800
B(  6-C , 11-H ) :   0.9784 B(  7-O ,  8-H ) :   0.8960

Dispersion correction           -0.000211904
FINAL SINGLE POINT ENERGY      -115.727254161837

DIPOLE MOMENT
-------------
                                X             Y             Z
Electronic contribution:      1.22986      -1.32826       0.35480
Nuclear contribution   :     -1.85024       1.57688       0.00892
                        -----------------------------------------
Total Dipole Moment    :     -0.62038       0.24862       0.36372
                        -----------------------------------------
Magnitude (a.u.)       :      0.76090
Magnitude (Debye)      :      1.93405

Rotational constants in cm-1:     4.037408     0.845458     0.800302
Rotational constants in MHz : 121038.434571 25346.188879 23992.463966

                             ****ORCA TERMINATED NORMALLY****
TOTAL RUN TIME: 0 days 0 hours 0 minutes 58 seconds 867 msec
