                         Program Version 4.1.2  - RELEASE  -
|  1> #Run DFT-D3 single point of the dimer
|  2> ! wB97X-D3 def2-TZVP TIGHTSCF CHELPG PMODEL PAL8
|  3>
|  4> %base "14-131_DFT_AB"
|  5>
|  6> %scf
|  7> MaxIter 1000
|  8> end
|  9>
| 10> * xyz 0 1
| 11>   C                      6.240257             -3.486396            0.328244
| 12>   O                      7.407682             -3.671008            -0.383972
| 13>   H                      7.952128             -4.335552            -0.003175
| 14>   H                      6.224370             -4.059562            1.284200
| 15>   H                      6.097100             -2.413471            0.559097
| 16>   H                      5.374843             -3.919506            -0.240133
| 17>   C                      7.607285             -5.451688            -4.193756
| 18>   O                      8.840122             -5.024464            -4.757572
| 19>   H                      9.236338             -4.323014            -4.290223
| 20>   H                      7.692302             -5.746558            -3.175119
| 21>   H                      6.876736             -4.628547            -4.298297
| 22>   H                      7.263589             -6.399799            -4.644602
| 23> *
| 24>
| 25> #Run DFT-D3 single point of the molecule with dimer basis set
| 26> $new_job
| 27> %base "14-131_DFT_A"
| 28> ! wB97X-D3 def2-TZVP TIGHTSCF CHELPG PMODEL
| 29>
| 30> %scf
| 31> MaxIter 1000
| 32> end
| 33>
| 34> * xyz 0 1
| 35>   C                      6.240257             -3.486396            0.328244
| 36>   O                      7.407682             -3.671008            -0.383972
| 37>   H                      7.952128             -4.335552            -0.003175
| 38>   H                      6.224370             -4.059562            1.284200
| 39>   H                      6.097100             -2.413471            0.559097
| 40>   H                      5.374843             -3.919506            -0.240133
| 41>   C                    : 7.607285             -5.451688            -4.193756
| 42>   O                    : 8.840122             -5.024464            -4.757572
| 43>   H                    : 9.236338             -4.323014            -4.290223
| 44>   H                    : 7.692302             -5.746558            -3.175119
| 45>   H                    : 6.876736             -4.628547            -4.298297
| 46>   H                    : 7.263589             -6.399799            -4.644602
| 47> *
| 48>
| 49> #Run DFT-D3 single point of the particle with dimer basis set
| 50> $new_job
| 51> %base "14-131_DFT_B"
| 52> ! wB97X-D3 def2-TZVP TIGHTSCF CHELPG PMODEL
| 53>
| 54> %scf
| 55> MaxIter 1000
| 56> end
| 57>
| 58> * xyz 0 1
| 59>   C                    : 6.240257             -3.486396            0.328244
| 60>   O                    : 7.407682             -3.671008            -0.383972
| 61>   H                    : 7.952128             -4.335552            -0.003175
| 62>   H                    : 6.224370             -4.059562            1.284200
| 63>   H                    : 6.097100             -2.413471            0.559097
| 64>   H                    : 5.374843             -3.919506            -0.240133
| 65>   C                      7.607285             -5.451688            -4.193756
| 66>   O                      8.840122             -5.024464            -4.757572
| 67>   H                      9.236338             -4.323014            -4.290223
| 68>   H                      7.692302             -5.746558            -3.175119
| 69>   H                      6.876736             -4.628547            -4.298297
| 70>   H                      7.263589             -6.399799            -4.644602
| 71> *
| 72>
| 73>                          ****END OF INPUT****
 Total Charge           Charge          ....    0
 Multiplicity           Mult            ....    1
 Number of Electrons    NEL             ....   36
Dispersion correction           -0.000999529
FINAL SINGLE POINT ENERGY      -231.467247016838
Dispersion correction           -0.000246373
FINAL SINGLE POINT ENERGY      -115.733618771556

CARTESIAN COORDINATES (ANGSTROEM)
---------------------------------
  C      6.240257   -3.486396    0.328244
  O      7.407682   -3.671008   -0.383972
  H      7.952128   -4.335552   -0.003175
  H      6.224370   -4.059562    1.284200
  H      6.097100   -2.413471    0.559097
  H      5.374843   -3.919506   -0.240133
  C      7.607285   -5.451688   -4.193756
  O      8.840122   -5.024464   -4.757572
  H      9.236338   -4.323014   -4.290223
  H      7.692302   -5.746558   -3.175119
  H      6.876736   -4.628547   -4.298297
  H      7.263589   -6.399799   -4.644602

 Multiplicity           Mult            ....    1
 Number of Electrons    NEL             ....   18
 Basis Dimension        Dim             ....  172

ORBITAL ENERGIES
----------------

  NO   OCC          E(Eh)            E(eV)
   0   2.0000     -19.223973      -523.1109
   1   2.0000     -10.313498      -280.6445
   2   2.0000      -1.135115       -30.8881
   3   2.0000      -0.801888       -21.8205
   4   2.0000      -0.612851       -16.6765
   5   2.0000      -0.549621       -14.9560
   6   2.0000      -0.522275       -14.2118
   7   2.0000      -0.425199       -11.5702
   8   2.0000      -0.374377       -10.1873
   9   0.0000       0.078951         2.1484
  10   0.0000       0.118691         3.2297
  11   0.0000       0.150764         4.1025
  12   0.0000       0.164263         4.4698
  13   0.0000       0.191974         5.2239

MULLIKEN ATOMIC CHARGES
-----------------------
   0 C :   -0.000062
   1 O :    0.000070
   2 H :   -0.000058
   3 H :   -0.000001
   4 H :   -0.000005
   5 H :   -0.000045
   6 C :   -0.149716
   7 O :   -0.484513
   8 H :    0.311740
   9 H :    0.104135
  10 H :    0.102000
  11 H :    0.116455
Sum of atomic charges:   -0.0000000

LOEWDIN ATOMIC CHARGES
----------------------
   0 C :   -0.000118
   1 O :   -0.000242
   2 H :   -0.000239
   3 H :   -0.000001
   4 H :   -0.000002
   5 H :   -0.000036
   6 C :   -0.373736
   7 O :   -0.071932
   8 H :    0.146817
   9 H :    0.088085
  10 H :    0.098866
  11 H :    0.112540

  Mayer bond orders larger than 0.1
B(  6-C ,  7-O ) :   0.9928 B(  6-C ,  9-H ) :   0.9744 B(  6-C , 10-H ) :   0.9824
B(  6-C , 11-H ) :   0.9707 B(  7-O ,  8-H ) :   0.9018

Dispersion correction           -0.000248627
FINAL SINGLE POINT ENERGY      -115.732375118269

DIPOLE MOMENT
-------------
                                X             Y             Z
Electronic contribution:      1.53466       0.47611      -0.78682
Nuclear contribution   :     -1.77650      -0.21636       1.35293
                        -----------------------------------------
Total Dipole Moment    :     -0.24184       0.25975       0.56610
                        -----------------------------------------
Magnitude (a.u.)       :      0.66815
Magnitude (Debye)      :      1.69831

Rotational constants in cm-1:     4.437682     0.817390     0.793686
Rotational constants in MHz : 133038.352889 24504.745398 23794.105559

                             ****ORCA TERMINATED NORMALLY****
TOTAL RUN TIME: 0 days 0 hours 1 minutes 8 seconds 539 msec
