                         Program Version 4.1.2  - RELEASE  -
|  1> #Run DFT-D3 single point of the dimer
|  2> ! wB97X-D3 def2-TZVP TIGHTSCF CHELPG PMODEL PAL8
|  3>
|  4> %base "6-137_DFT_AB"
|  5>
|  6> %scf
|  7> MaxIter 1000
|  8> end
|  9>
| 10> * xyz 0 1
| 11>   C                      -4.761511            4.033597             0.644561
| 12>   O                      -5.840978            3.433233             0.049642
| 13>   H                      -5.492849            2.523633             0.104784
| 14>   H                      -3.783085            3.629081             0.423102
| 15>   H                      -4.640133            5.102742             0.387107
| 16>   H                      -4.887416            4.115966             1.738798
| 17>   C                      -4.140601            4.017611             -3.706493
| 18>   O                      -4.263904            3.967901             -2.364951
| 19>   H                      -5.079723            4.217883             -1.945731
| 20>   H                      -4.671570            3.223314             -4.151186
| 21>   H                      -4.523097            4.919380             -4.129298
| 22>   H                      -3.104929            3.963434             -3.947013
| 23> *
| 24>
| 25> #Run DFT-D3 single point of the molecule with dimer basis set
| 26> $new_job
| 27> %base "6-137_DFT_A"
| 28> ! wB97X-D3 def2-TZVP TIGHTSCF CHELPG PMODEL
| 29>
| 30> %scf
| 31> MaxIter 1000
| 32> end
| 33>
| 34> * xyz 0 1
| 35>   C                      -4.761511            4.033597             0.644561
| 36>   O                      -5.840978            3.433233             0.049642
| 37>   H                      -5.492849            2.523633             0.104784
| 38>   H                      -3.783085            3.629081             0.423102
| 39>   H                      -4.640133            5.102742             0.387107
| 40>   H                      -4.887416            4.115966             1.738798
| 41>   C                    : -4.140601            4.017611             -3.706493
| 42>   O                    : -4.263904            3.967901             -2.364951
| 43>   H                    : -5.079723            4.217883             -1.945731
| 44>   H                    : -4.671570            3.223314             -4.151186
| 45>   H                    : -4.523097            4.919380             -4.129298
| 46>   H                    : -3.104929            3.963434             -3.947013
| 47> *
| 48>
| 49> #Run DFT-D3 single point of the particle with dimer basis set
| 50> $new_job
| 51> %base "6-137_DFT_B"
| 52> ! wB97X-D3 def2-TZVP TIGHTSCF CHELPG PMODEL
| 53>
| 54> %scf
| 55> MaxIter 1000
| 56> end
| 57>
| 58> * xyz 0 1
| 59>   C                    : -4.761511            4.033597             0.644561
| 60>   O                    : -5.840978            3.433233             0.049642
| 61>   H                    : -5.492849            2.523633             0.104784
| 62>   H                    : -3.783085            3.629081             0.423102
| 63>   H                    : -4.640133            5.102742             0.387107
| 64>   H                    : -4.887416            4.115966             1.738798
| 65>   C                      -4.140601            4.017611             -3.706493
| 66>   O                      -4.263904            3.967901             -2.364951
| 67>   H                      -5.079723            4.217883             -1.945731
| 68>   H                      -4.671570            3.223314             -4.151186
| 69>   H                      -4.523097            4.919380             -4.129298
| 70>   H                      -3.104929            3.963434             -3.947013
| 71> *
| 72>
| 73>                          ****END OF INPUT****
 Total Charge           Charge          ....    0
 Multiplicity           Mult            ....    1
 Number of Electrons    NEL             ....   36
Dispersion correction           -0.001772527
FINAL SINGLE POINT ENERGY      -231.462809355676
Dispersion correction           -0.000218104
FINAL SINGLE POINT ENERGY      -115.727100667293

CARTESIAN COORDINATES (ANGSTROEM)
---------------------------------
  C     -4.761511    4.033597    0.644561
  O     -5.840978    3.433233    0.049642
  H     -5.492849    2.523633    0.104784
  H     -3.783085    3.629081    0.423102
  H     -4.640133    5.102742    0.387107
  H     -4.887416    4.115966    1.738798
  C     -4.140601    4.017611   -3.706493
  O     -4.263904    3.967901   -2.364951
  H     -5.079723    4.217883   -1.945731
  H     -4.671570    3.223314   -4.151186
  H     -4.523097    4.919380   -4.129298
  H     -3.104929    3.963434   -3.947013

 Multiplicity           Mult            ....    1
 Number of Electrons    NEL             ....   18
 Basis Dimension        Dim             ....  172

ORBITAL ENERGIES
----------------

  NO   OCC          E(Eh)            E(eV)
   0   2.0000     -19.221966      -523.0563
   1   2.0000     -10.297053      -280.1971
   2   2.0000      -1.150300       -31.3013
   3   2.0000      -0.807041       -21.9607
   4   2.0000      -0.628650       -17.1064
   5   2.0000      -0.554046       -15.0764
   6   2.0000      -0.540019       -14.6947
   7   2.0000      -0.416852       -11.3431
   8   2.0000      -0.368383       -10.0242
   9   0.0000       0.085309         2.3214
  10   0.0000       0.135589         3.6896
  11   0.0000       0.162902         4.4328
  12   0.0000       0.174632         4.7520
  13   0.0000       0.196815         5.3556

MULLIKEN ATOMIC CHARGES
-----------------------
   0 C :    0.004604
   1 O :   -0.001960
   2 H :   -0.002387
   3 H :   -0.004508
   4 H :   -0.003970
   5 H :   -0.000371
   6 C :   -0.125007
   7 O :   -0.476603
   8 H :    0.320658
   9 H :    0.089606
  10 H :    0.086965
  11 H :    0.112973
Sum of atomic charges:   -0.0000000

LOEWDIN ATOMIC CHARGES
----------------------
   0 C :   -0.015931
   1 O :   -0.007466
   2 H :   -0.002216
   3 H :   -0.003847
   4 H :   -0.002507
   5 H :   -0.000115
   6 C :   -0.412793
   7 O :   -0.007771
   8 H :    0.171545
   9 H :    0.086537
  10 H :    0.088463
  11 H :    0.106101

  Mayer bond orders larger than 0.1
B(  6-C ,  7-O ) :   1.0014 B(  6-C ,  9-H ) :   0.9822 B(  6-C , 10-H ) :   0.9841
B(  6-C , 11-H ) :   0.9748 B(  7-O ,  8-H ) :   0.8866

Dispersion correction           -0.000224283
FINAL SINGLE POINT ENERGY      -115.729816018920

DIPOLE MOMENT
-------------
                                X             Y             Z
Electronic contribution:     -0.05926      -0.10043       1.70883
Nuclear contribution   :     -0.43946       0.30062      -1.96879
                        -----------------------------------------
Total Dipole Moment    :     -0.49872       0.20018      -0.25996
                        -----------------------------------------
Magnitude (a.u.)       :      0.59697
Magnitude (Debye)      :      1.51737

Rotational constants in cm-1:     4.693696     0.892012     0.862702
Rotational constants in MHz : 140713.477217 26741.849987 25863.152397

                             ****ORCA TERMINATED NORMALLY****
TOTAL RUN TIME: 0 days 0 hours 1 minutes 6 seconds 808 msec
