                         Program Version 4.1.2  - RELEASE  -
|  1> #Run DFT-D3 single point of the dimer
|  2> ! wB97X-D3 def2-TZVP TIGHTSCF CHELPG PMODEL PAL8
|  3>
|  4> %base "21-52_DFT_AB"
|  5>
|  6> %scf
|  7> MaxIter 1000
|  8> end
|  9>
| 10> * xyz 0 1
| 11>   C                      10.424689            7.607292             11.237565
| 12>   O                      8.987239             7.684693             11.242529
| 13>   H                      8.522733             6.897502             11.639982
| 14>   H                      10.849357            6.670310             10.831125
| 15>   H                      10.787197            8.526686             10.749590
| 16>   H                      10.760765            7.762584             12.219175
| 17>   C                      7.357222             8.664610             8.577842
| 18>   O                      8.341344             9.438455             9.221275
| 19>   H                      8.396129             9.071464             10.092115
| 20>   H                      6.369099             8.655715             9.058863
| 21>   H                      7.276630             9.035649             7.549141
| 22>   H                      7.770740             7.686025             8.453285
| 23> *
| 24>
| 25> #Run DFT-D3 single point of the molecule with dimer basis set
| 26> $new_job
| 27> %base "21-52_DFT_A"
| 28> ! wB97X-D3 def2-TZVP TIGHTSCF CHELPG PMODEL
| 29>
| 30> %scf
| 31> MaxIter 1000
| 32> end
| 33>
| 34> * xyz 0 1
| 35>   C                      10.424689            7.607292             11.237565
| 36>   O                      8.987239             7.684693             11.242529
| 37>   H                      8.522733             6.897502             11.639982
| 38>   H                      10.849357            6.670310             10.831125
| 39>   H                      10.787197            8.526686             10.749590
| 40>   H                      10.760765            7.762584             12.219175
| 41>   C                    : 7.357222             8.664610             8.577842
| 42>   O                    : 8.341344             9.438455             9.221275
| 43>   H                    : 8.396129             9.071464             10.092115
| 44>   H                    : 6.369099             8.655715             9.058863
| 45>   H                    : 7.276630             9.035649             7.549141
| 46>   H                    : 7.770740             7.686025             8.453285
| 47> *
| 48>
| 49> #Run DFT-D3 single point of the particle with dimer basis set
| 50> $new_job
| 51> %base "21-52_DFT_B"
| 52> ! wB97X-D3 def2-TZVP TIGHTSCF CHELPG PMODEL
| 53>
| 54> %scf
| 55> MaxIter 1000
| 56> end
| 57>
| 58> * xyz 0 1
| 59>   C                    : 10.424689            7.607292             11.237565
| 60>   O                    : 8.987239             7.684693             11.242529
| 61>   H                    : 8.522733             6.897502             11.639982
| 62>   H                    : 10.849357            6.670310             10.831125
| 63>   H                    : 10.787197            8.526686             10.749590
| 64>   H                    : 10.760765            7.762584             12.219175
| 65>   C                      7.357222             8.664610             8.577842
| 66>   O                      8.341344             9.438455             9.221275
| 67>   H                      8.396129             9.071464             10.092115
| 68>   H                      6.369099             8.655715             9.058863
| 69>   H                      7.276630             9.035649             7.549141
| 70>   H                      7.770740             7.686025             8.453285
| 71> *
| 72>
| 73>                          ****END OF INPUT****
 Total Charge           Charge          ....    0
 Multiplicity           Mult            ....    1
 Number of Electrons    NEL             ....   36
Dispersion correction           -0.002003228
FINAL SINGLE POINT ENERGY      -231.472701757412
Dispersion correction           -0.000269676
FINAL SINGLE POINT ENERGY      -115.730100407826

CARTESIAN COORDINATES (ANGSTROEM)
---------------------------------
  C     10.424689    7.607292   11.237565
  O      8.987239    7.684693   11.242529
  H      8.522733    6.897502   11.639982
  H     10.849357    6.670310   10.831125
  H     10.787197    8.526686   10.749590
  H     10.760765    7.762584   12.219175
  C      7.357222    8.664610    8.577842
  O      8.341344    9.438455    9.221275
  H      8.396129    9.071464   10.092115
  H      6.369099    8.655715    9.058863
  H      7.276630    9.035649    7.549141
  H      7.770740    7.686025    8.453285

 Multiplicity           Mult            ....    1
 Number of Electrons    NEL             ....   18
 Basis Dimension        Dim             ....  172

ORBITAL ENERGIES
----------------

  NO   OCC          E(Eh)            E(eV)
   0   2.0000     -19.230027      -523.2756
   1   2.0000     -10.309877      -280.5460
   2   2.0000      -1.143746       -31.1229
   3   2.0000      -0.795870       -21.6567
   4   2.0000      -0.611312       -16.6347
   5   2.0000      -0.551426       -15.0051
   6   2.0000      -0.525344       -14.2953
   7   2.0000      -0.436170       -11.8688
   8   2.0000      -0.375487       -10.2175
   9   0.0000       0.073250         1.9932
  10   0.0000       0.134977         3.6729
  11   0.0000       0.157580         4.2880
  12   0.0000       0.167851         4.5675
  13   0.0000       0.184653         5.0247

MULLIKEN ATOMIC CHARGES
-----------------------
   0 C :   -0.004301
   1 O :   -0.005449
   2 H :   -0.000106
   3 H :    0.000411
   4 H :   -0.002933
   5 H :   -0.000100
   6 C :   -0.176345
   7 O :   -0.455314
   8 H :    0.312098
   9 H :    0.107079
  10 H :    0.118160
  11 H :    0.106798
Sum of atomic charges:    0.0000000

LOEWDIN ATOMIC CHARGES
----------------------
   0 C :   -0.007849
   1 O :   -0.023056
   2 H :   -0.000974
   3 H :   -0.000096
   4 H :   -0.002950
   5 H :   -0.000143
   6 C :   -0.388706
   7 O :   -0.047515
   8 H :    0.170801
   9 H :    0.096988
  10 H :    0.111077
  11 H :    0.092422

  Mayer bond orders larger than 0.1
B(  6-C ,  7-O ) :   1.0012 B(  6-C ,  9-H ) :   0.9727 B(  6-C , 10-H ) :   0.9755
B(  6-C , 11-H ) :   0.9811 B(  7-O ,  8-H ) :   0.9076

Dispersion correction           -0.000220037
FINAL SINGLE POINT ENERGY      -115.734809659742

DIPOLE MOMENT
-------------
                                X             Y             Z
Electronic contribution:      1.17785       1.08541       0.77432
Nuclear contribution   :     -1.52223      -1.61607      -0.51071
                        -----------------------------------------
Total Dipole Moment    :     -0.34437      -0.53066       0.26361
                        -----------------------------------------
Magnitude (a.u.)       :      0.68534
Magnitude (Debye)      :      1.74199

Rotational constants in cm-1:     4.290532     0.846635     0.817578
Rotational constants in MHz : 128626.902623 25381.469263 24510.369402

                             ****ORCA TERMINATED NORMALLY****
TOTAL RUN TIME: 0 days 0 hours 1 minutes 6 seconds 552 msec
