                         Program Version 4.1.2  - RELEASE  -
|  1> #Run DFT-D3 single point of the dimer
|  2> ! wB97X-D3 def2-TZVP TIGHTSCF CHELPG PMODEL PAL8
|  3>
|  4> %base "17-198_DFT_AB"
|  5>
|  6> %scf
|  7> MaxIter 1000
|  8> end
|  9>
| 10> * xyz 0 1
| 11>   C                      -1.627934            6.266983             -5.420462
| 12>   O                      -2.389891            5.130978             -5.209662
| 13>   H                      -3.228653            5.374556             -5.691346
| 14>   H                      -0.709581            6.221348             -4.813212
| 15>   H                      -1.362621            6.499080             -6.477642
| 16>   H                      -2.295527            7.046350             -5.054601
| 17>   C                      -6.293331            5.922444             -6.337270
| 18>   O                      -5.239159            5.976326             -5.451876
| 19>   H                      -5.602778            6.388008             -4.641175
| 20>   H                      -5.932133            5.994813             -7.388418
| 21>   H                      -6.916755            4.990908             -6.234256
| 22>   H                      -6.929012            6.738098             -6.146326
| 23> *
| 24>
| 25> #Run DFT-D3 single point of the molecule with dimer basis set
| 26> $new_job
| 27> %base "17-198_DFT_A"
| 28> ! wB97X-D3 def2-TZVP TIGHTSCF CHELPG PMODEL
| 29>
| 30> %scf
| 31> MaxIter 1000
| 32> end
| 33>
| 34> * xyz 0 1
| 35>   C                      -1.627934            6.266983             -5.420462
| 36>   O                      -2.389891            5.130978             -5.209662
| 37>   H                      -3.228653            5.374556             -5.691346
| 38>   H                      -0.709581            6.221348             -4.813212
| 39>   H                      -1.362621            6.499080             -6.477642
| 40>   H                      -2.295527            7.046350             -5.054601
| 41>   C                    : -6.293331            5.922444             -6.337270
| 42>   O                    : -5.239159            5.976326             -5.451876
| 43>   H                    : -5.602778            6.388008             -4.641175
| 44>   H                    : -5.932133            5.994813             -7.388418
| 45>   H                    : -6.916755            4.990908             -6.234256
| 46>   H                    : -6.929012            6.738098             -6.146326
| 47> *
| 48>
| 49> #Run DFT-D3 single point of the particle with dimer basis set
| 50> $new_job
| 51> %base "17-198_DFT_B"
| 52> ! wB97X-D3 def2-TZVP TIGHTSCF CHELPG PMODEL
| 53>
| 54> %scf
| 55> MaxIter 1000
| 56> end
| 57>
| 58> * xyz 0 1
| 59>   C                    : -1.627934            6.266983             -5.420462
| 60>   O                    : -2.389891            5.130978             -5.209662
| 61>   H                    : -3.228653            5.374556             -5.691346
| 62>   H                    : -0.709581            6.221348             -4.813212
| 63>   H                    : -1.362621            6.499080             -6.477642
| 64>   H                    : -2.295527            7.046350             -5.054601
| 65>   C                      -6.293331            5.922444             -6.337270
| 66>   O                      -5.239159            5.976326             -5.451876
| 67>   H                      -5.602778            6.388008             -4.641175
| 68>   H                      -5.932133            5.994813             -7.388418
| 69>   H                      -6.916755            4.990908             -6.234256
| 70>   H                      -6.929012            6.738098             -6.146326
| 71> *
| 72>
| 73>                          ****END OF INPUT****
 Total Charge           Charge          ....    0
 Multiplicity           Mult            ....    1
 Number of Electrons    NEL             ....   36
Dispersion correction           -0.001545311
FINAL SINGLE POINT ENERGY      -231.468123580684
Dispersion correction           -0.000204709
FINAL SINGLE POINT ENERGY      -115.728625459559

CARTESIAN COORDINATES (ANGSTROEM)
---------------------------------
  C     -1.627934    6.266983   -5.420462
  O     -2.389891    5.130978   -5.209662
  H     -3.228653    5.374556   -5.691346
  H     -0.709581    6.221348   -4.813212
  H     -1.362621    6.499080   -6.477642
  H     -2.295527    7.046350   -5.054601
  C     -6.293331    5.922444   -6.337270
  O     -5.239159    5.976326   -5.451876
  H     -5.602778    6.388008   -4.641175
  H     -5.932133    5.994813   -7.388418
  H     -6.916755    4.990908   -6.234256
  H     -6.929012    6.738098   -6.146326

 Multiplicity           Mult            ....    1
 Number of Electrons    NEL             ....   18
 Basis Dimension        Dim             ....  172

ORBITAL ENERGIES
----------------

  NO   OCC          E(Eh)            E(eV)
   0   2.0000     -19.233516      -523.3706
   1   2.0000     -10.310291      -280.5573
   2   2.0000      -1.147922       -31.2366
   3   2.0000      -0.789781       -21.4910
   4   2.0000      -0.620245       -16.8777
   5   2.0000      -0.542642       -14.7661
   6   2.0000      -0.532919       -14.5015
   7   2.0000      -0.433972       -11.8090
   8   2.0000      -0.371077       -10.0975
   9   0.0000       0.098635         2.6840
  10   0.0000       0.120687         3.2841
  11   0.0000       0.154033         4.1915
  12   0.0000       0.188537         5.1303
  13   0.0000       0.204539         5.5658

MULLIKEN ATOMIC CHARGES
-----------------------
   0 C :    0.004091
   1 O :    0.001653
   2 H :   -0.012091
   3 H :   -0.000183
   4 H :   -0.000377
   5 H :   -0.004977
   6 C :   -0.164346
   7 O :   -0.449478
   8 H :    0.316489
   9 H :    0.115105
  10 H :    0.090530
  11 H :    0.103583
Sum of atomic charges:   -0.0000000

LOEWDIN ATOMIC CHARGES
----------------------
   0 C :   -0.002973
   1 O :   -0.004201
   2 H :   -0.028218
   3 H :   -0.000029
   4 H :   -0.000043
   5 H :   -0.002202
   6 C :   -0.415374
   7 O :   -0.028017
   8 H :    0.186610
   9 H :    0.110255
  10 H :    0.097514
  11 H :    0.086677

  Mayer bond orders larger than 0.1
B(  6-C ,  7-O ) :   1.0047 B(  6-C ,  9-H ) :   0.9758 B(  6-C , 10-H ) :   0.9688
B(  6-C , 11-H ) :   0.9853 B(  7-O ,  8-H ) :   0.8941

Dispersion correction           -0.000223142
FINAL SINGLE POINT ENERGY      -115.732410429070

DIPOLE MOMENT
-------------
                                X             Y             Z
Electronic contribution:      1.50722       0.03857       1.07013
Nuclear contribution   :     -2.13744       0.24537      -0.88290
                        -----------------------------------------
Total Dipole Moment    :     -0.63022       0.28394       0.18724
                        -----------------------------------------
Magnitude (a.u.)       :      0.71614
Magnitude (Debye)      :      1.82029

Rotational constants in cm-1:     4.231406     0.869310     0.835906
Rotational constants in MHz : 126854.350037 26061.244588 25059.841440

                             ****ORCA TERMINATED NORMALLY****
TOTAL RUN TIME: 0 days 0 hours 1 minutes 13 seconds 118 msec
