                         Program Version 4.1.2  - RELEASE  -
|  1> #Run DFT-D3 single point of the dimer
|  2> ! wB97X-D3 def2-TZVP TIGHTSCF CHELPG PMODEL PAL8
|  3>
|  4> %base "7-50_DFT_AB"
|  5>
|  6> %scf
|  7> MaxIter 1000
|  8> end
|  9>
| 10> * xyz 0 1
| 11>   C                      -10.430630           5.965214             -6.659766
| 12>   O                      -11.506915           6.842817             -6.664926
| 13>   H                      -12.269845           6.244401             -6.518812
| 14>   H                      -10.239529           5.594698             -5.660409
| 15>   H                      -10.552653           5.211127             -7.463928
| 16>   H                      -9.466643            6.469908             -6.833632
| 17>   C                      -11.046784           2.331255             -5.862095
| 18>   O                      -11.169544           3.118881             -4.683077
| 19>   H                      -10.486534           2.817791             -4.037589
| 20>   H                      -11.031143           1.223523             -5.663630
| 21>   H                      -11.931930           2.431466             -6.449385
| 22>   H                      -10.198741           2.693609             -6.433910
| 23> *
| 24>
| 25> #Run DFT-D3 single point of the molecule with dimer basis set
| 26> $new_job
| 27> %base "7-50_DFT_A"
| 28> ! wB97X-D3 def2-TZVP TIGHTSCF CHELPG PMODEL
| 29>
| 30> %scf
| 31> MaxIter 1000
| 32> end
| 33>
| 34> * xyz 0 1
| 35>   C                      -10.430630           5.965214             -6.659766
| 36>   O                      -11.506915           6.842817             -6.664926
| 37>   H                      -12.269845           6.244401             -6.518812
| 38>   H                      -10.239529           5.594698             -5.660409
| 39>   H                      -10.552653           5.211127             -7.463928
| 40>   H                      -9.466643            6.469908             -6.833632
| 41>   C                    : -11.046784           2.331255             -5.862095
| 42>   O                    : -11.169544           3.118881             -4.683077
| 43>   H                    : -10.486534           2.817791             -4.037589
| 44>   H                    : -11.031143           1.223523             -5.663630
| 45>   H                    : -11.931930           2.431466             -6.449385
| 46>   H                    : -10.198741           2.693609             -6.433910
| 47> *
| 48>
| 49> #Run DFT-D3 single point of the particle with dimer basis set
| 50> $new_job
| 51> %base "7-50_DFT_B"
| 52> ! wB97X-D3 def2-TZVP TIGHTSCF CHELPG PMODEL
| 53>
| 54> %scf
| 55> MaxIter 1000
| 56> end
| 57>
| 58> * xyz 0 1
| 59>   C                    : -10.430630           5.965214             -6.659766
| 60>   O                    : -11.506915           6.842817             -6.664926
| 61>   H                    : -12.269845           6.244401             -6.518812
| 62>   H                    : -10.239529           5.594698             -5.660409
| 63>   H                    : -10.552653           5.211127             -7.463928
| 64>   H                    : -9.466643            6.469908             -6.833632
| 65>   C                      -11.046784           2.331255             -5.862095
| 66>   O                      -11.169544           3.118881             -4.683077
| 67>   H                      -10.486534           2.817791             -4.037589
| 68>   H                      -11.031143           1.223523             -5.663630
| 69>   H                      -11.931930           2.431466             -6.449385
| 70>   H                      -10.198741           2.693609             -6.433910
| 71> *
| 72>
| 73>                          ****END OF INPUT****
 Total Charge           Charge          ....    0
 Multiplicity           Mult            ....    1
 Number of Electrons    NEL             ....   36
Dispersion correction           -0.001884974
FINAL SINGLE POINT ENERGY      -231.467201993444
Dispersion correction           -0.000219080
FINAL SINGLE POINT ENERGY      -115.731209094907

CARTESIAN COORDINATES (ANGSTROEM)
---------------------------------
  C    -10.430630    5.965214   -6.659766
  O    -11.506915    6.842817   -6.664926
  H    -12.269845    6.244401   -6.518812
  H    -10.239529    5.594698   -5.660409
  H    -10.552653    5.211127   -7.463928
  H     -9.466643    6.469908   -6.833632
  C    -11.046784    2.331255   -5.862095
  O    -11.169544    3.118881   -4.683077
  H    -10.486534    2.817791   -4.037589
  H    -11.031143    1.223523   -5.663630
  H    -11.931930    2.431466   -6.449385
  H    -10.198741    2.693609   -6.433910

 Multiplicity           Mult            ....    1
 Number of Electrons    NEL             ....   18
 Basis Dimension        Dim             ....  172

ORBITAL ENERGIES
----------------

  NO   OCC          E(Eh)            E(eV)
   0   2.0000     -19.231977      -523.3287
   1   2.0000     -10.312614      -280.6205
   2   2.0000      -1.127904       -30.6918
   3   2.0000      -0.794806       -21.6278
   4   2.0000      -0.601182       -16.3590
   5   2.0000      -0.550001       -14.9663
   6   2.0000      -0.523357       -14.2413
   7   2.0000      -0.428500       -11.6601
   8   2.0000      -0.375129       -10.2078
   9   0.0000       0.091726         2.4960
  10   0.0000       0.124049         3.3756
  11   0.0000       0.152418         4.1475
  12   0.0000       0.167462         4.5569
  13   0.0000       0.194321         5.2878

MULLIKEN ATOMIC CHARGES
-----------------------
   0 C :    0.009104
   1 O :   -0.000225
   2 H :   -0.000705
   3 H :   -0.011944
   4 H :   -0.000940
   5 H :   -0.000010
   6 C :   -0.180875
   7 O :   -0.477749
   8 H :    0.317098
   9 H :    0.108779
  10 H :    0.123621
  11 H :    0.113846
Sum of atomic charges:   -0.0000000

LOEWDIN ATOMIC CHARGES
----------------------
   0 C :   -0.005230
   1 O :   -0.000021
   2 H :   -0.000226
   3 H :   -0.007061
   4 H :   -0.001308
   5 H :   -0.000024
   6 C :   -0.382426
   7 O :   -0.089367
   8 H :    0.183434
   9 H :    0.102951
  10 H :    0.102971
  11 H :    0.096308

  Mayer bond orders larger than 0.1
B(  6-C ,  7-O ) :   0.9919 B(  6-C ,  9-H ) :   0.9697 B(  6-C , 10-H ) :   0.9744
B(  6-C , 11-H ) :   0.9788 B(  7-O ,  8-H ) :   0.8945

Dispersion correction           -0.000249454
FINAL SINGLE POINT ENERGY      -115.734072431965

DIPOLE MOMENT
-------------
                                X             Y             Z
Electronic contribution:     -0.22713       1.08587       1.41733
Nuclear contribution   :      0.67074      -1.60003      -1.49241
                        -----------------------------------------
Total Dipole Moment    :      0.44360      -0.51416      -0.07509
                        -----------------------------------------
Magnitude (a.u.)       :      0.68321
Magnitude (Debye)      :      1.73658

Rotational constants in cm-1:     4.255283     0.816064     0.797352
Rotational constants in MHz : 127570.179351 24464.980548 23904.020314

                             ****ORCA TERMINATED NORMALLY****
TOTAL RUN TIME: 0 days 0 hours 1 minutes 12 seconds 753 msec
