                         Program Version 4.1.2  - RELEASE  -
|  1> #Run DFT-D3 single point of the dimer
|  2> ! wB97X-D3 def2-TZVP TIGHTSCF CHELPG PMODEL PAL8
|  3>
|  4> %base "6-154_DFT_AB"
|  5>
|  6> %scf
|  7> MaxIter 1000
|  8> end
|  9>
| 10> * xyz 0 1
| 11>   C                      6.703492             0.396091             5.305588
| 12>   O                      5.442587             0.726832             5.796296
| 13>   H                      4.738979             0.132312             5.362893
| 14>   H                      6.654158             0.514180             4.212192
| 15>   H                      7.419029             1.101467             5.651365
| 16>   H                      6.987095             -0.656286            5.527411
| 17>   C                      3.690297             0.549827             2.921323
| 18>   O                      2.607705             0.302662             2.086672
| 19>   H                      2.541345             1.107319             1.602346
| 20>   H                      4.694533             0.374116             2.463775
| 21>   H                      3.695042             1.642360             3.273149
| 22>   H                      3.590307             -0.085466            3.793748
| 23> *
| 24>
| 25> #Run DFT-D3 single point of the molecule with dimer basis set
| 26> $new_job
| 27> %base "6-154_DFT_A"
| 28> ! wB97X-D3 def2-TZVP TIGHTSCF CHELPG PMODEL
| 29>
| 30> %scf
| 31> MaxIter 1000
| 32> end
| 33>
| 34> * xyz 0 1
| 35>   C                      6.703492             0.396091             5.305588
| 36>   O                      5.442587             0.726832             5.796296
| 37>   H                      4.738979             0.132312             5.362893
| 38>   H                      6.654158             0.514180             4.212192
| 39>   H                      7.419029             1.101467             5.651365
| 40>   H                      6.987095             -0.656286            5.527411
| 41>   C                    : 3.690297             0.549827             2.921323
| 42>   O                    : 2.607705             0.302662             2.086672
| 43>   H                    : 2.541345             1.107319             1.602346
| 44>   H                    : 4.694533             0.374116             2.463775
| 45>   H                    : 3.695042             1.642360             3.273149
| 46>   H                    : 3.590307             -0.085466            3.793748
| 47> *
| 48>
| 49> #Run DFT-D3 single point of the particle with dimer basis set
| 50> $new_job
| 51> %base "6-154_DFT_B"
| 52> ! wB97X-D3 def2-TZVP TIGHTSCF CHELPG PMODEL
| 53>
| 54> %scf
| 55> MaxIter 1000
| 56> end
| 57>
| 58> * xyz 0 1
| 59>   C                    : 6.703492             0.396091             5.305588
| 60>   O                    : 5.442587             0.726832             5.796296
| 61>   H                    : 4.738979             0.132312             5.362893
| 62>   H                    : 6.654158             0.514180             4.212192
| 63>   H                    : 7.419029             1.101467             5.651365
| 64>   H                    : 6.987095             -0.656286            5.527411
| 65>   C                      3.690297             0.549827             2.921323
| 66>   O                      2.607705             0.302662             2.086672
| 67>   H                      2.541345             1.107319             1.602346
| 68>   H                      4.694533             0.374116             2.463775
| 69>   H                      3.695042             1.642360             3.273149
| 70>   H                      3.590307             -0.085466            3.793748
| 71> *
| 72>
| 73>                          ****END OF INPUT****
 Total Charge           Charge          ....    0
 Multiplicity           Mult            ....    1
 Number of Electrons    NEL             ....   36
Dispersion correction           -0.001896237
FINAL SINGLE POINT ENERGY      -231.465371864536
Dispersion correction           -0.000227307
FINAL SINGLE POINT ENERGY      -115.732144380590

CARTESIAN COORDINATES (ANGSTROEM)
---------------------------------
  C      6.703492    0.396091    5.305588
  O      5.442587    0.726832    5.796296
  H      4.738979    0.132312    5.362893
  H      6.654158    0.514180    4.212192
  H      7.419029    1.101467    5.651365
  H      6.987095   -0.656286    5.527411
  C      3.690297    0.549827    2.921323
  O      2.607705    0.302662    2.086672
  H      2.541345    1.107319    1.602346
  H      4.694533    0.374116    2.463775
  H      3.695042    1.642360    3.273149
  H      3.590307   -0.085466    3.793748

 Multiplicity           Mult            ....    1
 Number of Electrons    NEL             ....   18
 Basis Dimension        Dim             ....  172

ORBITAL ENERGIES
----------------

  NO   OCC          E(Eh)            E(eV)
   0   2.0000     -19.232685      -523.3480
   1   2.0000     -10.318477      -280.7800
   2   2.0000      -1.154041       -31.4030
   3   2.0000      -0.789209       -21.4755
   4   2.0000      -0.617816       -16.8116
   5   2.0000      -0.539779       -14.6881
   6   2.0000      -0.531273       -14.4567
   7   2.0000      -0.438875       -11.9424
   8   2.0000      -0.373758       -10.1705
   9   0.0000       0.086139         2.3440
  10   0.0000       0.114671         3.1204
  11   0.0000       0.155992         4.2448
  12   0.0000       0.172738         4.7004
  13   0.0000       0.181810         4.9473

MULLIKEN ATOMIC CHARGES
-----------------------
   0 C :    0.000252
   1 O :    0.000377
   2 H :   -0.003027
   3 H :   -0.000750
   4 H :   -0.000027
   5 H :    0.000007
   6 C :   -0.177659
   7 O :   -0.449062
   8 H :    0.313904
   9 H :    0.097718
  10 H :    0.092288
  11 H :    0.125980
Sum of atomic charges:   -0.0000000

LOEWDIN ATOMIC CHARGES
----------------------
   0 C :   -0.001912
   1 O :   -0.001522
   2 H :   -0.012911
   3 H :   -0.002474
   4 H :   -0.000005
   5 H :   -0.000013
   6 C :   -0.409873
   7 O :   -0.045651
   8 H :    0.163126
   9 H :    0.097572
  10 H :    0.103064
  11 H :    0.110599

  Mayer bond orders larger than 0.1
B(  6-C ,  7-O ) :   1.0121 B(  6-C ,  9-H ) :   0.9618 B(  6-C , 10-H ) :   0.9849
B(  6-C , 11-H ) :   0.9729 B(  7-O ,  8-H ) :   0.9057

Dispersion correction           -0.000230090
FINAL SINGLE POINT ENERGY      -115.732891942111

DIPOLE MOMENT
-------------
                                X             Y             Z
Electronic contribution:     -1.49331      -0.56239      -1.10053
Nuclear contribution   :      1.82383       1.14901       1.10509
                        -----------------------------------------
Total Dipole Moment    :      0.33053       0.58662       0.00457
                        -----------------------------------------
Magnitude (a.u.)       :      0.67335
Magnitude (Debye)      :      1.71151

Rotational constants in cm-1:     4.158209     0.858206     0.824138
Rotational constants in MHz : 124659.976847 25728.371183 24707.048134

                             ****ORCA TERMINATED NORMALLY****
TOTAL RUN TIME: 0 days 0 hours 1 minutes 2 seconds 662 msec
