                         Program Version 4.1.2  - RELEASE  -
|  1> #Run DFT-D3 single point of the dimer
|  2> ! wB97X-D3 def2-TZVP TIGHTSCF CHELPG PMODEL PAL8
|  3>
|  4> %base "17-111_DFT_AB"
|  5>
|  6> %scf
|  7> MaxIter 1000
|  8> end
|  9>
| 10> * xyz 0 1
| 11>   C                      -9.154546            1.934879             -6.663609
| 12>   O                      -7.723137            1.838977             -6.525834
| 13>   H                      -7.325439            2.560128             -6.967846
| 14>   H                      -9.538992            1.800190             -7.658600
| 15>   H                      -9.758094            1.485448             -5.888381
| 16>   H                      -9.552824            2.964969             -6.674743
| 17>   C                      -7.895082            -0.450816            -3.438418
| 18>   O                      -6.790914            -1.236352            -2.968042
| 19>   H                      -6.962837            -1.616194            -2.049960
| 20>   H                      -8.781143            -1.121909            -3.639668
| 21>   H                      -8.113031            0.359831             -2.751344
| 22>   H                      -7.681932            -0.008726            -4.411791
| 23> *
| 24>
| 25> #Run DFT-D3 single point of the molecule with dimer basis set
| 26> $new_job
| 27> %base "17-111_DFT_A"
| 28> ! wB97X-D3 def2-TZVP TIGHTSCF CHELPG PMODEL
| 29>
| 30> %scf
| 31> MaxIter 1000
| 32> end
| 33>
| 34> * xyz 0 1
| 35>   C                      -9.154546            1.934879             -6.663609
| 36>   O                      -7.723137            1.838977             -6.525834
| 37>   H                      -7.325439            2.560128             -6.967846
| 38>   H                      -9.538992            1.800190             -7.658600
| 39>   H                      -9.758094            1.485448             -5.888381
| 40>   H                      -9.552824            2.964969             -6.674743
| 41>   C                    : -7.895082            -0.450816            -3.438418
| 42>   O                    : -6.790914            -1.236352            -2.968042
| 43>   H                    : -6.962837            -1.616194            -2.049960
| 44>   H                    : -8.781143            -1.121909            -3.639668
| 45>   H                    : -8.113031            0.359831             -2.751344
| 46>   H                    : -7.681932            -0.008726            -4.411791
| 47> *
| 48>
| 49> #Run DFT-D3 single point of the particle with dimer basis set
| 50> $new_job
| 51> %base "17-111_DFT_B"
| 52> ! wB97X-D3 def2-TZVP TIGHTSCF CHELPG PMODEL
| 53>
| 54> %scf
| 55> MaxIter 1000
| 56> end
| 57>
| 58> * xyz 0 1
| 59>   C                    : -9.154546            1.934879             -6.663609
| 60>   O                    : -7.723137            1.838977             -6.525834
| 61>   H                    : -7.325439            2.560128             -6.967846
| 62>   H                    : -9.538992            1.800190             -7.658600
| 63>   H                    : -9.758094            1.485448             -5.888381
| 64>   H                    : -9.552824            2.964969             -6.674743
| 65>   C                      -7.895082            -0.450816            -3.438418
| 66>   O                      -6.790914            -1.236352            -2.968042
| 67>   H                      -6.962837            -1.616194            -2.049960
| 68>   H                      -8.781143            -1.121909            -3.639668
| 69>   H                      -8.113031            0.359831             -2.751344
| 70>   H                      -7.681932            -0.008726            -4.411791
| 71> *
| 72>
| 73>                          ****END OF INPUT****
 Total Charge           Charge          ....    0
 Multiplicity           Mult            ....    1
 Number of Electrons    NEL             ....   36
Dispersion correction           -0.001423730
FINAL SINGLE POINT ENERGY      -231.454163321924
Dispersion correction           -0.000271072
FINAL SINGLE POINT ENERGY      -115.720681474184

CARTESIAN COORDINATES (ANGSTROEM)
---------------------------------
  C     -9.154546    1.934879   -6.663609
  O     -7.723137    1.838977   -6.525834
  H     -7.325439    2.560128   -6.967846
  H     -9.538992    1.800190   -7.658600
  H     -9.758094    1.485448   -5.888381
  H     -9.552824    2.964969   -6.674743
  C     -7.895082   -0.450816   -3.438418
  O     -6.790914   -1.236352   -2.968042
  H     -6.962837   -1.616194   -2.049960
  H     -8.781143   -1.121909   -3.639668
  H     -8.113031    0.359831   -2.751344
  H     -7.681932   -0.008726   -4.411791

 Multiplicity           Mult            ....    1
 Number of Electrons    NEL             ....   18
 Basis Dimension        Dim             ....  172

ORBITAL ENERGIES
----------------

  NO   OCC          E(Eh)            E(eV)
   0   2.0000     -19.231413      -523.3134
   1   2.0000     -10.317153      -280.7440
   2   2.0000      -1.117926       -30.4203
   3   2.0000      -0.792093       -21.5539
   4   2.0000      -0.597263       -16.2524
   5   2.0000      -0.542333       -14.7576
   6   2.0000      -0.524856       -14.2821
   7   2.0000      -0.423807       -11.5324
   8   2.0000      -0.372310       -10.1311
   9   0.0000       0.082749         2.2517
  10   0.0000       0.110741         3.0134
  11   0.0000       0.146181         3.9778
  12   0.0000       0.159867         4.3502
  13   0.0000       0.197236         5.3671

MULLIKEN ATOMIC CHARGES
-----------------------
   0 C :   -0.001054
   1 O :    0.000285
   2 H :   -0.000015
   3 H :    0.000014
   4 H :    0.000651
   5 H :    0.000020
   6 C :   -0.155628
   7 O :   -0.494463
   8 H :    0.320384
   9 H :    0.100011
  10 H :    0.108483
  11 H :    0.121310
Sum of atomic charges:    0.0000000

LOEWDIN ATOMIC CHARGES
----------------------
   0 C :   -0.002055
   1 O :   -0.002005
   2 H :   -0.000117
   3 H :   -0.000021
   4 H :   -0.000512
   5 H :   -0.000020
   6 C :   -0.375182
   7 O :   -0.118377
   8 H :    0.193194
   9 H :    0.102265
  10 H :    0.094181
  11 H :    0.108650

  Mayer bond orders larger than 0.1
B(  6-C ,  7-O ) :   1.0022 B(  6-C ,  9-H ) :   0.9768 B(  6-C , 10-H ) :   0.9751
B(  6-C , 11-H ) :   0.9725 B(  7-O ,  8-H ) :   0.8875

Dispersion correction           -0.000265219
FINAL SINGLE POINT ENERGY      -115.732144949951

DIPOLE MOMENT
-------------
                                X             Y             Z
Electronic contribution:      1.47463      -0.88393       0.50515
Nuclear contribution   :     -2.02687       0.98764      -0.13946
                        -----------------------------------------
Total Dipole Moment    :     -0.55223       0.10371       0.36569
                        -----------------------------------------
Magnitude (a.u.)       :      0.67041
Magnitude (Debye)      :      1.70404

Rotational constants in cm-1:     4.215488     0.799062     0.778904
Rotational constants in MHz : 126377.164935 23955.266502 23350.940537

                             ****ORCA TERMINATED NORMALLY****
TOTAL RUN TIME: 0 days 0 hours 0 minutes 56 seconds 945 msec
