                         Program Version 4.1.2  - RELEASE  -
|  1> #Run DFT-D3 single point of the dimer
|  2> ! wB97X-D3 def2-TZVP TIGHTSCF CHELPG PMODEL PAL8
|  3>
|  4> %base "17-220_DFT_AB"
|  5>
|  6> %scf
|  7> MaxIter 1000
|  8> end
|  9>
| 10> * xyz 0 1
| 11>   C                      -5.627778            -3.957055            4.148896
| 12>   O                      -6.325654            -5.194564            4.234933
| 13>   H                      -5.814133            -5.921400            3.824445
| 14>   H                      -6.307646            -3.150269            3.922174
| 15>   H                      -5.121940            -3.690074            5.074566
| 16>   H                      -4.861529            -3.989166            3.367635
| 17>   C                      -3.749185            -7.848351            3.078356
| 18>   O                      -4.511481            -6.721111            2.698312
| 19>   H                      -3.907890            -6.153858            2.288518
| 20>   H                      -3.562290            -8.428705            2.199386
| 21>   H                      -2.723904            -7.600508            3.380247
| 22>   H                      -4.218293            -8.534431            3.749338
| 23> *
| 24>
| 25> #Run DFT-D3 single point of the molecule with dimer basis set
| 26> $new_job
| 27> %base "17-220_DFT_A"
| 28> ! wB97X-D3 def2-TZVP TIGHTSCF CHELPG PMODEL
| 29>
| 30> %scf
| 31> MaxIter 1000
| 32> end
| 33>
| 34> * xyz 0 1
| 35>   C                      -5.627778            -3.957055            4.148896
| 36>   O                      -6.325654            -5.194564            4.234933
| 37>   H                      -5.814133            -5.921400            3.824445
| 38>   H                      -6.307646            -3.150269            3.922174
| 39>   H                      -5.121940            -3.690074            5.074566
| 40>   H                      -4.861529            -3.989166            3.367635
| 41>   C                    : -3.749185            -7.848351            3.078356
| 42>   O                    : -4.511481            -6.721111            2.698312
| 43>   H                    : -3.907890            -6.153858            2.288518
| 44>   H                    : -3.562290            -8.428705            2.199386
| 45>   H                    : -2.723904            -7.600508            3.380247
| 46>   H                    : -4.218293            -8.534431            3.749338
| 47> *
| 48>
| 49> #Run DFT-D3 single point of the particle with dimer basis set
| 50> $new_job
| 51> %base "17-220_DFT_B"
| 52> ! wB97X-D3 def2-TZVP TIGHTSCF CHELPG PMODEL
| 53>
| 54> %scf
| 55> MaxIter 1000
| 56> end
| 57>
| 58> * xyz 0 1
| 59>   C                    : -5.627778            -3.957055            4.148896
| 60>   O                    : -6.325654            -5.194564            4.234933
| 61>   H                    : -5.814133            -5.921400            3.824445
| 62>   H                    : -6.307646            -3.150269            3.922174
| 63>   H                    : -5.121940            -3.690074            5.074566
| 64>   H                    : -4.861529            -3.989166            3.367635
| 65>   C                      -3.749185            -7.848351            3.078356
| 66>   O                      -4.511481            -6.721111            2.698312
| 67>   H                      -3.907890            -6.153858            2.288518
| 68>   H                      -3.562290            -8.428705            2.199386
| 69>   H                      -2.723904            -7.600508            3.380247
| 70>   H                      -4.218293            -8.534431            3.749338
| 71> *
| 72>
| 73>                          ****END OF INPUT****
 Total Charge           Charge          ....    0
 Multiplicity           Mult            ....    1
 Number of Electrons    NEL             ....   36
Dispersion correction           -0.001814059
FINAL SINGLE POINT ENERGY      -231.473072700081
Dispersion correction           -0.000257608
FINAL SINGLE POINT ENERGY      -115.735468956256

CARTESIAN COORDINATES (ANGSTROEM)
---------------------------------
  C     -5.627778   -3.957055    4.148896
  O     -6.325654   -5.194564    4.234933
  H     -5.814133   -5.921400    3.824445
  H     -6.307646   -3.150269    3.922174
  H     -5.121940   -3.690074    5.074566
  H     -4.861529   -3.989166    3.367635
  C     -3.749185   -7.848351    3.078356
  O     -4.511481   -6.721111    2.698312
  H     -3.907890   -6.153858    2.288518
  H     -3.562290   -8.428705    2.199386
  H     -2.723904   -7.600508    3.380247
  H     -4.218293   -8.534431    3.749338

 Multiplicity           Mult            ....    1
 Number of Electrons    NEL             ....   18
 Basis Dimension        Dim             ....  172

ORBITAL ENERGIES
----------------

  NO   OCC          E(Eh)            E(eV)
   0   2.0000     -19.229506      -523.2614
   1   2.0000     -10.309357      -280.5319
   2   2.0000      -1.147346       -31.2209
   3   2.0000      -0.803472       -21.8636
   4   2.0000      -0.619460       -16.8564
   5   2.0000      -0.539722       -14.6866
   6   2.0000      -0.534454       -14.5432
   7   2.0000      -0.445232       -12.1154
   8   2.0000      -0.370823       -10.0906
   9   0.0000       0.097293         2.6475
  10   0.0000       0.128231         3.4894
  11   0.0000       0.156634         4.2622
  12   0.0000       0.183746         5.0000
  13   0.0000       0.204523         5.5654

MULLIKEN ATOMIC CHARGES
-----------------------
   0 C :    0.000742
   1 O :    0.000633
   2 H :   -0.007019
   3 H :   -0.000763
   4 H :    0.000054
   5 H :   -0.006800
   6 C :   -0.172261
   7 O :   -0.454383
   8 H :    0.308549
   9 H :    0.104283
  10 H :    0.099803
  11 H :    0.127164
Sum of atomic charges:    0.0000000

LOEWDIN ATOMIC CHARGES
----------------------
   0 C :   -0.007860
   1 O :   -0.006361
   2 H :   -0.045111
   3 H :   -0.000153
   4 H :   -0.000130
   5 H :   -0.004010
   6 C :   -0.377103
   7 O :   -0.004108
   8 H :    0.150211
   9 H :    0.093571
  10 H :    0.097153
  11 H :    0.103901

  Mayer bond orders larger than 0.1
B(  6-C ,  7-O ) :   0.9839 B(  6-C ,  9-H ) :   0.9795 B(  6-C , 10-H ) :   0.9787
B(  6-C , 11-H ) :   0.9757 B(  7-O ,  8-H ) :   0.9055

Dispersion correction           -0.000221274
FINAL SINGLE POINT ENERGY      -115.730054703444

DIPOLE MOMENT
-------------
                                X             Y             Z
Electronic contribution:     -1.20489       1.43394      -0.27069
Nuclear contribution   :      1.90170      -1.54984       0.13888
                        -----------------------------------------
Total Dipole Moment    :      0.69682      -0.11590      -0.13181
                        -----------------------------------------
Magnitude (a.u.)       :      0.71858
Magnitude (Debye)      :      1.82649

Rotational constants in cm-1:     4.526694     0.840385     0.799788
Rotational constants in MHz : 135706.862917 25194.107318 23977.041662

                             ****ORCA TERMINATED NORMALLY****
TOTAL RUN TIME: 0 days 0 hours 1 minutes 7 seconds 26 msec
