                         Program Version 4.1.2  - RELEASE  -
|  1> #Run DFT-D3 single point of the dimer
|  2> ! wB97X-D3 def2-TZVP TIGHTSCF CHELPG PMODEL PAL8
|  3>
|  4> %base "21-56_DFT_AB"
|  5>
|  6> %scf
|  7> MaxIter 1000
|  8> end
|  9>
| 10> * xyz 0 1
| 11>   C                      -5.021241            -8.045832            2.494545
| 12>   O                      -5.989247            -7.308026            3.203133
| 13>   H                      -6.772489            -7.218520            2.640288
| 14>   H                      -4.100609            -8.060883            3.101031
| 15>   H                      -5.262900            -9.056602            2.291049
| 16>   H                      -4.833772            -7.685138            1.454732
| 17>   C                      -6.433659            -7.688560            -2.264360
| 18>   O                      -7.821233            -7.958168            -2.522958
| 19>   H                      -8.350406            -7.525737            -1.852029
| 20>   H                      -5.984123            -8.200384            -1.403321
| 21>   H                      -5.834364            -7.884514            -3.193238
| 22>   H                      -6.276113            -6.608584            -2.092495
| 23> *
| 24>
| 25> #Run DFT-D3 single point of the molecule with dimer basis set
| 26> $new_job
| 27> %base "21-56_DFT_A"
| 28> ! wB97X-D3 def2-TZVP TIGHTSCF CHELPG PMODEL
| 29>
| 30> %scf
| 31> MaxIter 1000
| 32> end
| 33>
| 34> * xyz 0 1
| 35>   C                      -5.021241            -8.045832            2.494545
| 36>   O                      -5.989247            -7.308026            3.203133
| 37>   H                      -6.772489            -7.218520            2.640288
| 38>   H                      -4.100609            -8.060883            3.101031
| 39>   H                      -5.262900            -9.056602            2.291049
| 40>   H                      -4.833772            -7.685138            1.454732
| 41>   C                    : -6.433659            -7.688560            -2.264360
| 42>   O                    : -7.821233            -7.958168            -2.522958
| 43>   H                    : -8.350406            -7.525737            -1.852029
| 44>   H                    : -5.984123            -8.200384            -1.403321
| 45>   H                    : -5.834364            -7.884514            -3.193238
| 46>   H                    : -6.276113            -6.608584            -2.092495
| 47> *
| 48>
| 49> #Run DFT-D3 single point of the particle with dimer basis set
| 50> $new_job
| 51> %base "21-56_DFT_B"
| 52> ! wB97X-D3 def2-TZVP TIGHTSCF CHELPG PMODEL
| 53>
| 54> %scf
| 55> MaxIter 1000
| 56> end
| 57>
| 58> * xyz 0 1
| 59>   C                    : -5.021241            -8.045832            2.494545
| 60>   O                    : -5.989247            -7.308026            3.203133
| 61>   H                    : -6.772489            -7.218520            2.640288
| 62>   H                    : -4.100609            -8.060883            3.101031
| 63>   H                    : -5.262900            -9.056602            2.291049
| 64>   H                    : -4.833772            -7.685138            1.454732
| 65>   C                      -6.433659            -7.688560            -2.264360
| 66>   O                      -7.821233            -7.958168            -2.522958
| 67>   H                      -8.350406            -7.525737            -1.852029
| 68>   H                      -5.984123            -8.200384            -1.403321
| 69>   H                      -5.834364            -7.884514            -3.193238
| 70>   H                      -6.276113            -6.608584            -2.092495
| 71> *
| 72>
| 73>                          ****END OF INPUT****
 Total Charge           Charge          ....    0
 Multiplicity           Mult            ....    1
 Number of Electrons    NEL             ....   36
Dispersion correction           -0.000931525
FINAL SINGLE POINT ENERGY      -231.467902737705
Dispersion correction           -0.000248837
FINAL SINGLE POINT ENERGY      -115.733466029217

CARTESIAN COORDINATES (ANGSTROEM)
---------------------------------
  C     -5.021241   -8.045832    2.494545
  O     -5.989247   -7.308026    3.203133
  H     -6.772489   -7.218520    2.640288
  H     -4.100609   -8.060883    3.101031
  H     -5.262900   -9.056602    2.291049
  H     -4.833772   -7.685138    1.454732
  C     -6.433659   -7.688560   -2.264360
  O     -7.821233   -7.958168   -2.522958
  H     -8.350406   -7.525737   -1.852029
  H     -5.984123   -8.200384   -1.403321
  H     -5.834364   -7.884514   -3.193238
  H     -6.276113   -6.608584   -2.092495

 Multiplicity           Mult            ....    1
 Number of Electrons    NEL             ....   18
 Basis Dimension        Dim             ....  172

ORBITAL ENERGIES
----------------

  NO   OCC          E(Eh)            E(eV)
   0   2.0000     -19.231854      -523.3253
   1   2.0000     -10.319792      -280.8158
   2   2.0000      -1.130057       -30.7504
   3   2.0000      -0.794549       -21.6208
   4   2.0000      -0.609021       -16.5723
   5   2.0000      -0.537469       -14.6253
   6   2.0000      -0.520145       -14.1539
   7   2.0000      -0.432459       -11.7678
   8   2.0000      -0.376517       -10.2456
   9   0.0000       0.078599         2.1388
  10   0.0000       0.118256         3.2179
  11   0.0000       0.145446         3.9578
  12   0.0000       0.162619         4.4251
  13   0.0000       0.183279         4.9873

MULLIKEN ATOMIC CHARGES
-----------------------
   0 C :    0.000596
   1 O :   -0.000014
   2 H :   -0.000014
   3 H :   -0.000010
   4 H :   -0.000141
   5 H :   -0.000965
   6 C :   -0.175204
   7 O :   -0.475177
   8 H :    0.314781
   9 H :    0.108650
  10 H :    0.122970
  11 H :    0.104529
Sum of atomic charges:    0.0000000

LOEWDIN ATOMIC CHARGES
----------------------
   0 C :   -0.000325
   1 O :   -0.000003
   2 H :   -0.000007
   3 H :   -0.000001
   4 H :   -0.000052
   5 H :   -0.000747
   6 C :   -0.379102
   7 O :   -0.091526
   8 H :    0.165033
   9 H :    0.094575
  10 H :    0.115310
  11 H :    0.096846

  Mayer bond orders larger than 0.1
B(  6-C ,  7-O ) :   1.0012 B(  6-C ,  9-H ) :   0.9653 B(  6-C , 10-H ) :   0.9719
B(  6-C , 11-H ) :   0.9809 B(  7-O ,  8-H ) :   0.8995

Dispersion correction           -0.000267510
FINAL SINGLE POINT ENERGY      -115.734450420800

DIPOLE MOMENT
-------------
                                X             Y             Z
Electronic contribution:     -1.77995      -0.53390      -0.38135
Nuclear contribution   :      2.00747       0.94172       0.90587
                        -----------------------------------------
Total Dipole Moment    :      0.22752       0.40782       0.52453
                        -----------------------------------------
Magnitude (a.u.)       :      0.70229
Magnitude (Debye)      :      1.78508

Rotational constants in cm-1:     4.286110     0.799936     0.772656
Rotational constants in MHz : 128494.355254 23981.466540 23163.647323

                             ****ORCA TERMINATED NORMALLY****
TOTAL RUN TIME: 0 days 0 hours 1 minutes 4 seconds 304 msec
