                         Program Version 4.1.2  - RELEASE  -
|  1> #Run DFT-D3 single point of the dimer
|  2> ! wB97X-D3 def2-TZVP TIGHTSCF CHELPG PMODEL PAL8
|  3>
|  4> %base "18-124_DFT_AB"
|  5>
|  6> %scf
|  7> MaxIter 1000
|  8> end
|  9>
| 10> * xyz 0 1
| 11>   C                      -2.094311            2.283453             2.567803
| 12>   O                      -2.206315            1.869918             1.194003
| 13>   H                      -3.161988            1.826491             1.108694
| 14>   H                      -2.770650            1.809254             3.256604
| 15>   H                      -1.121342            2.272797             2.978147
| 16>   H                      -2.354916            3.318122             2.580382
| 17>   C                      -2.769662            -2.607001            -1.720003
| 18>   O                      -3.415459            -1.368921            -1.945144
| 19>   H                      -3.397194            -1.181797            -2.930573
| 20>   H                      -1.645633            -2.601264            -1.937558
| 21>   H                      -2.958031            -2.867113            -0.615470
| 22>   H                      -3.102810            -3.427437            -2.374166
| 23> *
| 24>
| 25> #Run DFT-D3 single point of the molecule with dimer basis set
| 26> $new_job
| 27> %base "18-124_DFT_A"
| 28> ! wB97X-D3 def2-TZVP TIGHTSCF CHELPG PMODEL
| 29>
| 30> %scf
| 31> MaxIter 1000
| 32> end
| 33>
| 34> * xyz 0 1
| 35>   C                      -2.094311            2.283453             2.567803
| 36>   O                      -2.206315            1.869918             1.194003
| 37>   H                      -3.161988            1.826491             1.108694
| 38>   H                      -2.770650            1.809254             3.256604
| 39>   H                      -1.121342            2.272797             2.978147
| 40>   H                      -2.354916            3.318122             2.580382
| 41>   C                    : -2.769662            -2.607001            -1.720003
| 42>   O                    : -3.415459            -1.368921            -1.945144
| 43>   H                    : -3.397194            -1.181797            -2.930573
| 44>   H                    : -1.645633            -2.601264            -1.937558
| 45>   H                    : -2.958031            -2.867113            -0.615470
| 46>   H                    : -3.102810            -3.427437            -2.374166
| 47> *
| 48>
| 49> #Run DFT-D3 single point of the particle with dimer basis set
| 50> $new_job
| 51> %base "18-124_DFT_B"
| 52> ! wB97X-D3 def2-TZVP TIGHTSCF CHELPG PMODEL
| 53>
| 54> %scf
| 55> MaxIter 1000
| 56> end
| 57>
| 58> * xyz 0 1
| 59>   C                    : -2.094311            2.283453             2.567803
| 60>   O                    : -2.206315            1.869918             1.194003
| 61>   H                    : -3.161988            1.826491             1.108694
| 62>   H                    : -2.770650            1.809254             3.256604
| 63>   H                    : -1.121342            2.272797             2.978147
| 64>   H                    : -2.354916            3.318122             2.580382
| 65>   C                      -2.769662            -2.607001            -1.720003
| 66>   O                      -3.415459            -1.368921            -1.945144
| 67>   H                      -3.397194            -1.181797            -2.930573
| 68>   H                      -1.645633            -2.601264            -1.937558
| 69>   H                      -2.958031            -2.867113            -0.615470
| 70>   H                      -3.102810            -3.427437            -2.374166
| 71> *
| 72>
| 73>                          ****END OF INPUT****
 Total Charge           Charge          ....    0
 Multiplicity           Mult            ....    1
 Number of Electrons    NEL             ....   36
Dispersion correction           -0.000637068
FINAL SINGLE POINT ENERGY      -231.459752773744
Dispersion correction           -0.000222008
FINAL SINGLE POINT ENERGY      -115.729078636353

CARTESIAN COORDINATES (ANGSTROEM)
---------------------------------
  C     -2.094311    2.283453    2.567803
  O     -2.206315    1.869918    1.194003
  H     -3.161988    1.826491    1.108694
  H     -2.770650    1.809254    3.256604
  H     -1.121342    2.272797    2.978147
  H     -2.354916    3.318122    2.580382
  C     -2.769662   -2.607001   -1.720003
  O     -3.415459   -1.368921   -1.945144
  H     -3.397194   -1.181797   -2.930573
  H     -1.645633   -2.601264   -1.937558
  H     -2.958031   -2.867113   -0.615470
  H     -3.102810   -3.427437   -2.374166

 Multiplicity           Mult            ....    1
 Number of Electrons    NEL             ....   18
 Basis Dimension        Dim             ....  172

ORBITAL ENERGIES
----------------

  NO   OCC          E(Eh)            E(eV)
   0   2.0000     -19.237805      -523.4873
   1   2.0000     -10.324984      -280.9571
   2   2.0000      -1.130458       -30.7613
   3   2.0000      -0.783922       -21.3316
   4   2.0000      -0.611925       -16.6513
   5   2.0000      -0.526671       -14.3314
   6   2.0000      -0.519559       -14.1379
   7   2.0000      -0.437090       -11.8938
   8   2.0000      -0.370813       -10.0903
   9   0.0000       0.092807         2.5254
  10   0.0000       0.108707         2.9581
  11   0.0000       0.148598         4.0436
  12   0.0000       0.173124         4.7110
  13   0.0000       0.192242         5.2312

MULLIKEN ATOMIC CHARGES
-----------------------
   0 C :    0.000014
   1 O :   -0.000027
   2 H :   -0.000308
   3 H :   -0.000003
   4 H :    0.000003
   5 H :   -0.000001
   6 C :   -0.170839
   7 O :   -0.468093
   8 H :    0.315792
   9 H :    0.096349
  10 H :    0.122560
  11 H :    0.104552
Sum of atomic charges:   -0.0000000

LOEWDIN ATOMIC CHARGES
----------------------
   0 C :   -0.000004
   1 O :   -0.000047
   2 H :   -0.000162
   3 H :   -0.000000
   4 H :   -0.000000
   5 H :   -0.000000
   6 C :   -0.408401
   7 O :   -0.094620
   8 H :    0.192846
   9 H :    0.098208
  10 H :    0.120307
  11 H :    0.091872

  Mayer bond orders larger than 0.1
B(  6-C ,  7-O ) :   1.0043 B(  6-C ,  9-H ) :   0.9672 B(  6-C , 10-H ) :   0.9718
B(  6-C , 11-H ) :   0.9693 B(  7-O ,  8-H ) :   0.8921

Dispersion correction           -0.000269330
FINAL SINGLE POINT ENERGY      -115.730674963948

DIPOLE MOMENT
-------------
                                X             Y             Z
Electronic contribution:     -0.94987       1.66015      -0.15957
Nuclear contribution   :      1.18479      -2.02352      -0.38123
                        -----------------------------------------
Total Dipole Moment    :      0.23492      -0.36337      -0.54080
                        -----------------------------------------
Magnitude (a.u.)       :      0.69259
Magnitude (Debye)      :      1.76042

Rotational constants in cm-1:     4.033462     0.824012     0.780700
Rotational constants in MHz : 120920.159014 24703.247480 23404.792375

                             ****ORCA TERMINATED NORMALLY****
TOTAL RUN TIME: 0 days 0 hours 1 minutes 1 seconds 640 msec
