                         Program Version 4.1.2  - RELEASE  -
|  1> #Run DFT geometry optimization
|  2> ! wB97X-D3 def2-TZVP TIGHTSCF Grid5 FinalGrid6 Opt CHELPG PAL4
|  3>
|  4> %base "7_geo_opt"
|  5> %geom MaxIter 500
|  6> end
|  7>
|  8> %geom
|  9>   Constraints
| 10>     { A 2 1 0 C }
| 11>   end
| 12> end
| 13>
| 14>
| 15> * xyz 0 1
| 16>   C                    3.011516             -1.178893            0.597074
| 17>   O                    4.394673             -1.128050            0.874308
| 18>   H                    4.770690             -0.378645            0.411875
| 19>   H                    2.806434             -1.318965            -0.469350
| 20>   H                    2.611632             -2.040265            1.135898
| 21>   H                    2.484757             -0.284491            0.945659
| 22> *
| 23>
| 24>                          ****END OF INPUT****
 Total Charge           Charge          ....    0
 Multiplicity           Mult            ....    1
 Number of Electrons    NEL             ....   18
Dispersion correction           -0.000238973
FINAL SINGLE POINT ENERGY      -115.738043709748
Dispersion correction            ... done
Dispersion correction           -0.000238959
FINAL SINGLE POINT ENERGY      -115.738049836597
Dispersion correction            ... done
                    ***********************HURRAY********************

CARTESIAN COORDINATES (ANGSTROEM)
---------------------------------
  C      3.011570   -1.180500    0.598255
  O      4.395069   -1.128039    0.874365
  H      4.769880   -0.378265    0.411443
  H      2.806926   -1.318803   -0.469627
  H      2.611066   -2.039628    1.135313
  H      2.485190   -0.284074    0.945713

 Multiplicity           Mult            ....    1
 Number of Electrons    NEL             ....   18
 Basis Dimension        Dim             ....   86

ORBITAL ENERGIES
----------------

  NO   OCC          E(Eh)            E(eV)
   0   2.0000     -19.228178      -523.2253
   1   2.0000     -10.315114      -280.6885
   2   2.0000      -1.136883       -30.9361
   3   2.0000      -0.795262       -21.6402
   4   2.0000      -0.611509       -16.6400
   5   2.0000      -0.541838       -14.7441
   6   2.0000      -0.526261       -14.3203
   7   2.0000      -0.434010       -11.8100
   8   2.0000      -0.373662       -10.1679
   9   0.0000       0.116603         3.1729
  10   0.0000       0.156690         4.2637
  11   0.0000       0.202568         5.5122
  12   0.0000       0.205076         5.5804
  13   0.0000       0.226303         6.1580

MULLIKEN ATOMIC CHARGES
-----------------------
   0 C :   -0.151330
   1 O :   -0.477231
   2 H :    0.312962
   3 H :    0.098701
   4 H :    0.118194
   5 H :    0.098705
Sum of atomic charges:   -0.0000000

LOEWDIN ATOMIC CHARGES
----------------------
   0 C :   -0.385200
   1 O :   -0.076178
   2 H :    0.165901
   3 H :    0.093419
   4 H :    0.108640
   5 H :    0.093417

  Mayer bond orders larger than 0.1
B(  0-C ,  1-O ) :   0.9988 B(  0-C ,  3-H ) :   0.9755 B(  0-C ,  4-H ) :   0.9750
B(  0-C ,  5-H ) :   0.9755 B(  1-O ,  2-H ) :   0.9003

Dispersion correction           -0.000238851
FINAL SINGLE POINT ENERGY      -115.738050362286

DIPOLE MOMENT
-------------
                                X             Y             Z
Electronic contribution:      1.75695      -0.02916       0.42068
Nuclear contribution   :     -2.06838       0.47686      -0.81874
                        -----------------------------------------
Total Dipole Moment    :     -0.31143       0.44769      -0.39806
                        -----------------------------------------
Magnitude (a.u.)       :      0.67518
Magnitude (Debye)      :      1.71618

Rotational constants in cm-1:     4.290840     0.833824     0.804920
Rotational constants in MHz : 128636.148064 24997.400145 24130.898896

                             ****ORCA TERMINATED NORMALLY****
TOTAL RUN TIME: 0 days 0 hours 0 minutes 42 seconds 527 msec
