                         Program Version 4.1.2  - RELEASE  -
|  1> #Run DFT-D3 single point of the dimer
|  2> ! wB97X-D3 def2-TZVP TIGHTSCF CHELPG PMODEL PAL8
|  3>
|  4> %base "18-135_DFT_AB"
|  5>
|  6> %scf
|  7> MaxIter 1000
|  8> end
|  9>
| 10> * xyz 0 1
| 11>   C                      -9.153282            -8.477792            6.924629
| 12>   O                      -7.769319            -8.220859            7.312762
| 13>   H                      -7.444320            -7.572881            6.635456
| 14>   H                      -9.273223            -9.351089            6.351012
| 15>   H                      -9.805501            -8.522427            7.775496
| 16>   H                      -9.528106            -7.587786            6.403392
| 17>   C                      -4.497079            -9.106142            8.031546
| 18>   O                      -5.521751            -10.135368           8.094001
| 19>   H                      -5.086157            -11.020833           7.979555
| 20>   H                      -3.515547            -9.363153            7.620147
| 21>   H                      -4.802924            -8.275146            7.405518
| 22>   H                      -4.278909            -8.661868            9.023498
| 23> *
| 24>
| 25> #Run DFT-D3 single point of the molecule with dimer basis set
| 26> $new_job
| 27> %base "18-135_DFT_A"
| 28> ! wB97X-D3 def2-TZVP TIGHTSCF CHELPG PMODEL
| 29>
| 30> %scf
| 31> MaxIter 1000
| 32> end
| 33>
| 34> * xyz 0 1
| 35>   C                      -9.153282            -8.477792            6.924629
| 36>   O                      -7.769319            -8.220859            7.312762
| 37>   H                      -7.444320            -7.572881            6.635456
| 38>   H                      -9.273223            -9.351089            6.351012
| 39>   H                      -9.805501            -8.522427            7.775496
| 40>   H                      -9.528106            -7.587786            6.403392
| 41>   C                    : -4.497079            -9.106142            8.031546
| 42>   O                    : -5.521751            -10.135368           8.094001
| 43>   H                    : -5.086157            -11.020833           7.979555
| 44>   H                    : -3.515547            -9.363153            7.620147
| 45>   H                    : -4.802924            -8.275146            7.405518
| 46>   H                    : -4.278909            -8.661868            9.023498
| 47> *
| 48>
| 49> #Run DFT-D3 single point of the particle with dimer basis set
| 50> $new_job
| 51> %base "18-135_DFT_B"
| 52> ! wB97X-D3 def2-TZVP TIGHTSCF CHELPG PMODEL
| 53>
| 54> %scf
| 55> MaxIter 1000
| 56> end
| 57>
| 58> * xyz 0 1
| 59>   C                    : -9.153282            -8.477792            6.924629
| 60>   O                    : -7.769319            -8.220859            7.312762
| 61>   H                    : -7.444320            -7.572881            6.635456
| 62>   H                    : -9.273223            -9.351089            6.351012
| 63>   H                    : -9.805501            -8.522427            7.775496
| 64>   H                    : -9.528106            -7.587786            6.403392
| 65>   C                      -4.497079            -9.106142            8.031546
| 66>   O                      -5.521751            -10.135368           8.094001
| 67>   H                      -5.086157            -11.020833           7.979555
| 68>   H                      -3.515547            -9.363153            7.620147
| 69>   H                      -4.802924            -8.275146            7.405518
| 70>   H                      -4.278909            -8.661868            9.023498
| 71> *
| 72>
| 73>                          ****END OF INPUT****
 Total Charge           Charge          ....    0
 Multiplicity           Mult            ....    1
 Number of Electrons    NEL             ....   36
Dispersion correction           -0.001528794
FINAL SINGLE POINT ENERGY      -231.458020795402
Dispersion correction           -0.000249975
FINAL SINGLE POINT ENERGY      -115.730723567166

CARTESIAN COORDINATES (ANGSTROEM)
---------------------------------
  C     -9.153282   -8.477792    6.924629
  O     -7.769319   -8.220859    7.312762
  H     -7.444320   -7.572881    6.635456
  H     -9.273223   -9.351089    6.351012
  H     -9.805501   -8.522427    7.775496
  H     -9.528106   -7.587786    6.403392
  C     -4.497079   -9.106142    8.031546
  O     -5.521751  -10.135368    8.094001
  H     -5.086157  -11.020833    7.979555
  H     -3.515547   -9.363153    7.620147
  H     -4.802924   -8.275146    7.405518
  H     -4.278909   -8.661868    9.023498

 Multiplicity           Mult            ....    1
 Number of Electrons    NEL             ....   18
 Basis Dimension        Dim             ....  172

ORBITAL ENERGIES
----------------

  NO   OCC          E(Eh)            E(eV)
   0   2.0000     -19.237856      -523.4887
   1   2.0000     -10.316595      -280.7288
   2   2.0000      -1.119637       -30.4669
   3   2.0000      -0.797505       -21.7012
   4   2.0000      -0.604695       -16.4546
   5   2.0000      -0.530986       -14.4489
   6   2.0000      -0.518585       -14.1114
   7   2.0000      -0.437834       -11.9141
   8   2.0000      -0.375945       -10.2300
   9   0.0000       0.095542         2.5998
  10   0.0000       0.115771         3.1503
  11   0.0000       0.142989         3.8909
  12   0.0000       0.172259         4.6874
  13   0.0000       0.198423         5.3994

MULLIKEN ATOMIC CHARGES
-----------------------
   0 C :   -0.001378
   1 O :    0.000498
   2 H :   -0.000112
   3 H :   -0.000044
   4 H :    0.000079
   5 H :   -0.000051
   6 C :   -0.186320
   7 O :   -0.473136
   8 H :    0.318621
   9 H :    0.111880
  10 H :    0.122198
  11 H :    0.107765
Sum of atomic charges:   -0.0000000

LOEWDIN ATOMIC CHARGES
----------------------
   0 C :   -0.001104
   1 O :   -0.003998
   2 H :   -0.001012
   3 H :   -0.000119
   4 H :   -0.000019
   5 H :   -0.000029
   6 C :   -0.370183
   7 O :   -0.110821
   8 H :    0.186705
   9 H :    0.097317
  10 H :    0.102280
  11 H :    0.100984

  Mayer bond orders larger than 0.1
B(  6-C ,  7-O ) :   1.0115 B(  6-C ,  9-H ) :   0.9725 B(  6-C , 10-H ) :   0.9755
B(  6-C , 11-H ) :   0.9763 B(  7-O ,  8-H ) :   0.8943

Dispersion correction           -0.000294542
FINAL SINGLE POINT ENERGY      -115.731035139541

DIPOLE MOMENT
-------------
                                X             Y             Z
Electronic contribution:     -1.44934      -1.32718       0.07839
Nuclear contribution   :      2.16223       1.18615      -0.19645
                        -----------------------------------------
Total Dipole Moment    :      0.71289      -0.14103      -0.11806
                        -----------------------------------------
Magnitude (a.u.)       :      0.73623
Magnitude (Debye)      :      1.87135

Rotational constants in cm-1:     4.404413     0.777041     0.751917
Rotational constants in MHz : 132040.971050 23295.107065 22541.896768

                             ****ORCA TERMINATED NORMALLY****
TOTAL RUN TIME: 0 days 0 hours 0 minutes 57 seconds 611 msec
