                         Program Version 4.1.2  - RELEASE  -
|  1> #Run DFT-D3 single point of the dimer
|  2> ! wB97X-D3 def2-TZVP TIGHTSCF CHELPG PMODEL PAL8
|  3>
|  4> %base "8-189_DFT_AB"
|  5>
|  6> %scf
|  7> MaxIter 1000
|  8> end
|  9>
| 10> * xyz 0 1
| 11>   C                      -10.843461           -11.084253           10.165046
| 12>   O                      -9.715164            -10.438630           10.607097
| 13>   H                      -9.342655            -10.112704           9.826003
| 14>   H                      -10.639223           -11.463633           9.190920
| 15>   H                      -11.317303           -11.803145           10.802666
| 16>   H                      -11.700379           -10.358815           9.808350
| 17>   C                      -7.996730            -8.972994            7.411152
| 18>   O                      -8.817424            -8.713965            8.527600
| 19>   H                      -9.641557            -8.317486            8.206658
| 20>   H                      -7.172185            -9.721647            7.606825
| 21>   H                      -8.601100            -9.390963            6.623147
| 22>   H                      -7.560165            -8.087871            7.016397
| 23> *
| 24>
| 25> #Run DFT-D3 single point of the molecule with dimer basis set
| 26> $new_job
| 27> %base "8-189_DFT_A"
| 28> ! wB97X-D3 def2-TZVP TIGHTSCF CHELPG PMODEL
| 29>
| 30> %scf
| 31> MaxIter 1000
| 32> end
| 33>
| 34> * xyz 0 1
| 35>   C                      -10.843461           -11.084253           10.165046
| 36>   O                      -9.715164            -10.438630           10.607097
| 37>   H                      -9.342655            -10.112704           9.826003
| 38>   H                      -10.639223           -11.463633           9.190920
| 39>   H                      -11.317303           -11.803145           10.802666
| 40>   H                      -11.700379           -10.358815           9.808350
| 41>   C                    : -7.996730            -8.972994            7.411152
| 42>   O                    : -8.817424            -8.713965            8.527600
| 43>   H                    : -9.641557            -8.317486            8.206658
| 44>   H                    : -7.172185            -9.721647            7.606825
| 45>   H                    : -8.601100            -9.390963            6.623147
| 46>   H                    : -7.560165            -8.087871            7.016397
| 47> *
| 48>
| 49> #Run DFT-D3 single point of the particle with dimer basis set
| 50> $new_job
| 51> %base "8-189_DFT_B"
| 52> ! wB97X-D3 def2-TZVP TIGHTSCF CHELPG PMODEL
| 53>
| 54> %scf
| 55> MaxIter 1000
| 56> end
| 57>
| 58> * xyz 0 1
| 59>   C                    : -10.843461           -11.084253           10.165046
| 60>   O                    : -9.715164            -10.438630           10.607097
| 61>   H                    : -9.342655            -10.112704           9.826003
| 62>   H                    : -10.639223           -11.463633           9.190920
| 63>   H                    : -11.317303           -11.803145           10.802666
| 64>   H                    : -11.700379           -10.358815           9.808350
| 65>   C                      -7.996730            -8.972994            7.411152
| 66>   O                      -8.817424            -8.713965            8.527600
| 67>   H                      -9.641557            -8.317486            8.206658
| 68>   H                      -7.172185            -9.721647            7.606825
| 69>   H                      -8.601100            -9.390963            6.623147
| 70>   H                      -7.560165            -8.087871            7.016397
| 71> *
| 72>
| 73>                          ****END OF INPUT****
 Total Charge           Charge          ....    0
 Multiplicity           Mult            ....    1
 Number of Electrons    NEL             ....   36
Dispersion correction           -0.001783857
FINAL SINGLE POINT ENERGY      -231.462928496552
Dispersion correction           -0.000219155
FINAL SINGLE POINT ENERGY      -115.721722132393

CARTESIAN COORDINATES (ANGSTROEM)
---------------------------------
  C    -10.843461  -11.084253   10.165046
  O     -9.715164  -10.438630   10.607097
  H     -9.342655  -10.112704    9.826003
  H    -10.639223  -11.463633    9.190920
  H    -11.317303  -11.803145   10.802666
  H    -11.700379  -10.358815    9.808350
  C     -7.996730   -8.972994    7.411152
  O     -8.817424   -8.713965    8.527600
  H     -9.641557   -8.317486    8.206658
  H     -7.172185   -9.721647    7.606825
  H     -8.601100   -9.390963    6.623147
  H     -7.560165   -8.087871    7.016397

 Multiplicity           Mult            ....    1
 Number of Electrons    NEL             ....   18
 Basis Dimension        Dim             ....  172

ORBITAL ENERGIES
----------------

  NO   OCC          E(Eh)            E(eV)
   0   2.0000     -19.231629      -523.3192
   1   2.0000     -10.311792      -280.5981
   2   2.0000      -1.136531       -30.9266
   3   2.0000      -0.795805       -21.6550
   4   2.0000      -0.612925       -16.6785
   5   2.0000      -0.545179       -14.8351
   6   2.0000      -0.528074       -14.3696
   7   2.0000      -0.431084       -11.7304
   8   2.0000      -0.374030       -10.1779
   9   0.0000       0.091408         2.4873
  10   0.0000       0.128914         3.5079
  11   0.0000       0.150203         4.0872
  12   0.0000       0.185090         5.0366
  13   0.0000       0.202509         5.5106

MULLIKEN ATOMIC CHARGES
-----------------------
   0 C :   -0.005001
   1 O :    0.001926
   2 H :   -0.005450
   3 H :   -0.001282
   4 H :   -0.000636
   5 H :   -0.000418
   6 C :   -0.159240
   7 O :   -0.474400
   8 H :    0.318313
   9 H :    0.119072
  10 H :    0.103447
  11 H :    0.103669
Sum of atomic charges:    0.0000000

LOEWDIN ATOMIC CHARGES
----------------------
   0 C :   -0.004943
   1 O :   -0.006581
   2 H :   -0.039476
   3 H :   -0.000967
   4 H :   -0.000122
   5 H :   -0.000487
   6 C :   -0.385776
   7 O :   -0.036525
   8 H :    0.177532
   9 H :    0.116369
  10 H :    0.092337
  11 H :    0.088640

  Mayer bond orders larger than 0.1
B(  6-C ,  7-O ) :   0.9844 B(  6-C ,  9-H ) :   0.9739 B(  6-C , 10-H ) :   0.9860
B(  6-C , 11-H ) :   0.9711 B(  7-O ,  8-H ) :   0.8926

Dispersion correction           -0.000233306
FINAL SINGLE POINT ENERGY      -115.733859809699

DIPOLE MOMENT
-------------
                                X             Y             Z
Electronic contribution:     -0.91580       0.32938       1.56811
Nuclear contribution   :      0.72183      -0.17689      -2.24074
                        -----------------------------------------
Total Dipole Moment    :     -0.19397       0.15249      -0.67263
                        -----------------------------------------
Magnitude (a.u.)       :      0.71645
Magnitude (Debye)      :      1.82108

Rotational constants in cm-1:     4.363728     0.833979     0.799677
Rotational constants in MHz : 130821.262797 25002.074375 23973.710538

                             ****ORCA TERMINATED NORMALLY****
TOTAL RUN TIME: 0 days 0 hours 0 minutes 47 seconds 137 msec
