                         Program Version 4.1.2  - RELEASE  -
|  1> #Run DFT-D3 single point of the dimer
|  2> ! wB97X-D3 def2-TZVP TIGHTSCF CHELPG PMODEL PAL8
|  3>
|  4> %base "9-20_DFT_AB"
|  5>
|  6> %scf
|  7> MaxIter 1000
|  8> end
|  9>
| 10> * xyz 0 1
| 11>   C                      1.487376             -0.428665            4.266690
| 12>   O                      2.630056             -0.194025            5.057445
| 13>   H                      2.762876             -0.876611            5.745413
| 14>   H                      1.308714             0.285588             3.519412
| 15>   H                      1.633911             -1.323911            3.744331
| 16>   H                      0.553844             -0.624710            4.835763
| 17>   C                      -0.382723            -3.622372            4.039118
| 18>   O                      -0.641191            -3.237219            5.349221
| 19>   H                      0.064387             -2.676951            5.718612
| 20>   H                      -1.053173            -4.408750            3.598997
| 21>   H                      -0.480557            -2.756405            3.381245
| 22>   H                      0.636109             -4.001770            3.918250
| 23> *
| 24>
| 25> #Run DFT-D3 single point of the molecule with dimer basis set
| 26> $new_job
| 27> %base "9-20_DFT_A"
| 28> ! wB97X-D3 def2-TZVP TIGHTSCF CHELPG PMODEL
| 29>
| 30> %scf
| 31> MaxIter 1000
| 32> end
| 33>
| 34> * xyz 0 1
| 35>   C                      1.487376             -0.428665            4.266690
| 36>   O                      2.630056             -0.194025            5.057445
| 37>   H                      2.762876             -0.876611            5.745413
| 38>   H                      1.308714             0.285588             3.519412
| 39>   H                      1.633911             -1.323911            3.744331
| 40>   H                      0.553844             -0.624710            4.835763
| 41>   C                    : -0.382723            -3.622372            4.039118
| 42>   O                    : -0.641191            -3.237219            5.349221
| 43>   H                    : 0.064387             -2.676951            5.718612
| 44>   H                    : -1.053173            -4.408750            3.598997
| 45>   H                    : -0.480557            -2.756405            3.381245
| 46>   H                    : 0.636109             -4.001770            3.918250
| 47> *
| 48>
| 49> #Run DFT-D3 single point of the particle with dimer basis set
| 50> $new_job
| 51> %base "9-20_DFT_B"
| 52> ! wB97X-D3 def2-TZVP TIGHTSCF CHELPG PMODEL
| 53>
| 54> %scf
| 55> MaxIter 1000
| 56> end
| 57>
| 58> * xyz 0 1
| 59>   C                    : 1.487376             -0.428665            4.266690
| 60>   O                    : 2.630056             -0.194025            5.057445
| 61>   H                    : 2.762876             -0.876611            5.745413
| 62>   H                    : 1.308714             0.285588             3.519412
| 63>   H                    : 1.633911             -1.323911            3.744331
| 64>   H                    : 0.553844             -0.624710            4.835763
| 65>   C                      -0.382723            -3.622372            4.039118
| 66>   O                      -0.641191            -3.237219            5.349221
| 67>   H                      0.064387             -2.676951            5.718612
| 68>   H                      -1.053173            -4.408750            3.598997
| 69>   H                      -0.480557            -2.756405            3.381245
| 70>   H                      0.636109             -4.001770            3.918250
| 71> *
| 72>
| 73>                          ****END OF INPUT****
 Total Charge           Charge          ....    0
 Multiplicity           Mult            ....    1
 Number of Electrons    NEL             ....   36
Dispersion correction           -0.002086195
FINAL SINGLE POINT ENERGY      -231.462898305079
Dispersion correction           -0.000243512
FINAL SINGLE POINT ENERGY      -115.729587849785

CARTESIAN COORDINATES (ANGSTROEM)
---------------------------------
  C      1.487376   -0.428665    4.266690
  O      2.630056   -0.194025    5.057445
  H      2.762876   -0.876611    5.745413
  H      1.308714    0.285588    3.519412
  H      1.633911   -1.323911    3.744331
  H      0.553844   -0.624710    4.835763
  C     -0.382723   -3.622372    4.039118
  O     -0.641191   -3.237219    5.349221
  H      0.064387   -2.676951    5.718612
  H     -1.053173   -4.408750    3.598997
  H     -0.480557   -2.756405    3.381245
  H      0.636109   -4.001770    3.918250

 Multiplicity           Mult            ....    1
 Number of Electrons    NEL             ....   18
 Basis Dimension        Dim             ....  172

ORBITAL ENERGIES
----------------

  NO   OCC          E(Eh)            E(eV)
   0   2.0000     -19.231308      -523.3105
   1   2.0000     -10.314153      -280.6624
   2   2.0000      -1.139336       -31.0029
   3   2.0000      -0.793928       -21.6039
   4   2.0000      -0.615750       -16.7554
   5   2.0000      -0.542381       -14.7589
   6   2.0000      -0.532403       -14.4874
   7   2.0000      -0.423500       -11.5240
   8   2.0000      -0.370771       -10.0892
   9   0.0000       0.070902         1.9293
  10   0.0000       0.136025         3.7014
  11   0.0000       0.145300         3.9538
  12   0.0000       0.159482         4.3397
  13   0.0000       0.196963         5.3596

MULLIKEN ATOMIC CHARGES
-----------------------
   0 C :    0.001512
   1 O :    0.000256
   2 H :   -0.000065
   3 H :   -0.000087
   4 H :   -0.002779
   5 H :   -0.006676
   6 C :   -0.166401
   7 O :   -0.474441
   8 H :    0.323167
   9 H :    0.124057
  10 H :    0.100194
  11 H :    0.101263
Sum of atomic charges:    0.0000000

LOEWDIN ATOMIC CHARGES
----------------------
   0 C :   -0.006703
   1 O :   -0.000037
   2 H :   -0.000198
   3 H :   -0.000086
   4 H :   -0.003076
   5 H :   -0.005097
   6 C :   -0.405812
   7 O :   -0.061855
   8 H :    0.180344
   9 H :    0.114863
  10 H :    0.093856
  11 H :    0.093802

  Mayer bond orders larger than 0.1
B(  6-C ,  7-O ) :   0.9988 B(  6-C ,  9-H ) :   0.9671 B(  6-C , 10-H ) :   0.9803
B(  6-C , 11-H ) :   0.9821 B(  7-O ,  8-H ) :   0.8908

Dispersion correction           -0.000244372
FINAL SINGLE POINT ENERGY      -115.733094762698

DIPOLE MOMENT
-------------
                                X             Y             Z
Electronic contribution:     -0.49939       0.38568       1.79141
Nuclear contribution   :      1.05424      -0.18966      -2.06758
                        -----------------------------------------
Total Dipole Moment    :      0.55485       0.19602      -0.27617
                        -----------------------------------------
Magnitude (a.u.)       :      0.65004
Magnitude (Debye)      :      1.65226

Rotational constants in cm-1:     4.387667     0.838842     0.809144
Rotational constants in MHz : 131538.942034 25147.857460 24257.533840

                             ****ORCA TERMINATED NORMALLY****
TOTAL RUN TIME: 0 days 0 hours 0 minutes 42 seconds 769 msec
