                         Program Version 4.1.2  - RELEASE  -
|  1> #Run DFT-D3 single point of the dimer
|  2> ! wB97X-D3 def2-TZVP TIGHTSCF CHELPG PMODEL PAL8
|  3>
|  4> %base "5-154_DFT_AB"
|  5>
|  6> %scf
|  7> MaxIter 1000
|  8> end
|  9>
| 10> * xyz 0 1
| 11>   C                      0.567218             6.000519             3.160337
| 12>   O                      0.360484             6.270881             1.769133
| 13>   H                      -0.567800            6.452111             1.611484
| 14>   H                      1.629474             5.820001             3.235269
| 15>   H                      0.317510             6.933082             3.730363
| 16>   H                      -0.035569            5.195958             3.619373
| 17>   C                      2.084568             8.517667             -0.584949
| 18>   O                      2.198137             7.189808             -0.187101
| 19>   H                      1.521909             6.940569             0.429521
| 20>   H                      1.140881             8.865920             -0.125748
| 21>   H                      2.908478             9.086071             -0.136464
| 22>   H                      1.953745             8.564427             -1.639007
| 23> *
| 24>
| 25> #Run DFT-D3 single point of the molecule with dimer basis set
| 26> $new_job
| 27> %base "5-154_DFT_A"
| 28> ! wB97X-D3 def2-TZVP TIGHTSCF CHELPG PMODEL
| 29>
| 30> %scf
| 31> MaxIter 1000
| 32> end
| 33>
| 34> * xyz 0 1
| 35>   C                      0.567218             6.000519             3.160337
| 36>   O                      0.360484             6.270881             1.769133
| 37>   H                      -0.567800            6.452111             1.611484
| 38>   H                      1.629474             5.820001             3.235269
| 39>   H                      0.317510             6.933082             3.730363
| 40>   H                      -0.035569            5.195958             3.619373
| 41>   C                    : 2.084568             8.517667             -0.584949
| 42>   O                    : 2.198137             7.189808             -0.187101
| 43>   H                    : 1.521909             6.940569             0.429521
| 44>   H                    : 1.140881             8.865920             -0.125748
| 45>   H                    : 2.908478             9.086071             -0.136464
| 46>   H                    : 1.953745             8.564427             -1.639007
| 47> *
| 48>
| 49> #Run DFT-D3 single point of the particle with dimer basis set
| 50> $new_job
| 51> %base "5-154_DFT_B"
| 52> ! wB97X-D3 def2-TZVP TIGHTSCF CHELPG PMODEL
| 53>
| 54> %scf
| 55> MaxIter 1000
| 56> end
| 57>
| 58> * xyz 0 1
| 59>   C                    : 0.567218             6.000519             3.160337
| 60>   O                    : 0.360484             6.270881             1.769133
| 61>   H                    : -0.567800            6.452111             1.611484
| 62>   H                    : 1.629474             5.820001             3.235269
| 63>   H                    : 0.317510             6.933082             3.730363
| 64>   H                    : -0.035569            5.195958             3.619373
| 65>   C                      2.084568             8.517667             -0.584949
| 66>   O                      2.198137             7.189808             -0.187101
| 67>   H                      1.521909             6.940569             0.429521
| 68>   H                      1.140881             8.865920             -0.125748
| 69>   H                      2.908478             9.086071             -0.136464
| 70>   H                      1.953745             8.564427             -1.639007
| 71> *
| 72>
| 73>                          ****END OF INPUT****
 Total Charge           Charge          ....    0
 Multiplicity           Mult            ....    1
 Number of Electrons    NEL             ....   36
Dispersion correction           -0.001608158
FINAL SINGLE POINT ENERGY      -231.473989472942
Dispersion correction           -0.000255217
FINAL SINGLE POINT ENERGY      -115.735280351850

CARTESIAN COORDINATES (ANGSTROEM)
---------------------------------
  C      0.567218    6.000519    3.160337
  O      0.360484    6.270881    1.769133
  H     -0.567800    6.452111    1.611484
  H      1.629474    5.820001    3.235269
  H      0.317510    6.933082    3.730363
  H     -0.035569    5.195958    3.619373
  C      2.084568    8.517667   -0.584949
  O      2.198137    7.189808   -0.187101
  H      1.521909    6.940569    0.429521
  H      1.140881    8.865920   -0.125748
  H      2.908478    9.086071   -0.136464
  H      1.953745    8.564427   -1.639007

 Multiplicity           Mult            ....    1
 Number of Electrons    NEL             ....   18
 Basis Dimension        Dim             ....  172

ORBITAL ENERGIES
----------------

  NO   OCC          E(Eh)            E(eV)
   0   2.0000     -19.221444      -523.0421
   1   2.0000     -10.309882      -280.5462
   2   2.0000      -1.141308       -31.0566
   3   2.0000      -0.796174       -21.6650
   4   2.0000      -0.613839       -16.7034
   5   2.0000      -0.557836       -15.1795
   6   2.0000      -0.528822       -14.3900
   7   2.0000      -0.417644       -11.3647
   8   2.0000      -0.373126       -10.1533
   9   0.0000       0.069012         1.8779
  10   0.0000       0.128334         3.4922
  11   0.0000       0.158409         4.3105
  12   0.0000       0.168209         4.5772
  13   0.0000       0.193492         5.2652

MULLIKEN ATOMIC CHARGES
-----------------------
   0 C :   -0.001886
   1 O :   -0.002707
   2 H :   -0.000138
   3 H :   -0.000451
   4 H :    0.000185
   5 H :   -0.000075
   6 C :   -0.143868
   7 O :   -0.478241
   8 H :    0.312337
   9 H :    0.090206
  10 H :    0.109048
  11 H :    0.115589
Sum of atomic charges:   -0.0000000

LOEWDIN ATOMIC CHARGES
----------------------
   0 C :   -0.002859
   1 O :   -0.021626
   2 H :   -0.001535
   3 H :   -0.000554
   4 H :   -0.000053
   5 H :   -0.000078
   6 C :   -0.387627
   7 O :   -0.052899
   8 H :    0.170536
   9 H :    0.099504
  10 H :    0.101618
  11 H :    0.095573

  Mayer bond orders larger than 0.1
B(  6-C ,  7-O ) :   0.9888 B(  6-C ,  9-H ) :   0.9970 B(  6-C , 10-H ) :   0.9726
B(  6-C , 11-H ) :   0.9731 B(  7-O ,  8-H ) :   0.9084

Dispersion correction           -0.000220111
FINAL SINGLE POINT ENERGY      -115.730716838618

DIPOLE MOMENT
-------------
                                X             Y             Z
Electronic contribution:      0.36232      -1.61175       0.28051
Nuclear contribution   :     -0.87855       1.97527      -0.03099
                        -----------------------------------------
Total Dipole Moment    :     -0.51623       0.36352       0.24952
                        -----------------------------------------
Magnitude (a.u.)       :      0.67890
Magnitude (Debye)      :      1.72563

Rotational constants in cm-1:     4.258384     0.860411     0.839843
Rotational constants in MHz : 127663.127474 25794.487615 25177.868157

                             ****ORCA TERMINATED NORMALLY****
TOTAL RUN TIME: 0 days 0 hours 1 minutes 2 seconds 281 msec
