                         Program Version 4.1.2  - RELEASE  -
|  1> #Run DFT-D3 single point of the dimer
|  2> ! wB97X-D3 def2-TZVP TIGHTSCF CHELPG PMODEL PAL8
|  3>
|  4> %base "2-151_DFT_AB"
|  5>
|  6> %scf
|  7> MaxIter 1000
|  8> end
|  9>
| 10> * xyz 0 1
| 11>   C                      -6.482457            -6.091744            -11.616427
| 12>   O                      -6.748681            -6.186808            -10.242572
| 13>   H                      -6.790137            -5.363731            -9.729532
| 14>   H                      -7.125715            -5.429157            -12.132322
| 15>   H                      -5.530468            -5.572866            -11.775662
| 16>   H                      -6.388227            -7.055093            -12.114680
| 17>   C                      -11.012576           -4.724502            -10.199893
| 18>   O                      -10.697425           -5.852024            -10.941522
| 19>   H                      -9.739663            -5.869397            -10.890460
| 20>   H                      -10.353380           -3.932207            -10.439419
| 21>   H                      -11.961464           -4.317083            -10.342054
| 22>   H                      -10.918848           -4.914593            -9.124969
| 23> *
| 24>
| 25> #Run DFT-D3 single point of the molecule with dimer basis set
| 26> $new_job
| 27> %base "2-151_DFT_A"
| 28> ! wB97X-D3 def2-TZVP TIGHTSCF CHELPG PMODEL
| 29>
| 30> %scf
| 31> MaxIter 1000
| 32> end
| 33>
| 34> * xyz 0 1
| 35>   C                      -6.482457            -6.091744            -11.616427
| 36>   O                      -6.748681            -6.186808            -10.242572
| 37>   H                      -6.790137            -5.363731            -9.729532
| 38>   H                      -7.125715            -5.429157            -12.132322
| 39>   H                      -5.530468            -5.572866            -11.775662
| 40>   H                      -6.388227            -7.055093            -12.114680
| 41>   C                    : -11.012576           -4.724502            -10.199893
| 42>   O                    : -10.697425           -5.852024            -10.941522
| 43>   H                    : -9.739663            -5.869397            -10.890460
| 44>   H                    : -10.353380           -3.932207            -10.439419
| 45>   H                    : -11.961464           -4.317083            -10.342054
| 46>   H                    : -10.918848           -4.914593            -9.124969
| 47> *
| 48>
| 49> #Run DFT-D3 single point of the particle with dimer basis set
| 50> $new_job
| 51> %base "2-151_DFT_B"
| 52> ! wB97X-D3 def2-TZVP TIGHTSCF CHELPG PMODEL
| 53>
| 54> %scf
| 55> MaxIter 1000
| 56> end
| 57>
| 58> * xyz 0 1
| 59>   C                    : -6.482457            -6.091744            -11.616427
| 60>   O                    : -6.748681            -6.186808            -10.242572
| 61>   H                    : -6.790137            -5.363731            -9.729532
| 62>   H                    : -7.125715            -5.429157            -12.132322
| 63>   H                    : -5.530468            -5.572866            -11.775662
| 64>   H                    : -6.388227            -7.055093            -12.114680
| 65>   C                      -11.012576           -4.724502            -10.199893
| 66>   O                      -10.697425           -5.852024            -10.941522
| 67>   H                      -9.739663            -5.869397            -10.890460
| 68>   H                      -10.353380           -3.932207            -10.439419
| 69>   H                      -11.961464           -4.317083            -10.342054
| 70>   H                      -10.918848           -4.914593            -9.124969
| 71> *
| 72>
| 73>                          ****END OF INPUT****
 Total Charge           Charge          ....    0
 Multiplicity           Mult            ....    1
 Number of Electrons    NEL             ....   36
Dispersion correction           -0.001346868
FINAL SINGLE POINT ENERGY      -231.462460346423
Dispersion correction           -0.000252825
FINAL SINGLE POINT ENERGY      -115.729943134695

CARTESIAN COORDINATES (ANGSTROEM)
---------------------------------
  C     -6.482457   -6.091744  -11.616427
  O     -6.748681   -6.186808  -10.242572
  H     -6.790137   -5.363731   -9.729532
  H     -7.125715   -5.429157  -12.132322
  H     -5.530468   -5.572866  -11.775662
  H     -6.388227   -7.055093  -12.114680
  C    -11.012576   -4.724502  -10.199893
  O    -10.697425   -5.852024  -10.941522
  H     -9.739663   -5.869397  -10.890460
  H    -10.353380   -3.932207  -10.439419
  H    -11.961464   -4.317083  -10.342054
  H    -10.918848   -4.914593   -9.124969

 Multiplicity           Mult            ....    1
 Number of Electrons    NEL             ....   18
 Basis Dimension        Dim             ....  172

ORBITAL ENERGIES
----------------

  NO   OCC          E(Eh)            E(eV)
   0   2.0000     -19.231359      -523.3119
   1   2.0000     -10.301123      -280.3078
   2   2.0000      -1.149307       -31.2742
   3   2.0000      -0.800349       -21.7786
   4   2.0000      -0.617059       -16.7910
   5   2.0000      -0.547428       -14.8963
   6   2.0000      -0.539798       -14.6887
   7   2.0000      -0.436959       -11.8902
   8   2.0000      -0.372612       -10.1393
   9   0.0000       0.067261         1.8303
  10   0.0000       0.128531         3.4975
  11   0.0000       0.154325         4.1994
  12   0.0000       0.162104         4.4111
  13   0.0000       0.185397         5.0449

MULLIKEN ATOMIC CHARGES
-----------------------
   0 C :    0.000593
   1 O :   -0.000269
   2 H :   -0.000045
   3 H :   -0.001447
   4 H :   -0.000044
   5 H :   -0.000014
   6 C :   -0.173135
   7 O :   -0.459684
   8 H :    0.316303
   9 H :    0.102608
  10 H :    0.118877
  11 H :    0.096256
Sum of atomic charges:   -0.0000000

LOEWDIN ATOMIC CHARGES
----------------------
   0 C :   -0.001507
   1 O :   -0.000573
   2 H :   -0.000211
   3 H :   -0.000724
   4 H :   -0.000017
   5 H :   -0.000020
   6 C :   -0.402043
   7 O :   -0.051503
   8 H :    0.175883
   9 H :    0.089555
  10 H :    0.095706
  11 H :    0.095452

  Mayer bond orders larger than 0.1
B(  6-C ,  7-O ) :   0.9993 B(  6-C ,  9-H ) :   0.9870 B(  6-C , 10-H ) :   0.9732
B(  6-C , 11-H ) :   0.9807 B(  7-O ,  8-H ) :   0.9051

Dispersion correction           -0.000205886
FINAL SINGLE POINT ENERGY      -115.730407025409

DIPOLE MOMENT
-------------
                                X             Y             Z
Electronic contribution:      0.17378      -1.55212      -1.09491
Nuclear contribution   :      0.29454       1.99350       1.38634
                        -----------------------------------------
Total Dipole Moment    :      0.46832       0.44138       0.29144
                        -----------------------------------------
Magnitude (a.u.)       :      0.70645
Magnitude (Debye)      :      1.79565

Rotational constants in cm-1:     4.528540     0.862772     0.835109
Rotational constants in MHz : 135762.200395 25865.257911 25035.932887

                             ****ORCA TERMINATED NORMALLY****
TOTAL RUN TIME: 0 days 0 hours 6 minutes 24 seconds 396 msec
