                         Program Version 4.1.2  - RELEASE  -
|  1> #Run DFT-D3 single point of the dimer
|  2> ! wB97X-D3 def2-TZVP TIGHTSCF CHELPG PMODEL PAL8
|  3>
|  4> %base "20-71_DFT_AB"
|  5>
|  6> %scf
|  7> MaxIter 1000
|  8> end
|  9>
| 10> * xyz 0 1
| 11>   C                      7.632217             9.699304             -7.585289
| 12>   O                      8.220885             8.717487             -8.487322
| 13>   H                      8.292732             7.918457             -7.923862
| 14>   H                      7.388094             10.683171            -8.048767
| 15>   H                      6.886025             9.245156             -6.974468
| 16>   H                      8.453979             9.988415             -6.909452
| 17>   C                      4.454285             8.442810             -10.203848
| 18>   O                      4.742119             7.468918             -9.203027
| 19>   H                      5.619634             7.120077             -9.380963
| 20>   H                      3.502124             8.966420             -10.208412
| 21>   H                      5.283847             9.216820             -10.153765
| 22>   H                      4.534951             7.926899             -11.162787
| 23> *
| 24>
| 25> #Run DFT-D3 single point of the molecule with dimer basis set
| 26> $new_job
| 27> %base "20-71_DFT_A"
| 28> ! wB97X-D3 def2-TZVP TIGHTSCF CHELPG PMODEL
| 29>
| 30> %scf
| 31> MaxIter 1000
| 32> end
| 33>
| 34> * xyz 0 1
| 35>   C                      7.632217             9.699304             -7.585289
| 36>   O                      8.220885             8.717487             -8.487322
| 37>   H                      8.292732             7.918457             -7.923862
| 38>   H                      7.388094             10.683171            -8.048767
| 39>   H                      6.886025             9.245156             -6.974468
| 40>   H                      8.453979             9.988415             -6.909452
| 41>   C                    : 4.454285             8.442810             -10.203848
| 42>   O                    : 4.742119             7.468918             -9.203027
| 43>   H                    : 5.619634             7.120077             -9.380963
| 44>   H                    : 3.502124             8.966420             -10.208412
| 45>   H                    : 5.283847             9.216820             -10.153765
| 46>   H                    : 4.534951             7.926899             -11.162787
| 47> *
| 48>
| 49> #Run DFT-D3 single point of the particle with dimer basis set
| 50> $new_job
| 51> %base "20-71_DFT_B"
| 52> ! wB97X-D3 def2-TZVP TIGHTSCF CHELPG PMODEL
| 53>
| 54> %scf
| 55> MaxIter 1000
| 56> end
| 57>
| 58> * xyz 0 1
| 59>   C                    : 7.632217             9.699304             -7.585289
| 60>   O                    : 8.220885             8.717487             -8.487322
| 61>   H                    : 8.292732             7.918457             -7.923862
| 62>   H                    : 7.388094             10.683171            -8.048767
| 63>   H                    : 6.886025             9.245156             -6.974468
| 64>   H                    : 8.453979             9.988415             -6.909452
| 65>   C                      4.454285             8.442810             -10.203848
| 66>   O                      4.742119             7.468918             -9.203027
| 67>   H                      5.619634             7.120077             -9.380963
| 68>   H                      3.502124             8.966420             -10.208412
| 69>   H                      5.283847             9.216820             -10.153765
| 70>   H                      4.534951             7.926899             -11.162787
| 71> *
| 72>
| 73>                          ****END OF INPUT****
 Total Charge           Charge          ....    0
 Multiplicity           Mult            ....    1
 Number of Electrons    NEL             ....   36
Dispersion correction           -0.001655323
FINAL SINGLE POINT ENERGY      -231.461176195588
Dispersion correction           -0.000233072
FINAL SINGLE POINT ENERGY      -115.728107055006

CARTESIAN COORDINATES (ANGSTROEM)
---------------------------------
  C      7.632217    9.699304   -7.585289
  O      8.220885    8.717487   -8.487322
  H      8.292732    7.918457   -7.923862
  H      7.388094   10.683171   -8.048767
  H      6.886025    9.245156   -6.974468
  H      8.453979    9.988415   -6.909452
  C      4.454285    8.442810  -10.203848
  O      4.742119    7.468918   -9.203027
  H      5.619634    7.120077   -9.380963
  H      3.502124    8.966420  -10.208412
  H      5.283847    9.216820  -10.153765
  H      4.534951    7.926899  -11.162787

 Multiplicity           Mult            ....    1
 Number of Electrons    NEL             ....   18
 Basis Dimension        Dim             ....  172

ORBITAL ENERGIES
----------------

  NO   OCC          E(Eh)            E(eV)
   0   2.0000     -19.229329      -523.2566
   1   2.0000     -10.319102      -280.7970
   2   2.0000      -1.133177       -30.8353
   3   2.0000      -0.793655       -21.5964
   4   2.0000      -0.605099       -16.4656
   5   2.0000      -0.538958       -14.6658
   6   2.0000      -0.537866       -14.6361
   7   2.0000      -0.428580       -11.6623
   8   2.0000      -0.370034       -10.0691
   9   0.0000       0.077506         2.1091
  10   0.0000       0.127410         3.4670
  11   0.0000       0.143394         3.9019
  12   0.0000       0.171482         4.6663
  13   0.0000       0.183120         4.9830

MULLIKEN ATOMIC CHARGES
-----------------------
   0 C :    0.001009
   1 O :   -0.000704
   2 H :   -0.000369
   3 H :   -0.000420
   4 H :   -0.002271
   5 H :   -0.000122
   6 C :   -0.178243
   7 O :   -0.476601
   8 H :    0.319977
   9 H :    0.130896
  10 H :    0.098847
  11 H :    0.108001
Sum of atomic charges:   -0.0000000

LOEWDIN ATOMIC CHARGES
----------------------
   0 C :   -0.002338
   1 O :   -0.000702
   2 H :   -0.000492
   3 H :   -0.000288
   4 H :   -0.001238
   5 H :   -0.000032
   6 C :   -0.379399
   7 O :   -0.089639
   8 H :    0.170712
   9 H :    0.106884
  10 H :    0.101226
  11 H :    0.095306

  Mayer bond orders larger than 0.1
B(  6-C ,  7-O ) :   0.9847 B(  6-C ,  9-H ) :   0.9668 B(  6-C , 10-H ) :   0.9810
B(  6-C , 11-H ) :   0.9871 B(  7-O ,  8-H ) :   0.8953

Dispersion correction           -0.000231906
FINAL SINGLE POINT ENERGY      -115.729759810599

DIPOLE MOMENT
-------------
                                X             Y             Z
Electronic contribution:      0.02845      -1.21004       1.40885
Nuclear contribution   :      0.38361       1.37419      -1.94211
                        -----------------------------------------
Total Dipole Moment    :      0.41206       0.16415      -0.53326
                        -----------------------------------------
Magnitude (a.u.)       :      0.69362
Magnitude (Debye)      :      1.76304

Rotational constants in cm-1:     4.279994     0.815639     0.789618
Rotational constants in MHz : 128310.993085 24452.254858 23672.138910

                             ****ORCA TERMINATED NORMALLY****
TOTAL RUN TIME: 0 days 0 hours 1 minutes 3 seconds 960 msec
