                         Program Version 4.1.2  - RELEASE  -
|  1> #Run DFT-D3 single point of the dimer
|  2> ! wB97X-D3 def2-TZVP TIGHTSCF CHELPG PMODEL PAL8
|  3>
|  4> %base "21-39_DFT_AB"
|  5>
|  6> %scf
|  7> MaxIter 1000
|  8> end
|  9>
| 10> * xyz 0 1
| 11>   C                      -4.571858            -8.509217            7.080362
| 12>   O                      -3.583468            -7.449682            7.394431
| 13>   H                      -3.572475            -6.902586            6.640899
| 14>   H                      -4.180799            -9.176255            6.298429
| 15>   H                      -4.673121            -9.129860            7.950470
| 16>   H                      -5.476760            -8.065264            6.898514
| 17>   C                      -5.021241            -8.045832            2.494545
| 18>   O                      -5.989247            -7.308026            3.203133
| 19>   H                      -6.772489            -7.218520            2.640288
| 20>   H                      -4.100609            -8.060883            3.101031
| 21>   H                      -5.262900            -9.056602            2.291049
| 22>   H                      -4.833772            -7.685138            1.454732
| 23> *
| 24>
| 25> #Run DFT-D3 single point of the molecule with dimer basis set
| 26> $new_job
| 27> %base "21-39_DFT_A"
| 28> ! wB97X-D3 def2-TZVP TIGHTSCF CHELPG PMODEL
| 29>
| 30> %scf
| 31> MaxIter 1000
| 32> end
| 33>
| 34> * xyz 0 1
| 35>   C                      -4.571858            -8.509217            7.080362
| 36>   O                      -3.583468            -7.449682            7.394431
| 37>   H                      -3.572475            -6.902586            6.640899
| 38>   H                      -4.180799            -9.176255            6.298429
| 39>   H                      -4.673121            -9.129860            7.950470
| 40>   H                      -5.476760            -8.065264            6.898514
| 41>   C                    : -5.021241            -8.045832            2.494545
| 42>   O                    : -5.989247            -7.308026            3.203133
| 43>   H                    : -6.772489            -7.218520            2.640288
| 44>   H                    : -4.100609            -8.060883            3.101031
| 45>   H                    : -5.262900            -9.056602            2.291049
| 46>   H                    : -4.833772            -7.685138            1.454732
| 47> *
| 48>
| 49> #Run DFT-D3 single point of the particle with dimer basis set
| 50> $new_job
| 51> %base "21-39_DFT_B"
| 52> ! wB97X-D3 def2-TZVP TIGHTSCF CHELPG PMODEL
| 53>
| 54> %scf
| 55> MaxIter 1000
| 56> end
| 57>
| 58> * xyz 0 1
| 59>   C                    : -4.571858            -8.509217            7.080362
| 60>   O                    : -3.583468            -7.449682            7.394431
| 61>   H                    : -3.572475            -6.902586            6.640899
| 62>   H                    : -4.180799            -9.176255            6.298429
| 63>   H                    : -4.673121            -9.129860            7.950470
| 64>   H                    : -5.476760            -8.065264            6.898514
| 65>   C                      -5.021241            -8.045832            2.494545
| 66>   O                      -5.989247            -7.308026            3.203133
| 67>   H                      -6.772489            -7.218520            2.640288
| 68>   H                      -4.100609            -8.060883            3.101031
| 69>   H                      -5.262900            -9.056602            2.291049
| 70>   H                      -4.833772            -7.685138            1.454732
| 71> *
| 72>
| 73>                          ****END OF INPUT****
 Total Charge           Charge          ....    0
 Multiplicity           Mult            ....    1
 Number of Electrons    NEL             ....   36
Dispersion correction           -0.001112868
FINAL SINGLE POINT ENERGY      -231.464775389052
Dispersion correction           -0.000238914
FINAL SINGLE POINT ENERGY      -115.729598334016

CARTESIAN COORDINATES (ANGSTROEM)
---------------------------------
  C     -4.571858   -8.509217    7.080362
  O     -3.583468   -7.449682    7.394431
  H     -3.572475   -6.902586    6.640899
  H     -4.180799   -9.176255    6.298429
  H     -4.673121   -9.129860    7.950470
  H     -5.476760   -8.065264    6.898514
  C     -5.021241   -8.045832    2.494545
  O     -5.989247   -7.308026    3.203133
  H     -6.772489   -7.218520    2.640288
  H     -4.100609   -8.060883    3.101031
  H     -5.262900   -9.056602    2.291049
  H     -4.833772   -7.685138    1.454732

 Multiplicity           Mult            ....    1
 Number of Electrons    NEL             ....   18
 Basis Dimension        Dim             ....  172

ORBITAL ENERGIES
----------------

  NO   OCC          E(Eh)            E(eV)
   0   2.0000     -19.234018      -523.3842
   1   2.0000     -10.311907      -280.6013
   2   2.0000      -1.137544       -30.9541
   3   2.0000      -0.797051       -21.6889
   4   2.0000      -0.619464       -16.8565
   5   2.0000      -0.532909       -14.5012
   6   2.0000      -0.524901       -14.2833
   7   2.0000      -0.440652       -11.9907
   8   2.0000      -0.372089       -10.1251
   9   0.0000       0.091438         2.4882
  10   0.0000       0.118869         3.2346
  11   0.0000       0.151512         4.1229
  12   0.0000       0.168874         4.5953
  13   0.0000       0.192101         5.2273

MULLIKEN ATOMIC CHARGES
-----------------------
   0 C :    0.000300
   1 O :    0.000014
   2 H :   -0.000157
   3 H :   -0.000112
   4 H :   -0.000054
   5 H :   -0.001356
   6 C :   -0.159836
   7 O :   -0.469547
   8 H :    0.313454
   9 H :    0.121264
  10 H :    0.100923
  11 H :    0.095109
Sum of atomic charges:   -0.0000000

LOEWDIN ATOMIC CHARGES
----------------------
   0 C :   -0.000679
   1 O :   -0.000010
   2 H :   -0.000056
   3 H :   -0.000182
   4 H :   -0.000009
   5 H :   -0.000579
   6 C :   -0.395231
   7 O :   -0.072297
   8 H :    0.174557
   9 H :    0.112599
  10 H :    0.084439
  11 H :    0.097447

  Mayer bond orders larger than 0.1
B(  6-C ,  7-O ) :   1.0016 B(  6-C ,  9-H ) :   0.9764 B(  6-C , 10-H ) :   0.9703
B(  6-C , 11-H ) :   0.9759 B(  7-O ,  8-H ) :   0.8977

Dispersion correction           -0.000248837
FINAL SINGLE POINT ENERGY      -115.733595483145

DIPOLE MOMENT
-------------
                                X             Y             Z
Electronic contribution:     -1.21071       0.99408       1.09000
Nuclear contribution   :      1.08142      -1.24408      -1.72501
                        -----------------------------------------
Total Dipole Moment    :     -0.12928      -0.25000      -0.63501
                        -----------------------------------------
Magnitude (a.u.)       :      0.69458
Magnitude (Debye)      :      1.76549

Rotational constants in cm-1:     4.375228     0.836652     0.792402
Rotational constants in MHz : 131166.035657 25082.182093 23755.616807

                             ****ORCA TERMINATED NORMALLY****
TOTAL RUN TIME: 0 days 0 hours 0 minutes 54 seconds 805 msec
