                         Program Version 4.1.2  - RELEASE  -
|  1> #Run DFT-D3 single point of the dimer
|  2> ! wB97X-D3 def2-TZVP TIGHTSCF CHELPG PMODEL PAL8
|  3>
|  4> %base "11-170_DFT_AB"
|  5>
|  6> %scf
|  7> MaxIter 1000
|  8> end
|  9>
| 10> * xyz 0 1
| 11>   C                      -6.310086            -3.926838            1.277740
| 12>   O                      -7.731180            -4.197409            1.454962
| 13>   H                      -7.719201            -4.762087            2.278271
| 14>   H                      -5.742679            -4.812015            0.987931
| 15>   H                      -6.110303            -3.214105            0.491601
| 16>   H                      -5.883718            -3.606113            2.231377
| 17>   C                      -7.659629            -4.472034            5.252038
| 18>   O                      -8.518829            -4.748822            4.136675
| 19>   H                      -9.275437            -4.126430            4.062496
| 20>   H                      -6.893624            -5.275388            5.267629
| 21>   H                      -7.228614            -3.404280            5.310936
| 22>   H                      -8.259196            -4.497080            6.162074
| 23> *
| 24>
| 25> #Run DFT-D3 single point of the molecule with dimer basis set
| 26> $new_job
| 27> %base "11-170_DFT_A"
| 28> ! wB97X-D3 def2-TZVP TIGHTSCF CHELPG PMODEL
| 29>
| 30> %scf
| 31> MaxIter 1000
| 32> end
| 33>
| 34> * xyz 0 1
| 35>   C                      -6.310086            -3.926838            1.277740
| 36>   O                      -7.731180            -4.197409            1.454962
| 37>   H                      -7.719201            -4.762087            2.278271
| 38>   H                      -5.742679            -4.812015            0.987931
| 39>   H                      -6.110303            -3.214105            0.491601
| 40>   H                      -5.883718            -3.606113            2.231377
| 41>   C                    : -7.659629            -4.472034            5.252038
| 42>   O                    : -8.518829            -4.748822            4.136675
| 43>   H                    : -9.275437            -4.126430            4.062496
| 44>   H                    : -6.893624            -5.275388            5.267629
| 45>   H                    : -7.228614            -3.404280            5.310936
| 46>   H                    : -8.259196            -4.497080            6.162074
| 47> *
| 48>
| 49> #Run DFT-D3 single point of the particle with dimer basis set
| 50> $new_job
| 51> %base "11-170_DFT_B"
| 52> ! wB97X-D3 def2-TZVP TIGHTSCF CHELPG PMODEL
| 53>
| 54> %scf
| 55> MaxIter 1000
| 56> end
| 57>
| 58> * xyz 0 1
| 59>   C                    : -6.310086            -3.926838            1.277740
| 60>   O                    : -7.731180            -4.197409            1.454962
| 61>   H                    : -7.719201            -4.762087            2.278271
| 62>   H                    : -5.742679            -4.812015            0.987931
| 63>   H                    : -6.110303            -3.214105            0.491601
| 64>   H                    : -5.883718            -3.606113            2.231377
| 65>   C                      -7.659629            -4.472034            5.252038
| 66>   O                      -8.518829            -4.748822            4.136675
| 67>   H                      -9.275437            -4.126430            4.062496
| 68>   H                      -6.893624            -5.275388            5.267629
| 69>   H                      -7.228614            -3.404280            5.310936
| 70>   H                      -8.259196            -4.497080            6.162074
| 71> *
| 72>
| 73>                          ****END OF INPUT****
 Total Charge           Charge          ....    0
 Multiplicity           Mult            ....    1
 Number of Electrons    NEL             ....   36
Dispersion correction           -0.001853610
FINAL SINGLE POINT ENERGY      -231.470783514351
Dispersion correction           -0.000242000
FINAL SINGLE POINT ENERGY      -115.732348690422

CARTESIAN COORDINATES (ANGSTROEM)
---------------------------------
  C     -6.310086   -3.926838    1.277740
  O     -7.731180   -4.197409    1.454962
  H     -7.719201   -4.762087    2.278271
  H     -5.742679   -4.812015    0.987931
  H     -6.110303   -3.214105    0.491601
  H     -5.883718   -3.606113    2.231377
  C     -7.659629   -4.472034    5.252038
  O     -8.518829   -4.748822    4.136675
  H     -9.275437   -4.126430    4.062496
  H     -6.893624   -5.275388    5.267629
  H     -7.228614   -3.404280    5.310936
  H     -8.259196   -4.497080    6.162074

 Multiplicity           Mult            ....    1
 Number of Electrons    NEL             ....   18
 Basis Dimension        Dim             ....  172

ORBITAL ENERGIES
----------------

  NO   OCC          E(Eh)            E(eV)
   0   2.0000     -19.231981      -523.3288
   1   2.0000     -10.323844      -280.9261
   2   2.0000      -1.123670       -30.5766
   3   2.0000      -0.791852       -21.5474
   4   2.0000      -0.609598       -16.5880
   5   2.0000      -0.526694       -14.3321
   6   2.0000      -0.523805       -14.2535
   7   2.0000      -0.434390       -11.8204
   8   2.0000      -0.369682       -10.0596
   9   0.0000       0.094561         2.5731
  10   0.0000       0.122578         3.3355
  11   0.0000       0.145633         3.9629
  12   0.0000       0.186955         5.0873
  13   0.0000       0.196385         5.3439

MULLIKEN ATOMIC CHARGES
-----------------------
   0 C :   -0.003293
   1 O :   -0.002236
   2 H :   -0.005041
   3 H :    0.000011
   4 H :    0.000003
   5 H :    0.000604
   6 C :   -0.155568
   7 O :   -0.486307
   8 H :    0.317716
   9 H :    0.129078
  10 H :    0.098208
  11 H :    0.106825
Sum of atomic charges:   -0.0000000

LOEWDIN ATOMIC CHARGES
----------------------
   0 C :   -0.002297
   1 O :   -0.008678
   2 H :   -0.037625
   3 H :   -0.000040
   4 H :   -0.000034
   5 H :   -0.000459
   6 C :   -0.377377
   7 O :   -0.064591
   8 H :    0.178785
   9 H :    0.114808
  10 H :    0.103260
  11 H :    0.094249

  Mayer bond orders larger than 0.1
B(  6-C ,  7-O ) :   0.9799 B(  6-C ,  9-H ) :   0.9734 B(  6-C , 10-H ) :   0.9645
B(  6-C , 11-H ) :   0.9747 B(  7-O ,  8-H ) :   0.8896

Dispersion correction           -0.000274713
FINAL SINGLE POINT ENERGY      -115.731110434077

DIPOLE MOMENT
-------------
                                X             Y             Z
Electronic contribution:     -0.92606      -0.50356      -1.47195
Nuclear contribution   :      0.76889       0.99605       1.91364
                        -----------------------------------------
Total Dipole Moment    :     -0.15718       0.49250       0.44169
                        -----------------------------------------
Magnitude (a.u.)       :      0.67996
Magnitude (Debye)      :      1.72833

Rotational constants in cm-1:     4.160759     0.806943     0.767176
Rotational constants in MHz : 124736.415357 24191.549897 22999.366388

                             ****ORCA TERMINATED NORMALLY****
TOTAL RUN TIME: 0 days 0 hours 1 minutes 14 seconds 704 msec
