                         Program Version 4.1.2  - RELEASE  -
|  1> #Run DFT-D3 single point of the dimer
|  2> ! wB97X-D3 def2-TZVP TIGHTSCF CHELPG PMODEL PAL8
|  3>
|  4> %base "11-155_DFT_AB"
|  5>
|  6> %scf
|  7> MaxIter 1000
|  8> end
|  9>
| 10> * xyz 0 1
| 11>   C                      2.217427             1.697166             7.318958
| 12>   O                      2.613277             1.466111             6.043018
| 13>   H                      3.481657             1.800172             5.873773
| 14>   H                      1.260983             2.194355             7.328991
| 15>   H                      2.080021             0.874350             8.033211
| 16>   H                      2.938580             2.440001             7.769617
| 17>   C                      5.622197             4.177531             5.857045
| 18>   O                      5.373189             2.909871             5.151419
| 19>   H                      5.520784             3.119263             4.200811
| 20>   H                      6.209924             4.019103             6.829444
| 21>   H                      6.341922             4.804679             5.301261
| 22>   H                      4.749316             4.849293             6.021225
| 23> *
| 24>
| 25> #Run DFT-D3 single point of the molecule with dimer basis set
| 26> $new_job
| 27> %base "11-155_DFT_A"
| 28> ! wB97X-D3 def2-TZVP TIGHTSCF CHELPG PMODEL
| 29>
| 30> %scf
| 31> MaxIter 1000
| 32> end
| 33>
| 34> * xyz 0 1
| 35>   C                      2.217427             1.697166             7.318958
| 36>   O                      2.613277             1.466111             6.043018
| 37>   H                      3.481657             1.800172             5.873773
| 38>   H                      1.260983             2.194355             7.328991
| 39>   H                      2.080021             0.874350             8.033211
| 40>   H                      2.938580             2.440001             7.769617
| 41>   C                    : 5.622197             4.177531             5.857045
| 42>   O                    : 5.373189             2.909871             5.151419
| 43>   H                    : 5.520784             3.119263             4.200811
| 44>   H                    : 6.209924             4.019103             6.829444
| 45>   H                    : 6.341922             4.804679             5.301261
| 46>   H                    : 4.749316             4.849293             6.021225
| 47> *
| 48>
| 49> #Run DFT-D3 single point of the particle with dimer basis set
| 50> $new_job
| 51> %base "11-155_DFT_B"
| 52> ! wB97X-D3 def2-TZVP TIGHTSCF CHELPG PMODEL
| 53>
| 54> %scf
| 55> MaxIter 1000
| 56> end
| 57>
| 58> * xyz 0 1
| 59>   C                    : 2.217427             1.697166             7.318958
| 60>   O                    : 2.613277             1.466111             6.043018
| 61>   H                    : 3.481657             1.800172             5.873773
| 62>   H                    : 1.260983             2.194355             7.328991
| 63>   H                    : 2.080021             0.874350             8.033211
| 64>   H                    : 2.938580             2.440001             7.769617
| 65>   C                      5.622197             4.177531             5.857045
| 66>   O                      5.373189             2.909871             5.151419
| 67>   H                      5.520784             3.119263             4.200811
| 68>   H                      6.209924             4.019103             6.829444
| 69>   H                      6.341922             4.804679             5.301261
| 70>   H                      4.749316             4.849293             6.021225
| 71> *
| 72>
| 73>                          ****END OF INPUT****
 Total Charge           Charge          ....    0
 Multiplicity           Mult            ....    1
 Number of Electrons    NEL             ....   36
Dispersion correction           -0.001643232
FINAL SINGLE POINT ENERGY      -231.464027724878
Dispersion correction           -0.000239577
FINAL SINGLE POINT ENERGY      -115.728605574380

CARTESIAN COORDINATES (ANGSTROEM)
---------------------------------
  C      2.217427    1.697166    7.318958
  O      2.613277    1.466111    6.043018
  H      3.481657    1.800172    5.873773
  H      1.260983    2.194355    7.328991
  H      2.080021    0.874350    8.033211
  H      2.938580    2.440001    7.769617
  C      5.622197    4.177531    5.857045
  O      5.373189    2.909871    5.151419
  H      5.520784    3.119263    4.200811
  H      6.209924    4.019103    6.829444
  H      6.341922    4.804679    5.301261
  H      4.749316    4.849293    6.021225

 Multiplicity           Mult            ....    1
 Number of Electrons    NEL             ....   18
 Basis Dimension        Dim             ....  172

ORBITAL ENERGIES
----------------

  NO   OCC          E(Eh)            E(eV)
   0   2.0000     -19.238791      -523.5141
   1   2.0000     -10.327859      -281.0353
   2   2.0000      -1.119421       -30.4610
   3   2.0000      -0.791098       -21.5269
   4   2.0000      -0.600240       -16.3334
   5   2.0000      -0.534284       -14.5386
   6   2.0000      -0.513053       -13.9609
   7   2.0000      -0.434063       -11.8115
   8   2.0000      -0.380455       -10.3527
   9   0.0000       0.095421         2.5965
  10   0.0000       0.118139         3.2147
  11   0.0000       0.140132         3.8132
  12   0.0000       0.186150         5.0654
  13   0.0000       0.194840         5.3019

MULLIKEN ATOMIC CHARGES
-----------------------
   0 C :   -0.000602
   1 O :   -0.001919
   2 H :   -0.005113
   3 H :    0.000051
   4 H :    0.000025
   5 H :    0.000643
   6 C :   -0.199524
   7 O :   -0.465471
   8 H :    0.317570
   9 H :    0.123203
  10 H :    0.112995
  11 H :    0.118141
Sum of atomic charges:   -0.0000000

LOEWDIN ATOMIC CHARGES
----------------------
   0 C :   -0.000558
   1 O :   -0.002015
   2 H :   -0.020985
   3 H :   -0.000005
   4 H :   -0.000005
   5 H :   -0.000158
   6 C :   -0.369039
   7 O :   -0.104962
   8 H :    0.181627
   9 H :    0.116921
  10 H :    0.098293
  11 H :    0.100886

  Mayer bond orders larger than 0.1
B(  6-C ,  7-O ) :   0.9981 B(  6-C ,  9-H ) :   0.9718 B(  6-C , 10-H ) :   0.9772
B(  6-C , 11-H ) :   0.9632 B(  7-O ,  8-H ) :   0.8968

Dispersion correction           -0.000293634
FINAL SINGLE POINT ENERGY      -115.727852575625

DIPOLE MOMENT
-------------
                                X             Y             Z
Electronic contribution:     -0.49897      -1.76365      -0.76111
Nuclear contribution   :      0.73782       2.43331       0.43547
                        -----------------------------------------
Total Dipole Moment    :      0.23885       0.66966      -0.32564
                        -----------------------------------------
Magnitude (a.u.)       :      0.78201
Magnitude (Debye)      :      1.98771

Rotational constants in cm-1:     4.175116     0.762157     0.741007
Rotational constants in MHz : 125166.816833 22848.894987 22214.834502

                             ****ORCA TERMINATED NORMALLY****
TOTAL RUN TIME: 0 days 0 hours 1 minutes 11 seconds 237 msec
