                         Program Version 4.1.2  - RELEASE  -
|  1> #Run DFT-D3 single point of the dimer
|  2> ! wB97X-D3 def2-TZVP TIGHTSCF CHELPG PMODEL PAL8
|  3>
|  4> %base "17-179_DFT_AB"
|  5>
|  6> %scf
|  7> MaxIter 1000
|  8> end
|  9>
| 10> * xyz 0 1
| 11>   C                      0.271734             4.962801             10.768248
| 12>   O                      -1.058002            4.849513             10.986883
| 13>   H                      -1.430053            5.366804             10.252631
| 14>   H                      0.896461             4.447184             11.480356
| 15>   H                      0.602704             4.705835             9.740931
| 16>   H                      0.555315             5.993130             10.928856
| 17>   C                      -3.840516            6.419156             9.050086
| 18>   O                      -2.822260            7.008458             9.827064
| 19>   H                      -2.611627            7.818419             9.373296
| 20>   H                      -4.766769            6.923624             9.369060
| 21>   H                      -3.670197            6.578717             7.996168
| 22>   H                      -3.963812            5.351886             9.283087
| 23> *
| 24>
| 25> #Run DFT-D3 single point of the molecule with dimer basis set
| 26> $new_job
| 27> %base "17-179_DFT_A"
| 28> ! wB97X-D3 def2-TZVP TIGHTSCF CHELPG PMODEL
| 29>
| 30> %scf
| 31> MaxIter 1000
| 32> end
| 33>
| 34> * xyz 0 1
| 35>   C                      0.271734             4.962801             10.768248
| 36>   O                      -1.058002            4.849513             10.986883
| 37>   H                      -1.430053            5.366804             10.252631
| 38>   H                      0.896461             4.447184             11.480356
| 39>   H                      0.602704             4.705835             9.740931
| 40>   H                      0.555315             5.993130             10.928856
| 41>   C                    : -3.840516            6.419156             9.050086
| 42>   O                    : -2.822260            7.008458             9.827064
| 43>   H                    : -2.611627            7.818419             9.373296
| 44>   H                    : -4.766769            6.923624             9.369060
| 45>   H                    : -3.670197            6.578717             7.996168
| 46>   H                    : -3.963812            5.351886             9.283087
| 47> *
| 48>
| 49> #Run DFT-D3 single point of the particle with dimer basis set
| 50> $new_job
| 51> %base "17-179_DFT_B"
| 52> ! wB97X-D3 def2-TZVP TIGHTSCF CHELPG PMODEL
| 53>
| 54> %scf
| 55> MaxIter 1000
| 56> end
| 57>
| 58> * xyz 0 1
| 59>   C                    : 0.271734             4.962801             10.768248
| 60>   O                    : -1.058002            4.849513             10.986883
| 61>   H                    : -1.430053            5.366804             10.252631
| 62>   H                    : 0.896461             4.447184             11.480356
| 63>   H                    : 0.602704             4.705835             9.740931
| 64>   H                    : 0.555315             5.993130             10.928856
| 65>   C                      -3.840516            6.419156             9.050086
| 66>   O                      -2.822260            7.008458             9.827064
| 67>   H                      -2.611627            7.818419             9.373296
| 68>   H                      -4.766769            6.923624             9.369060
| 69>   H                      -3.670197            6.578717             7.996168
| 70>   H                      -3.963812            5.351886             9.283087
| 71> *
| 72>
| 73>                          ****END OF INPUT****
 Total Charge           Charge          ....    0
 Multiplicity           Mult            ....    1
 Number of Electrons    NEL             ....   36
Dispersion correction           -0.001544301
FINAL SINGLE POINT ENERGY      -231.469842239040
Dispersion correction           -0.000200460
FINAL SINGLE POINT ENERGY      -115.729994130993

CARTESIAN COORDINATES (ANGSTROEM)
---------------------------------
  C      0.271734    4.962801   10.768248
  O     -1.058002    4.849513   10.986883
  H     -1.430053    5.366804   10.252631
  H      0.896461    4.447184   11.480356
  H      0.602704    4.705835    9.740931
  H      0.555315    5.993130   10.928856
  C     -3.840516    6.419156    9.050086
  O     -2.822260    7.008458    9.827064
  H     -2.611627    7.818419    9.373296
  H     -4.766769    6.923624    9.369060
  H     -3.670197    6.578717    7.996168
  H     -3.963812    5.351886    9.283087

 Multiplicity           Mult            ....    1
 Number of Electrons    NEL             ....   18
 Basis Dimension        Dim             ....  172

ORBITAL ENERGIES
----------------

  NO   OCC          E(Eh)            E(eV)
   0   2.0000     -19.227719      -523.2128
   1   2.0000     -10.312577      -280.6195
   2   2.0000      -1.140941       -31.0466
   3   2.0000      -0.793164       -21.5831
   4   2.0000      -0.611719       -16.6457
   5   2.0000      -0.543594       -14.7919
   6   2.0000      -0.530536       -14.4366
   7   2.0000      -0.438667       -11.9367
   8   2.0000      -0.369606       -10.0575
   9   0.0000       0.097753         2.6600
  10   0.0000       0.121602         3.3090
  11   0.0000       0.156128         4.2485
  12   0.0000       0.185256         5.0411
  13   0.0000       0.199429         5.4267

MULLIKEN ATOMIC CHARGES
-----------------------
   0 C :   -0.001521
   1 O :    0.000967
   2 H :   -0.004213
   3 H :   -0.000202
   4 H :   -0.000049
   5 H :   -0.000823
   6 C :   -0.171881
   7 O :   -0.466586
   8 H :    0.311103
   9 H :    0.101034
  10 H :    0.110160
  11 H :    0.122011
Sum of atomic charges:    0.0000000

LOEWDIN ATOMIC CHARGES
----------------------
   0 C :   -0.002070
   1 O :   -0.003488
   2 H :   -0.023036
   3 H :   -0.000040
   4 H :   -0.000055
   5 H :   -0.000393
   6 C :   -0.384538
   7 O :   -0.052445
   8 H :    0.165085
   9 H :    0.098785
  10 H :    0.092731
  11 H :    0.109465

  Mayer bond orders larger than 0.1
B(  6-C ,  7-O ) :   0.9829 B(  6-C ,  9-H ) :   0.9796 B(  6-C , 10-H ) :   0.9787
B(  6-C , 11-H ) :   0.9743 B(  7-O ,  8-H ) :   0.9019

Dispersion correction           -0.000214669
FINAL SINGLE POINT ENERGY      -115.734366314713

DIPOLE MOMENT
-------------
                                X             Y             Z
Electronic contribution:      1.34279       0.56052       1.00174
Nuclear contribution   :     -1.61384      -0.28346      -1.59663
                        -----------------------------------------
Total Dipole Moment    :     -0.27105       0.27705      -0.59489
                        -----------------------------------------
Magnitude (a.u.)       :      0.71001
Magnitude (Debye)      :      1.80471

Rotational constants in cm-1:     4.224277     0.847517     0.814007
Rotational constants in MHz : 126640.649725 25407.916809 24403.302119

                             ****ORCA TERMINATED NORMALLY****
TOTAL RUN TIME: 0 days 0 hours 1 minutes 8 seconds 944 msec
