                         Program Version 4.1.2  - RELEASE  -
|  1> #Run DFT-D3 single point of the dimer
|  2> ! wB97X-D3 def2-TZVP TIGHTSCF CHELPG PMODEL PAL8
|  3>
|  4> %base "15-170_DFT_AB"
|  5>
|  6> %scf
|  7> MaxIter 1000
|  8> end
|  9>
| 10> * xyz 0 1
| 11>   C                      -2.661434            0.095099             -1.013179
| 12>   O                      -3.238537            1.069245             -1.880660
| 13>   H                      -2.525407            1.523243             -2.362530
| 14>   H                      -3.455402            -0.406456            -0.357671
| 15>   H                      -2.118193            -0.664322            -1.552945
| 16>   H                      -2.095586            0.597081             -0.237835
| 17>   C                      -4.432749            -0.665005            -4.183704
| 18>   O                      -5.511980            -0.222480            -3.434438
| 19>   H                      -5.248983            0.389718             -2.720610
| 20>   H                      -4.629903            -0.997595            -5.147036
| 21>   H                      -3.745433            0.176684             -4.392793
| 22>   H                      -3.865923            -1.420292            -3.627078
| 23> *
| 24>
| 25> #Run DFT-D3 single point of the molecule with dimer basis set
| 26> $new_job
| 27> %base "15-170_DFT_A"
| 28> ! wB97X-D3 def2-TZVP TIGHTSCF CHELPG PMODEL
| 29>
| 30> %scf
| 31> MaxIter 1000
| 32> end
| 33>
| 34> * xyz 0 1
| 35>   C                      -2.661434            0.095099             -1.013179
| 36>   O                      -3.238537            1.069245             -1.880660
| 37>   H                      -2.525407            1.523243             -2.362530
| 38>   H                      -3.455402            -0.406456            -0.357671
| 39>   H                      -2.118193            -0.664322            -1.552945
| 40>   H                      -2.095586            0.597081             -0.237835
| 41>   C                    : -4.432749            -0.665005            -4.183704
| 42>   O                    : -5.511980            -0.222480            -3.434438
| 43>   H                    : -5.248983            0.389718             -2.720610
| 44>   H                    : -4.629903            -0.997595            -5.147036
| 45>   H                    : -3.745433            0.176684             -4.392793
| 46>   H                    : -3.865923            -1.420292            -3.627078
| 47> *
| 48>
| 49> #Run DFT-D3 single point of the particle with dimer basis set
| 50> $new_job
| 51> %base "15-170_DFT_B"
| 52> ! wB97X-D3 def2-TZVP TIGHTSCF CHELPG PMODEL
| 53>
| 54> %scf
| 55> MaxIter 1000
| 56> end
| 57>
| 58> * xyz 0 1
| 59>   C                    : -2.661434            0.095099             -1.013179
| 60>   O                    : -3.238537            1.069245             -1.880660
| 61>   H                    : -2.525407            1.523243             -2.362530
| 62>   H                    : -3.455402            -0.406456            -0.357671
| 63>   H                    : -2.118193            -0.664322            -1.552945
| 64>   H                    : -2.095586            0.597081             -0.237835
| 65>   C                      -4.432749            -0.665005            -4.183704
| 66>   O                      -5.511980            -0.222480            -3.434438
| 67>   H                      -5.248983            0.389718             -2.720610
| 68>   H                      -4.629903            -0.997595            -5.147036
| 69>   H                      -3.745433            0.176684             -4.392793
| 70>   H                      -3.865923            -1.420292            -3.627078
| 71> *
| 72>
| 73>                          ****END OF INPUT****
 Total Charge           Charge          ....    0
 Multiplicity           Mult            ....    1
 Number of Electrons    NEL             ....   36
Dispersion correction           -0.002398966
FINAL SINGLE POINT ENERGY      -231.469584096369
Dispersion correction           -0.000250741
FINAL SINGLE POINT ENERGY      -115.732745969256

CARTESIAN COORDINATES (ANGSTROEM)
---------------------------------
  C     -2.661434    0.095099   -1.013179
  O     -3.238537    1.069245   -1.880660
  H     -2.525407    1.523243   -2.362530
  H     -3.455402   -0.406456   -0.357671
  H     -2.118193   -0.664322   -1.552945
  H     -2.095586    0.597081   -0.237835
  C     -4.432749   -0.665005   -4.183704
  O     -5.511980   -0.222480   -3.434438
  H     -5.248983    0.389718   -2.720610
  H     -4.629903   -0.997595   -5.147036
  H     -3.745433    0.176684   -4.392793
  H     -3.865923   -1.420292   -3.627078

 Multiplicity           Mult            ....    1
 Number of Electrons    NEL             ....   18
 Basis Dimension        Dim             ....  172

ORBITAL ENERGIES
----------------

  NO   OCC          E(Eh)            E(eV)
   0   2.0000     -19.229663      -523.2657
   1   2.0000     -10.306928      -280.4658
   2   2.0000      -1.138688       -30.9853
   3   2.0000      -0.800105       -21.7720
   4   2.0000      -0.614719       -16.7274
   5   2.0000      -0.551167       -14.9980
   6   2.0000      -0.533593       -14.5198
   7   2.0000      -0.421488       -11.4693
   8   2.0000      -0.371140       -10.0992
   9   0.0000       0.071318         1.9407
  10   0.0000       0.132494         3.6053
  11   0.0000       0.148170         4.0319
  12   0.0000       0.157158         4.2765
  13   0.0000       0.199786         5.4365

MULLIKEN ATOMIC CHARGES
-----------------------
   0 C :    0.000716
   1 O :   -0.001635
   2 H :   -0.000426
   3 H :   -0.000249
   4 H :   -0.002098
   5 H :   -0.000012
   6 C :   -0.162246
   7 O :   -0.482079
   8 H :    0.323931
   9 H :    0.127959
  10 H :    0.097322
  11 H :    0.098817
Sum of atomic charges:    0.0000000

LOEWDIN ATOMIC CHARGES
----------------------
   0 C :   -0.005218
   1 O :   -0.010969
   2 H :   -0.001769
   3 H :   -0.000496
   4 H :   -0.001362
   5 H :   -0.000052
   6 C :   -0.395839
   7 O :   -0.059485
   8 H :    0.183394
   9 H :    0.094336
  10 H :    0.100330
  11 H :    0.097131

  Mayer bond orders larger than 0.1
B(  6-C ,  7-O ) :   0.9942 B(  6-C ,  9-H ) :   0.9695 B(  6-C , 10-H ) :   0.9867
B(  6-C , 11-H ) :   0.9834 B(  7-O ,  8-H ) :   0.8945

Dispersion correction           -0.000235534
FINAL SINGLE POINT ENERGY      -115.730387615588

DIPOLE MOMENT
-------------
                                X             Y             Z
Electronic contribution:     -1.62918       0.39848       0.83926
Nuclear contribution   :      2.21158      -0.16320      -0.70392
                        -----------------------------------------
Total Dipole Moment    :      0.58240       0.23528       0.13534
                        -----------------------------------------
Magnitude (a.u.)       :      0.64255
Magnitude (Debye)      :      1.63323

Rotational constants in cm-1:     4.495062     0.843899     0.823758
Rotational constants in MHz : 134758.567962 25299.452294 24695.657946

                             ****ORCA TERMINATED NORMALLY****
TOTAL RUN TIME: 0 days 0 hours 1 minutes 8 seconds 107 msec
