                         Program Version 4.1.2  - RELEASE  -
|  1> #Run DFT-D3 single point of the dimer
|  2> ! wB97X-D3 def2-TZVP TIGHTSCF CHELPG PMODEL PAL8
|  3>
|  4> %base "3-121_DFT_AB"
|  5>
|  6> %scf
|  7> MaxIter 1000
|  8> end
|  9>
| 10> * xyz 0 1
| 11>   C                      8.410197             3.010015             -0.062294
| 12>   O                      8.200692             3.657938             -1.307122
| 13>   H                      9.016419             3.833738             -1.740553
| 14>   H                      7.517326             2.979493             0.495077
| 15>   H                      8.723145             1.926999             -0.151185
| 16>   H                      9.352263             3.358656             0.548165
| 17>   C                      5.253205             4.507074             -3.053376
| 18>   O                      5.078979             3.592392             -4.076095
| 19>   H                      5.864764             3.683690             -4.620839
| 20>   H                      4.340975             4.627776             -2.440658
| 21>   H                      6.206101             4.469384             -2.478846
| 22>   H                      5.314553             5.510813             -3.427747
| 23> *
| 24>
| 25> #Run DFT-D3 single point of the molecule with dimer basis set
| 26> $new_job
| 27> %base "3-121_DFT_A"
| 28> ! wB97X-D3 def2-TZVP TIGHTSCF CHELPG PMODEL
| 29>
| 30> %scf
| 31> MaxIter 1000
| 32> end
| 33>
| 34> * xyz 0 1
| 35>   C                      8.410197             3.010015             -0.062294
| 36>   O                      8.200692             3.657938             -1.307122
| 37>   H                      9.016419             3.833738             -1.740553
| 38>   H                      7.517326             2.979493             0.495077
| 39>   H                      8.723145             1.926999             -0.151185
| 40>   H                      9.352263             3.358656             0.548165
| 41>   C                    : 5.253205             4.507074             -3.053376
| 42>   O                    : 5.078979             3.592392             -4.076095
| 43>   H                    : 5.864764             3.683690             -4.620839
| 44>   H                    : 4.340975             4.627776             -2.440658
| 45>   H                    : 6.206101             4.469384             -2.478846
| 46>   H                    : 5.314553             5.510813             -3.427747
| 47> *
| 48>
| 49> #Run DFT-D3 single point of the particle with dimer basis set
| 50> $new_job
| 51> %base "3-121_DFT_B"
| 52> ! wB97X-D3 def2-TZVP TIGHTSCF CHELPG PMODEL
| 53>
| 54> %scf
| 55> MaxIter 1000
| 56> end
| 57>
| 58> * xyz 0 1
| 59>   C                    : 8.410197             3.010015             -0.062294
| 60>   O                    : 8.200692             3.657938             -1.307122
| 61>   H                    : 9.016419             3.833738             -1.740553
| 62>   H                    : 7.517326             2.979493             0.495077
| 63>   H                    : 8.723145             1.926999             -0.151185
| 64>   H                    : 9.352263             3.358656             0.548165
| 65>   C                      5.253205             4.507074             -3.053376
| 66>   O                      5.078979             3.592392             -4.076095
| 67>   H                      5.864764             3.683690             -4.620839
| 68>   H                      4.340975             4.627776             -2.440658
| 69>   H                      6.206101             4.469384             -2.478846
| 70>   H                      5.314553             5.510813             -3.427747
| 71> *
| 72>
| 73>                          ****END OF INPUT****
 Total Charge           Charge          ....    0
 Multiplicity           Mult            ....    1
 Number of Electrons    NEL             ....   36
Dispersion correction           -0.001336248
FINAL SINGLE POINT ENERGY      -231.457243873072
Dispersion correction           -0.000281885
FINAL SINGLE POINT ENERGY      -115.727242320191

CARTESIAN COORDINATES (ANGSTROEM)
---------------------------------
  C      8.410197    3.010015   -0.062294
  O      8.200692    3.657938   -1.307122
  H      9.016419    3.833738   -1.740553
  H      7.517326    2.979493    0.495077
  H      8.723145    1.926999   -0.151185
  H      9.352263    3.358656    0.548165
  C      5.253205    4.507074   -3.053376
  O      5.078979    3.592392   -4.076095
  H      5.864764    3.683690   -4.620839
  H      4.340975    4.627776   -2.440658
  H      6.206101    4.469384   -2.478846
  H      5.314553    5.510813   -3.427747

 Multiplicity           Mult            ....    1
 Number of Electrons    NEL             ....   18
 Basis Dimension        Dim             ....  172

ORBITAL ENERGIES
----------------

  NO   OCC          E(Eh)            E(eV)
   0   2.0000     -19.235360      -523.4208
   1   2.0000     -10.310836      -280.5721
   2   2.0000      -1.150418       -31.3045
   3   2.0000      -0.795402       -21.6440
   4   2.0000      -0.623231       -16.9590
   5   2.0000      -0.543612       -14.7924
   6   2.0000      -0.524238       -14.2653
   7   2.0000      -0.439350       -11.9553
   8   2.0000      -0.369816       -10.0632
   9   0.0000       0.080839         2.1997
  10   0.0000       0.116972         3.1830
  11   0.0000       0.151674         4.1273
  12   0.0000       0.164944         4.4883
  13   0.0000       0.187950         5.1144

MULLIKEN ATOMIC CHARGES
-----------------------
   0 C :    0.000701
   1 O :    0.001640
   2 H :   -0.000120
   3 H :   -0.000234
   4 H :   -0.000087
   5 H :   -0.000020
   6 C :   -0.173770
   7 O :   -0.453824
   8 H :    0.316487
   9 H :    0.122454
  10 H :    0.087106
  11 H :    0.099668
Sum of atomic charges:    0.0000000

LOEWDIN ATOMIC CHARGES
----------------------
   0 C :   -0.001147
   1 O :   -0.007639
   2 H :   -0.000814
   3 H :   -0.000177
   4 H :   -0.000029
   5 H :   -0.000017
   6 C :   -0.424405
   7 O :   -0.046985
   8 H :    0.176020
   9 H :    0.114082
  10 H :    0.102000
  11 H :    0.089108

  Mayer bond orders larger than 0.1
B(  6-C ,  7-O ) :   1.0063 B(  6-C ,  9-H ) :   0.9745 B(  6-C , 10-H ) :   0.9698
B(  6-C , 11-H ) :   0.9793 B(  7-O ,  8-H ) :   0.8983

Dispersion correction           -0.000230770
FINAL SINGLE POINT ENERGY      -115.728709081279

DIPOLE MOMENT
-------------
                                X             Y             Z
Electronic contribution:     -0.36684      -1.49003      -1.28755
Nuclear contribution   :      0.91005       1.92301       1.29027
                        -----------------------------------------
Total Dipole Moment    :      0.54321       0.43298       0.00272
                        -----------------------------------------
Magnitude (a.u.)       :      0.69467
Magnitude (Debye)      :      1.76570

Rotational constants in cm-1:     4.395588     0.860613     0.814734
Rotational constants in MHz : 131776.409325 25800.524842 24425.100477

                             ****ORCA TERMINATED NORMALLY****
TOTAL RUN TIME: 0 days 0 hours 6 minutes 24 seconds 957 msec
