                         Program Version 4.1.2  - RELEASE  -
|  1> #Run DFT-D3 single point of the dimer
|  2> ! wB97X-D3 def2-TZVP TIGHTSCF CHELPG PMODEL PAL8
|  3>
|  4> %base "13-169_DFT_AB"
|  5>
|  6> %scf
|  7> MaxIter 1000
|  8> end
|  9>
| 10> * xyz 0 1
| 11>   C                      2.434177             -5.195059            -8.076676
| 12>   O                      3.688224             -5.636364            -8.621875
| 13>   H                      3.862159             -6.538386            -8.220550
| 14>   H                      2.321819             -5.141944            -7.007522
| 15>   H                      2.162235             -4.174228            -8.419748
| 16>   H                      1.607918             -5.820516            -8.429680
| 17>   C                      4.090717             -9.510797            -6.756593
| 18>   O                      3.728793             -8.464683            -7.637012
| 19>   H                      3.087358             -8.762864            -8.246154
| 20>   H                      4.810756             -10.156230           -7.292392
| 21>   H                      4.575964             -9.082096            -5.872654
| 22>   H                      3.256833             -10.164723           -6.534572
| 23> *
| 24>
| 25> #Run DFT-D3 single point of the molecule with dimer basis set
| 26> $new_job
| 27> %base "13-169_DFT_A"
| 28> ! wB97X-D3 def2-TZVP TIGHTSCF CHELPG PMODEL
| 29>
| 30> %scf
| 31> MaxIter 1000
| 32> end
| 33>
| 34> * xyz 0 1
| 35>   C                      2.434177             -5.195059            -8.076676
| 36>   O                      3.688224             -5.636364            -8.621875
| 37>   H                      3.862159             -6.538386            -8.220550
| 38>   H                      2.321819             -5.141944            -7.007522
| 39>   H                      2.162235             -4.174228            -8.419748
| 40>   H                      1.607918             -5.820516            -8.429680
| 41>   C                    : 4.090717             -9.510797            -6.756593
| 42>   O                    : 3.728793             -8.464683            -7.637012
| 43>   H                    : 3.087358             -8.762864            -8.246154
| 44>   H                    : 4.810756             -10.156230           -7.292392
| 45>   H                    : 4.575964             -9.082096            -5.872654
| 46>   H                    : 3.256833             -10.164723           -6.534572
| 47> *
| 48>
| 49> #Run DFT-D3 single point of the particle with dimer basis set
| 50> $new_job
| 51> %base "13-169_DFT_B"
| 52> ! wB97X-D3 def2-TZVP TIGHTSCF CHELPG PMODEL
| 53>
| 54> %scf
| 55> MaxIter 1000
| 56> end
| 57>
| 58> * xyz 0 1
| 59>   C                    : 2.434177             -5.195059            -8.076676
| 60>   O                    : 3.688224             -5.636364            -8.621875
| 61>   H                    : 3.862159             -6.538386            -8.220550
| 62>   H                    : 2.321819             -5.141944            -7.007522
| 63>   H                    : 2.162235             -4.174228            -8.419748
| 64>   H                    : 1.607918             -5.820516            -8.429680
| 65>   C                      4.090717             -9.510797            -6.756593
| 66>   O                      3.728793             -8.464683            -7.637012
| 67>   H                      3.087358             -8.762864            -8.246154
| 68>   H                      4.810756             -10.156230           -7.292392
| 69>   H                      4.575964             -9.082096            -5.872654
| 70>   H                      3.256833             -10.164723           -6.534572
| 71> *
| 72>
| 73>                          ****END OF INPUT****
 Total Charge           Charge          ....    0
 Multiplicity           Mult            ....    1
 Number of Electrons    NEL             ....   36
Dispersion correction           -0.001583457
FINAL SINGLE POINT ENERGY      -231.475254382602
Dispersion correction           -0.000268700
FINAL SINGLE POINT ENERGY      -115.732088913653

CARTESIAN COORDINATES (ANGSTROEM)
---------------------------------
  C      2.434177   -5.195059   -8.076676
  O      3.688224   -5.636364   -8.621875
  H      3.862159   -6.538386   -8.220550
  H      2.321819   -5.141944   -7.007522
  H      2.162235   -4.174228   -8.419748
  H      1.607918   -5.820516   -8.429680
  C      4.090717   -9.510797   -6.756593
  O      3.728793   -8.464683   -7.637012
  H      3.087358   -8.762864   -8.246154
  H      4.810756  -10.156230   -7.292392
  H      4.575964   -9.082096   -5.872654
  H      3.256833  -10.164723   -6.534572

 Multiplicity           Mult            ....    1
 Number of Electrons    NEL             ....   18
 Basis Dimension        Dim             ....  172

ORBITAL ENERGIES
----------------

  NO   OCC          E(Eh)            E(eV)
   0   2.0000     -19.225435      -523.1507
   1   2.0000     -10.314310      -280.6666
   2   2.0000      -1.139776       -31.0149
   3   2.0000      -0.798280       -21.7223
   4   2.0000      -0.617009       -16.7897
   5   2.0000      -0.536179       -14.5902
   6   2.0000      -0.531793       -14.4708
   7   2.0000      -0.437749       -11.9118
   8   2.0000      -0.369602       -10.0574
   9   0.0000       0.095781         2.6063
  10   0.0000       0.125975         3.4280
  11   0.0000       0.157901         4.2967
  12   0.0000       0.186495         5.0748
  13   0.0000       0.201946         5.4952

MULLIKEN ATOMIC CHARGES
-----------------------
   0 C :   -0.000126
   1 O :    0.000837
   2 H :   -0.010454
   3 H :   -0.001098
   4 H :   -0.000348
   5 H :   -0.001554
   6 C :   -0.156639
   7 O :   -0.466423
   8 H :    0.309903
   9 H :    0.098048
  10 H :    0.122997
  11 H :    0.104857
Sum of atomic charges:    0.0000000

LOEWDIN ATOMIC CHARGES
----------------------
   0 C :   -0.004824
   1 O :   -0.003067
   2 H :   -0.035416
   3 H :   -0.000458
   4 H :   -0.000091
   5 H :   -0.000668
   6 C :   -0.375529
   7 O :   -0.032988
   8 H :    0.151897
   9 H :    0.097272
  10 H :    0.110084
  11 H :    0.093789

  Mayer bond orders larger than 0.1
B(  6-C ,  7-O ) :   0.9883 B(  6-C ,  9-H ) :   0.9792 B(  6-C , 10-H ) :   0.9755
B(  6-C , 11-H ) :   0.9734 B(  7-O ,  8-H ) :   0.9018

Dispersion correction           -0.000231159
FINAL SINGLE POINT ENERGY      -115.734869052771

DIPOLE MOMENT
-------------
                                X             Y             Z
Electronic contribution:     -0.43866       1.41688      -0.92496
Nuclear contribution   :      0.15750      -2.05303       0.88960
                        -----------------------------------------
Total Dipole Moment    :     -0.28116      -0.63615      -0.03536
                        -----------------------------------------
Magnitude (a.u.)       :      0.69641
Magnitude (Debye)      :      1.77013

Rotational constants in cm-1:     4.297757     0.838881     0.802813
Rotational constants in MHz : 128843.525645 25149.007227 24067.739498

                             ****ORCA TERMINATED NORMALLY****
TOTAL RUN TIME: 0 days 0 hours 1 minutes 12 seconds 414 msec
