                         Program Version 4.1.2  - RELEASE  -
|  1> #Run DFT-D3 single point of the dimer
|  2> ! wB97X-D3 def2-TZVP TIGHTSCF CHELPG PMODEL PAL8
|  3>
|  4> %base "10-73_DFT_AB"
|  5>
|  6> %scf
|  7> MaxIter 1000
|  8> end
|  9>
| 10> * xyz 0 1
| 11>   C                      4.546624             -10.081734           -0.355543
| 12>   O                      3.316980             -9.471916            -0.450149
| 13>   H                      3.133284             -8.853097            0.272998
| 14>   H                      5.079215             -10.102797           -1.305874
| 15>   H                      5.187251             -9.604669            0.363695
| 16>   H                      4.466684             -11.200598           -0.094542
| 17>   C                      7.749190             -8.148182            -2.780559
| 18>   O                      8.393425             -8.818882            -1.696221
| 19>   H                      8.348351             -9.776244            -1.949852
| 20>   H                      8.096929             -8.590309            -3.747867
| 21>   H                      6.636254             -8.120923            -2.809350
| 22>   H                      8.009079             -7.099678            -2.855379
| 23> *
| 24>
| 25> #Run DFT-D3 single point of the molecule with dimer basis set
| 26> $new_job
| 27> %base "10-73_DFT_A"
| 28> ! wB97X-D3 def2-TZVP TIGHTSCF CHELPG PMODEL
| 29>
| 30> %scf
| 31> MaxIter 1000
| 32> end
| 33>
| 34> * xyz 0 1
| 35>   C                      4.546624             -10.081734           -0.355543
| 36>   O                      3.316980             -9.471916            -0.450149
| 37>   H                      3.133284             -8.853097            0.272998
| 38>   H                      5.079215             -10.102797           -1.305874
| 39>   H                      5.187251             -9.604669            0.363695
| 40>   H                      4.466684             -11.200598           -0.094542
| 41>   C                    : 7.749190             -8.148182            -2.780559
| 42>   O                    : 8.393425             -8.818882            -1.696221
| 43>   H                    : 8.348351             -9.776244            -1.949852
| 44>   H                    : 8.096929             -8.590309            -3.747867
| 45>   H                    : 6.636254             -8.120923            -2.809350
| 46>   H                    : 8.009079             -7.099678            -2.855379
| 47> *
| 48>
| 49> #Run DFT-D3 single point of the particle with dimer basis set
| 50> $new_job
| 51> %base "10-73_DFT_B"
| 52> ! wB97X-D3 def2-TZVP TIGHTSCF CHELPG PMODEL
| 53>
| 54> %scf
| 55> MaxIter 1000
| 56> end
| 57>
| 58> * xyz 0 1
| 59>   C                    : 4.546624             -10.081734           -0.355543
| 60>   O                    : 3.316980             -9.471916            -0.450149
| 61>   H                    : 3.133284             -8.853097            0.272998
| 62>   H                    : 5.079215             -10.102797           -1.305874
| 63>   H                    : 5.187251             -9.604669            0.363695
| 64>   H                    : 4.466684             -11.200598           -0.094542
| 65>   C                      7.749190             -8.148182            -2.780559
| 66>   O                      8.393425             -8.818882            -1.696221
| 67>   H                      8.348351             -9.776244            -1.949852
| 68>   H                      8.096929             -8.590309            -3.747867
| 69>   H                      6.636254             -8.120923            -2.809350
| 70>   H                      8.009079             -7.099678            -2.855379
| 71> *
| 72>
| 73>                          ****END OF INPUT****
 Total Charge           Charge          ....    0
 Multiplicity           Mult            ....    1
 Number of Electrons    NEL             ....   36
Dispersion correction           -0.001284887
FINAL SINGLE POINT ENERGY      -231.464963720254
Dispersion correction           -0.000254254
FINAL SINGLE POINT ENERGY      -115.732064378542

CARTESIAN COORDINATES (ANGSTROEM)
---------------------------------
  C      4.546624  -10.081734   -0.355543
  O      3.316980   -9.471916   -0.450149
  H      3.133284   -8.853097    0.272998
  H      5.079215  -10.102797   -1.305874
  H      5.187251   -9.604669    0.363695
  H      4.466684  -11.200598   -0.094542
  C      7.749190   -8.148182   -2.780559
  O      8.393425   -8.818882   -1.696221
  H      8.348351   -9.776244   -1.949852
  H      8.096929   -8.590309   -3.747867
  H      6.636254   -8.120923   -2.809350
  H      8.009079   -7.099678   -2.855379

 Multiplicity           Mult            ....    1
 Number of Electrons    NEL             ....   18
 Basis Dimension        Dim             ....  172

ORBITAL ENERGIES
----------------

  NO   OCC          E(Eh)            E(eV)
   0   2.0000     -19.239267      -523.5271
   1   2.0000     -10.318384      -280.7775
   2   2.0000      -1.131098       -30.7787
   3   2.0000      -0.792456       -21.5638
   4   2.0000      -0.604546       -16.4505
   5   2.0000      -0.537134       -14.6161
   6   2.0000      -0.526830       -14.3358
   7   2.0000      -0.435175       -11.8417
   8   2.0000      -0.376412       -10.2427
   9   0.0000       0.084340         2.2950
  10   0.0000       0.116254         3.1634
  11   0.0000       0.146253         3.9798
  12   0.0000       0.169294         4.6067
  13   0.0000       0.187565         5.1039

MULLIKEN ATOMIC CHARGES
-----------------------
   0 C :    0.000090
   1 O :   -0.000015
   2 H :   -0.000006
   3 H :   -0.000382
   4 H :   -0.000713
   5 H :   -0.000067
   6 C :   -0.185291
   7 O :   -0.464340
   8 H :    0.320764
   9 H :    0.100404
  10 H :    0.104293
  11 H :    0.125264
Sum of atomic charges:   -0.0000000

LOEWDIN ATOMIC CHARGES
----------------------
   0 C :   -0.001248
   1 O :   -0.000023
   2 H :   -0.000003
   3 H :   -0.000974
   4 H :   -0.000445
   5 H :   -0.000004
   6 C :   -0.392772
   7 O :   -0.095294
   8 H :    0.190712
   9 H :    0.099616
  10 H :    0.096425
  11 H :    0.104010

  Mayer bond orders larger than 0.1
B(  6-C ,  7-O ) :   1.0125 B(  6-C ,  9-H ) :   0.9865 B(  6-C , 10-H ) :   0.9627
B(  6-C , 11-H ) :   0.9763 B(  7-O ,  8-H ) :   0.8953

Dispersion correction           -0.000264252
FINAL SINGLE POINT ENERGY      -115.731717046771

DIPOLE MOMENT
-------------
                                X             Y             Z
Electronic contribution:      0.87253      -0.74411       1.63561
Nuclear contribution   :     -1.12545       0.43669      -2.22067
                        -----------------------------------------
Total Dipole Moment    :     -0.25293      -0.30743      -0.58506
                        -----------------------------------------
Magnitude (a.u.)       :      0.70765
Magnitude (Debye)      :      1.79872

Rotational constants in cm-1:     4.289294     0.806026     0.777263
Rotational constants in MHz : 128589.808990 24164.061797 23301.770185

                             ****ORCA TERMINATED NORMALLY****
TOTAL RUN TIME: 0 days 0 hours 1 minutes 3 seconds 489 msec
