                         Program Version 4.1.2  - RELEASE  -
|  1> #Run DFT-D3 single point of the dimer
|  2> ! wB97X-D3 def2-TZVP TIGHTSCF CHELPG PMODEL PAL8
|  3>
|  4> %base "13-171_DFT_AB"
|  5>
|  6> %scf
|  7> MaxIter 1000
|  8> end
|  9>
| 10> * xyz 0 1
| 11>   C                      9.283858             -5.757747            -3.139384
| 12>   O                      8.225100             -5.557403            -2.232636
| 13>   H                      8.318811             -6.113100            -1.439715
| 14>   H                      9.115013             -6.384700            -4.047864
| 15>   H                      9.702666             -4.787642            -3.524133
| 16>   H                      10.146788            -6.180911            -2.638393
| 17>   C                      5.160119             -4.518508            -1.480591
| 18>   O                      6.307349             -3.679778            -1.437952
| 19>   H                      6.918061             -4.117089            -2.025001
| 20>   H                      4.300942             -3.910907            -1.216338
| 21>   H                      4.971459             -5.059759            -2.422785
| 22>   H                      5.262418             -5.328838            -0.725788
| 23> *
| 24>
| 25> #Run DFT-D3 single point of the molecule with dimer basis set
| 26> $new_job
| 27> %base "13-171_DFT_A"
| 28> ! wB97X-D3 def2-TZVP TIGHTSCF CHELPG PMODEL
| 29>
| 30> %scf
| 31> MaxIter 1000
| 32> end
| 33>
| 34> * xyz 0 1
| 35>   C                      9.283858             -5.757747            -3.139384
| 36>   O                      8.225100             -5.557403            -2.232636
| 37>   H                      8.318811             -6.113100            -1.439715
| 38>   H                      9.115013             -6.384700            -4.047864
| 39>   H                      9.702666             -4.787642            -3.524133
| 40>   H                      10.146788            -6.180911            -2.638393
| 41>   C                    : 5.160119             -4.518508            -1.480591
| 42>   O                    : 6.307349             -3.679778            -1.437952
| 43>   H                    : 6.918061             -4.117089            -2.025001
| 44>   H                    : 4.300942             -3.910907            -1.216338
| 45>   H                    : 4.971459             -5.059759            -2.422785
| 46>   H                    : 5.262418             -5.328838            -0.725788
| 47> *
| 48>
| 49> #Run DFT-D3 single point of the particle with dimer basis set
| 50> $new_job
| 51> %base "13-171_DFT_B"
| 52> ! wB97X-D3 def2-TZVP TIGHTSCF CHELPG PMODEL
| 53>
| 54> %scf
| 55> MaxIter 1000
| 56> end
| 57>
| 58> * xyz 0 1
| 59>   C                    : 9.283858             -5.757747            -3.139384
| 60>   O                    : 8.225100             -5.557403            -2.232636
| 61>   H                    : 8.318811             -6.113100            -1.439715
| 62>   H                    : 9.115013             -6.384700            -4.047864
| 63>   H                    : 9.702666             -4.787642            -3.524133
| 64>   H                    : 10.146788            -6.180911            -2.638393
| 65>   C                      5.160119             -4.518508            -1.480591
| 66>   O                      6.307349             -3.679778            -1.437952
| 67>   H                      6.918061             -4.117089            -2.025001
| 68>   H                      4.300942             -3.910907            -1.216338
| 69>   H                      4.971459             -5.059759            -2.422785
| 70>   H                      5.262418             -5.328838            -0.725788
| 71> *
| 72>
| 73>                          ****END OF INPUT****
 Total Charge           Charge          ....    0
 Multiplicity           Mult            ....    1
 Number of Electrons    NEL             ....   36
Dispersion correction           -0.001771228
FINAL SINGLE POINT ENERGY      -231.473918431383
Dispersion correction           -0.000272735
FINAL SINGLE POINT ENERGY      -115.731799433677

CARTESIAN COORDINATES (ANGSTROEM)
---------------------------------
  C      9.283858   -5.757747   -3.139384
  O      8.225100   -5.557403   -2.232636
  H      8.318811   -6.113100   -1.439715
  H      9.115013   -6.384700   -4.047864
  H      9.702666   -4.787642   -3.524133
  H     10.146788   -6.180911   -2.638393
  C      5.160119   -4.518508   -1.480591
  O      6.307349   -3.679778   -1.437952
  H      6.918061   -4.117089   -2.025001
  H      4.300942   -3.910907   -1.216338
  H      4.971459   -5.059759   -2.422785
  H      5.262418   -5.328838   -0.725788

 Multiplicity           Mult            ....    1
 Number of Electrons    NEL             ....   18
 Basis Dimension        Dim             ....  172

ORBITAL ENERGIES
----------------

  NO   OCC          E(Eh)            E(eV)
   0   2.0000     -19.233505      -523.3703
   1   2.0000     -10.315554      -280.7005
   2   2.0000      -1.139841       -31.0167
   3   2.0000      -0.793674       -21.5970
   4   2.0000      -0.614146       -16.7118
   5   2.0000      -0.535627       -14.5752
   6   2.0000      -0.522819       -14.2266
   7   2.0000      -0.447223       -12.1696
   8   2.0000      -0.373140       -10.1537
   9   0.0000       0.070282         1.9125
  10   0.0000       0.127338         3.4650
  11   0.0000       0.152002         4.1362
  12   0.0000       0.163681         4.4540
  13   0.0000       0.191795         5.2190

MULLIKEN ATOMIC CHARGES
-----------------------
   0 C :   -0.002400
   1 O :   -0.006629
   2 H :   -0.000853
   3 H :    0.000034
   4 H :    0.000064
   5 H :    0.000077
   6 C :   -0.182086
   7 O :   -0.456191
   8 H :    0.312234
   9 H :    0.125867
  10 H :    0.108796
  11 H :    0.101088
Sum of atomic charges:    0.0000000

LOEWDIN ATOMIC CHARGES
----------------------
   0 C :   -0.002362
   1 O :   -0.021442
   2 H :   -0.002245
   3 H :   -0.000041
   4 H :   -0.000148
   5 H :   -0.000054
   6 C :   -0.385912
   7 O :   -0.062837
   8 H :    0.172935
   9 H :    0.106167
  10 H :    0.097738
  11 H :    0.098202

  Mayer bond orders larger than 0.1
B(  6-C ,  7-O ) :   0.9972 B(  6-C ,  9-H ) :   0.9767 B(  6-C , 10-H ) :   0.9735
B(  6-C , 11-H ) :   0.9763 B(  7-O ,  8-H ) :   0.9085

Dispersion correction           -0.000241773
FINAL SINGLE POINT ENERGY      -115.734991817069

DIPOLE MOMENT
-------------
                                X             Y             Z
Electronic contribution:      1.40050       1.25794       0.07298
Nuclear contribution   :     -1.47527      -1.84616      -0.46281
                        -----------------------------------------
Total Dipole Moment    :     -0.07477      -0.58822      -0.38983
                        -----------------------------------------
Magnitude (a.u.)       :      0.70962
Magnitude (Debye)      :      1.80371

Rotational constants in cm-1:     4.248242     0.828751     0.794189
Rotational constants in MHz : 127359.079017 24845.333912 23809.194847

                             ****ORCA TERMINATED NORMALLY****
TOTAL RUN TIME: 0 days 0 hours 1 minutes 12 seconds 119 msec
