                         Program Version 4.1.2  - RELEASE  -
|  1> #Run DFT-D3 single point of the dimer
|  2> ! wB97X-D3 def2-TZVP TIGHTSCF CHELPG PMODEL PAL8
|  3>
|  4> %base "20-197_DFT_AB"
|  5>
|  6> %scf
|  7> MaxIter 1000
|  8> end
|  9>
| 10> * xyz 0 1
| 11>   C                      -2.629353            0.751410             -0.072952
| 12>   O                      -2.026080            2.004343             -0.059670
| 13>   H                      -2.642368            2.604601             0.310254
| 14>   H                      -1.946076            0.063422             -0.479698
| 15>   H                      -2.841996            0.328647             0.935642
| 16>   H                      -3.550534            0.740549             -0.749496
| 17>   C                      -2.065024            1.993870             3.896017
| 18>   O                      -3.350795            2.456137             3.500753
| 19>   H                      -3.641695            1.730003             2.923520
| 20>   H                      -1.640461            2.669533             4.674647
| 21>   H                      -2.055082            1.008764             4.267049
| 22>   H                      -1.361127            2.053364             3.044576
| 23> *
| 24>
| 25> #Run DFT-D3 single point of the molecule with dimer basis set
| 26> $new_job
| 27> %base "20-197_DFT_A"
| 28> ! wB97X-D3 def2-TZVP TIGHTSCF CHELPG PMODEL
| 29>
| 30> %scf
| 31> MaxIter 1000
| 32> end
| 33>
| 34> * xyz 0 1
| 35>   C                      -2.629353            0.751410             -0.072952
| 36>   O                      -2.026080            2.004343             -0.059670
| 37>   H                      -2.642368            2.604601             0.310254
| 38>   H                      -1.946076            0.063422             -0.479698
| 39>   H                      -2.841996            0.328647             0.935642
| 40>   H                      -3.550534            0.740549             -0.749496
| 41>   C                    : -2.065024            1.993870             3.896017
| 42>   O                    : -3.350795            2.456137             3.500753
| 43>   H                    : -3.641695            1.730003             2.923520
| 44>   H                    : -1.640461            2.669533             4.674647
| 45>   H                    : -2.055082            1.008764             4.267049
| 46>   H                    : -1.361127            2.053364             3.044576
| 47> *
| 48>
| 49> #Run DFT-D3 single point of the particle with dimer basis set
| 50> $new_job
| 51> %base "20-197_DFT_B"
| 52> ! wB97X-D3 def2-TZVP TIGHTSCF CHELPG PMODEL
| 53>
| 54> %scf
| 55> MaxIter 1000
| 56> end
| 57>
| 58> * xyz 0 1
| 59>   C                    : -2.629353            0.751410             -0.072952
| 60>   O                    : -2.026080            2.004343             -0.059670
| 61>   H                    : -2.642368            2.604601             0.310254
| 62>   H                    : -1.946076            0.063422             -0.479698
| 63>   H                    : -2.841996            0.328647             0.935642
| 64>   H                    : -3.550534            0.740549             -0.749496
| 65>   C                      -2.065024            1.993870             3.896017
| 66>   O                      -3.350795            2.456137             3.500753
| 67>   H                      -3.641695            1.730003             2.923520
| 68>   H                      -1.640461            2.669533             4.674647
| 69>   H                      -2.055082            1.008764             4.267049
| 70>   H                      -1.361127            2.053364             3.044576
| 71> *
| 72>
| 73>                          ****END OF INPUT****
 Total Charge           Charge          ....    0
 Multiplicity           Mult            ....    1
 Number of Electrons    NEL             ....   36
Dispersion correction           -0.001944841
FINAL SINGLE POINT ENERGY      -231.470092972375
Dispersion correction           -0.000239338
FINAL SINGLE POINT ENERGY      -115.733772834610

CARTESIAN COORDINATES (ANGSTROEM)
---------------------------------
  C     -2.629353    0.751410   -0.072952
  O     -2.026080    2.004343   -0.059670
  H     -2.642368    2.604601    0.310254
  H     -1.946076    0.063422   -0.479698
  H     -2.841996    0.328647    0.935642
  H     -3.550534    0.740549   -0.749496
  C     -2.065024    1.993870    3.896017
  O     -3.350795    2.456137    3.500753
  H     -3.641695    1.730003    2.923520
  H     -1.640461    2.669533    4.674647
  H     -2.055082    1.008764    4.267049
  H     -1.361127    2.053364    3.044576

 Multiplicity           Mult            ....    1
 Number of Electrons    NEL             ....   18
 Basis Dimension        Dim             ....  172

ORBITAL ENERGIES
----------------

  NO   OCC          E(Eh)            E(eV)
   0   2.0000     -19.234987      -523.4106
   1   2.0000     -10.312207      -280.6094
   2   2.0000      -1.136922       -30.9372
   3   2.0000      -0.793250       -21.5854
   4   2.0000      -0.609837       -16.5945
   5   2.0000      -0.543117       -14.7790
   6   2.0000      -0.522749       -14.2247
   7   2.0000      -0.442499       -12.0410
   8   2.0000      -0.375211       -10.2100
   9   0.0000       0.073042         1.9876
  10   0.0000       0.133281         3.6267
  11   0.0000       0.149785         4.0758
  12   0.0000       0.159972         4.3531
  13   0.0000       0.190769         5.1911

MULLIKEN ATOMIC CHARGES
-----------------------
   0 C :   -0.000902
   1 O :    0.000513
   2 H :   -0.002461
   3 H :   -0.000061
   4 H :   -0.001079
   5 H :    0.000121
   6 C :   -0.185956
   7 O :   -0.458760
   8 H :    0.313883
   9 H :    0.120230
  10 H :    0.113673
  11 H :    0.100800
Sum of atomic charges:   -0.0000000

LOEWDIN ATOMIC CHARGES
----------------------
   0 C :   -0.002368
   1 O :   -0.000551
   2 H :   -0.002207
   3 H :   -0.000020
   4 H :   -0.001807
   5 H :   -0.000015
   6 C :   -0.385566
   7 O :   -0.081453
   8 H :    0.178585
   9 H :    0.113338
  10 H :    0.085828
  11 H :    0.096237

  Mayer bond orders larger than 0.1
B(  6-C ,  7-O ) :   1.0031 B(  6-C ,  9-H ) :   0.9751 B(  6-C , 10-H ) :   0.9752
B(  6-C , 11-H ) :   0.9765 B(  7-O ,  8-H ) :   0.9040

Dispersion correction           -0.000226609
FINAL SINGLE POINT ENERGY      -115.734140801935

DIPOLE MOMENT
-------------
                                X             Y             Z
Electronic contribution:     -1.72056       0.65064      -0.36469
Nuclear contribution   :      2.04050      -1.28391       0.18504
                        -----------------------------------------
Total Dipole Moment    :      0.31993      -0.63328      -0.17966
                        -----------------------------------------
Magnitude (a.u.)       :      0.73190
Magnitude (Debye)      :      1.86034

Rotational constants in cm-1:     4.253391     0.830373     0.796546
Rotational constants in MHz : 127513.450331 24893.942558 23879.860816

                             ****ORCA TERMINATED NORMALLY****
TOTAL RUN TIME: 0 days 0 hours 1 minutes 8 seconds 50 msec
