                         Program Version 4.1.2  - RELEASE  -
|  1> #Run DFT-D3 single point of the dimer
|  2> ! wB97X-D3 def2-TZVP TIGHTSCF CHELPG PMODEL PAL8
|  3>
|  4> %base "19-123_DFT_AB"
|  5>
|  6> %scf
|  7> MaxIter 1000
|  8> end
|  9>
| 10> * xyz 0 1
| 11>   C                      5.736915             6.096399             -5.489844
| 12>   O                      5.154897             4.938208             -6.015251
| 13>   H                      5.492586             4.122501             -5.681083
| 14>   H                      5.357355             6.307799             -4.486453
| 15>   H                      6.834772             6.055645             -5.421734
| 16>   H                      5.315370             6.965713             -6.146136
| 17>   C                      5.601645             2.865781             -2.937412
| 18>   O                      6.469794             3.049377             -4.069682
| 19>   H                      7.333711             3.399525             -3.798781
| 20>   H                      5.628178             3.723211             -2.224318
| 21>   H                      4.562722             2.880509             -3.237617
| 22>   H                      5.848391             1.946578             -2.433106
| 23> *
| 24>
| 25> #Run DFT-D3 single point of the molecule with dimer basis set
| 26> $new_job
| 27> %base "19-123_DFT_A"
| 28> ! wB97X-D3 def2-TZVP TIGHTSCF CHELPG PMODEL
| 29>
| 30> %scf
| 31> MaxIter 1000
| 32> end
| 33>
| 34> * xyz 0 1
| 35>   C                      5.736915             6.096399             -5.489844
| 36>   O                      5.154897             4.938208             -6.015251
| 37>   H                      5.492586             4.122501             -5.681083
| 38>   H                      5.357355             6.307799             -4.486453
| 39>   H                      6.834772             6.055645             -5.421734
| 40>   H                      5.315370             6.965713             -6.146136
| 41>   C                    : 5.601645             2.865781             -2.937412
| 42>   O                    : 6.469794             3.049377             -4.069682
| 43>   H                    : 7.333711             3.399525             -3.798781
| 44>   H                    : 5.628178             3.723211             -2.224318
| 45>   H                    : 4.562722             2.880509             -3.237617
| 46>   H                    : 5.848391             1.946578             -2.433106
| 47> *
| 48>
| 49> #Run DFT-D3 single point of the particle with dimer basis set
| 50> $new_job
| 51> %base "19-123_DFT_B"
| 52> ! wB97X-D3 def2-TZVP TIGHTSCF CHELPG PMODEL
| 53>
| 54> %scf
| 55> MaxIter 1000
| 56> end
| 57>
| 58> * xyz 0 1
| 59>   C                    : 5.736915             6.096399             -5.489844
| 60>   O                    : 5.154897             4.938208             -6.015251
| 61>   H                    : 5.492586             4.122501             -5.681083
| 62>   H                    : 5.357355             6.307799             -4.486453
| 63>   H                    : 6.834772             6.055645             -5.421734
| 64>   H                    : 5.315370             6.965713             -6.146136
| 65>   C                      5.601645             2.865781             -2.937412
| 66>   O                      6.469794             3.049377             -4.069682
| 67>   H                      7.333711             3.399525             -3.798781
| 68>   H                      5.628178             3.723211             -2.224318
| 69>   H                      4.562722             2.880509             -3.237617
| 70>   H                      5.848391             1.946578             -2.433106
| 71> *
| 72>
| 73>                          ****END OF INPUT****
 Total Charge           Charge          ....    0
 Multiplicity           Mult            ....    1
 Number of Electrons    NEL             ....   36
Dispersion correction           -0.002118708
FINAL SINGLE POINT ENERGY      -231.473965927805
Dispersion correction           -0.000259027
FINAL SINGLE POINT ENERGY      -115.731727366627

CARTESIAN COORDINATES (ANGSTROEM)
---------------------------------
  C      5.736915    6.096399   -5.489844
  O      5.154897    4.938208   -6.015251
  H      5.492586    4.122501   -5.681083
  H      5.357355    6.307799   -4.486453
  H      6.834772    6.055645   -5.421734
  H      5.315370    6.965713   -6.146136
  C      5.601645    2.865781   -2.937412
  O      6.469794    3.049377   -4.069682
  H      7.333711    3.399525   -3.798781
  H      5.628178    3.723211   -2.224318
  H      4.562722    2.880509   -3.237617
  H      5.848391    1.946578   -2.433106

 Multiplicity           Mult            ....    1
 Number of Electrons    NEL             ....   18
 Basis Dimension        Dim             ....  172

ORBITAL ENERGIES
----------------

  NO   OCC          E(Eh)            E(eV)
   0   2.0000     -19.230785      -523.2963
   1   2.0000     -10.315142      -280.6893
   2   2.0000      -1.124827       -30.6081
   3   2.0000      -0.798747       -21.7350
   4   2.0000      -0.604073       -16.4377
   5   2.0000      -0.548371       -14.9219
   6   2.0000      -0.521042       -14.1783
   7   2.0000      -0.427500       -11.6329
   8   2.0000      -0.376726       -10.2512
   9   0.0000       0.090400         2.4599
  10   0.0000       0.131568         3.5801
  11   0.0000       0.146270         3.9802
  12   0.0000       0.176807         4.8112
  13   0.0000       0.201160         5.4738

MULLIKEN ATOMIC CHARGES
-----------------------
   0 C :   -0.005264
   1 O :    0.000530
   2 H :   -0.003841
   3 H :   -0.000202
   4 H :   -0.002128
   5 H :   -0.000478
   6 C :   -0.166926
   7 O :   -0.485007
   8 H :    0.318236
   9 H :    0.104452
  10 H :    0.126349
  11 H :    0.114279
Sum of atomic charges:    0.0000000

LOEWDIN ATOMIC CHARGES
----------------------
   0 C :   -0.007705
   1 O :   -0.003833
   2 H :   -0.025320
   3 H :   -0.000554
   4 H :   -0.001475
   5 H :   -0.000165
   6 C :   -0.365402
   7 O :   -0.070717
   8 H :    0.172695
   9 H :    0.100347
  10 H :    0.107214
  11 H :    0.094914

  Mayer bond orders larger than 0.1
B(  6-C ,  7-O ) :   0.9825 B(  6-C ,  9-H ) :   0.9767 B(  6-C , 10-H ) :   0.9740
B(  6-C , 11-H ) :   0.9740 B(  7-O ,  8-H ) :   0.8928

Dispersion correction           -0.000263335
FINAL SINGLE POINT ENERGY      -115.734694446815

DIPOLE MOMENT
-------------
                                X             Y             Z
Electronic contribution:      0.99993       0.08905      -1.50447
Nuclear contribution   :     -0.82816       0.05627       2.15899
                        -----------------------------------------
Total Dipole Moment    :      0.17177       0.14532       0.65452
                        -----------------------------------------
Magnitude (a.u.)       :      0.69212
Magnitude (Debye)      :      1.75922

Rotational constants in cm-1:     4.356545     0.797546     0.778446
Rotational constants in MHz : 130605.948339 23909.829016 23337.235604

                             ****ORCA TERMINATED NORMALLY****
TOTAL RUN TIME: 0 days 0 hours 0 minutes 52 seconds 10 msec
