                         Program Version 4.1.2  - RELEASE  -
|  1> #Run DFT-D3 single point of the dimer
|  2> ! wB97X-D3 def2-TZVP TIGHTSCF CHELPG PMODEL PAL8
|  3>
|  4> %base "18-161_DFT_AB"
|  5>
|  6> %scf
|  7> MaxIter 1000
|  8> end
|  9>
| 10> * xyz 0 1
| 11>   C                      2.543895             -7.348491            7.449240
| 12>   O                      2.114794             -6.008798            7.767195
| 13>   H                      1.167584             -5.999289            7.725169
| 14>   H                      1.824056             -7.871212            6.835740
| 15>   H                      3.470852             -7.412637            6.832547
| 16>   H                      2.527036             -8.011973            8.287322
| 17>   C                      1.842494             -5.490414            4.222264
| 18>   O                      0.779058             -4.891262            4.888618
| 19>   H                      0.293986             -5.565972            5.331256
| 20>   H                      2.573357             -4.701865            3.988026
| 21>   H                      2.324572             -6.211238            4.978611
| 22>   H                      1.640042             -6.048494            3.297003
| 23> *
| 24>
| 25> #Run DFT-D3 single point of the molecule with dimer basis set
| 26> $new_job
| 27> %base "18-161_DFT_A"
| 28> ! wB97X-D3 def2-TZVP TIGHTSCF CHELPG PMODEL
| 29>
| 30> %scf
| 31> MaxIter 1000
| 32> end
| 33>
| 34> * xyz 0 1
| 35>   C                      2.543895             -7.348491            7.449240
| 36>   O                      2.114794             -6.008798            7.767195
| 37>   H                      1.167584             -5.999289            7.725169
| 38>   H                      1.824056             -7.871212            6.835740
| 39>   H                      3.470852             -7.412637            6.832547
| 40>   H                      2.527036             -8.011973            8.287322
| 41>   C                    : 1.842494             -5.490414            4.222264
| 42>   O                    : 0.779058             -4.891262            4.888618
| 43>   H                    : 0.293986             -5.565972            5.331256
| 44>   H                    : 2.573357             -4.701865            3.988026
| 45>   H                    : 2.324572             -6.211238            4.978611
| 46>   H                    : 1.640042             -6.048494            3.297003
| 47> *
| 48>
| 49> #Run DFT-D3 single point of the particle with dimer basis set
| 50> $new_job
| 51> %base "18-161_DFT_B"
| 52> ! wB97X-D3 def2-TZVP TIGHTSCF CHELPG PMODEL
| 53>
| 54> %scf
| 55> MaxIter 1000
| 56> end
| 57>
| 58> * xyz 0 1
| 59>   C                    : 2.543895             -7.348491            7.449240
| 60>   O                    : 2.114794             -6.008798            7.767195
| 61>   H                    : 1.167584             -5.999289            7.725169
| 62>   H                    : 1.824056             -7.871212            6.835740
| 63>   H                    : 3.470852             -7.412637            6.832547
| 64>   H                    : 2.527036             -8.011973            8.287322
| 65>   C                      1.842494             -5.490414            4.222264
| 66>   O                      0.779058             -4.891262            4.888618
| 67>   H                      0.293986             -5.565972            5.331256
| 68>   H                      2.573357             -4.701865            3.988026
| 69>   H                      2.324572             -6.211238            4.978611
| 70>   H                      1.640042             -6.048494            3.297003
| 71> *
| 72>
| 73>                          ****END OF INPUT****
 Total Charge           Charge          ....    0
 Multiplicity           Mult            ....    1
 Number of Electrons    NEL             ....   36
Dispersion correction           -0.002228229
FINAL SINGLE POINT ENERGY      -231.461510822156
Dispersion correction           -0.000258499
FINAL SINGLE POINT ENERGY      -115.729293223315

CARTESIAN COORDINATES (ANGSTROEM)
---------------------------------
  C      2.543895   -7.348491    7.449240
  O      2.114794   -6.008798    7.767195
  H      1.167584   -5.999289    7.725169
  H      1.824056   -7.871212    6.835740
  H      3.470852   -7.412637    6.832547
  H      2.527036   -8.011973    8.287322
  C      1.842494   -5.490414    4.222264
  O      0.779058   -4.891262    4.888618
  H      0.293986   -5.565972    5.331256
  H      2.573357   -4.701865    3.988026
  H      2.324572   -6.211238    4.978611
  H      1.640042   -6.048494    3.297003

 Multiplicity           Mult            ....    1
 Number of Electrons    NEL             ....   18
 Basis Dimension        Dim             ....  172

ORBITAL ENERGIES
----------------

  NO   OCC          E(Eh)            E(eV)
   0   2.0000     -19.230813      -523.2970
   1   2.0000     -10.318967      -280.7934
   2   2.0000      -1.149274       -31.2733
   3   2.0000      -0.792146       -21.5554
   4   2.0000      -0.617097       -16.7920
   5   2.0000      -0.542442       -14.7606
   6   2.0000      -0.530578       -14.4378
   7   2.0000      -0.430685       -11.7195
   8   2.0000      -0.373383       -10.1603
   9   0.0000       0.075064         2.0426
  10   0.0000       0.132569         3.6074
  11   0.0000       0.147795         4.0217
  12   0.0000       0.176919         4.8142
  13   0.0000       0.187498         5.1021

MULLIKEN ATOMIC CHARGES
-----------------------
   0 C :    0.008177
   1 O :   -0.000900
   2 H :   -0.003479
   3 H :   -0.001216
   4 H :   -0.002718
   5 H :    0.000422
   6 C :   -0.152301
   7 O :   -0.461212
   8 H :    0.314225
   9 H :    0.119981
  10 H :    0.074170
  11 H :    0.104853
Sum of atomic charges:    0.0000000

LOEWDIN ATOMIC CHARGES
----------------------
   0 C :   -0.011148
   1 O :   -0.002360
   2 H :   -0.003416
   3 H :   -0.001877
   4 H :   -0.003113
   5 H :   -0.000079
   6 C :   -0.404674
   7 O :   -0.045944
   8 H :    0.158789
   9 H :    0.109928
  10 H :    0.111015
  11 H :    0.092880

  Mayer bond orders larger than 0.1
B(  6-C ,  7-O ) :   1.0007 B(  6-C ,  9-H ) :   0.9763 B(  6-C , 10-H ) :   0.9901
B(  6-C , 11-H ) :   0.9647 B(  7-O ,  8-H ) :   0.9030

Dispersion correction           -0.000239286
FINAL SINGLE POINT ENERGY      -115.733101991459

DIPOLE MOMENT
-------------
                                X             Y             Z
Electronic contribution:     -1.46030       0.94928       0.69116
Nuclear contribution   :      1.54378      -1.58209      -0.66512
                        -----------------------------------------
Total Dipole Moment    :      0.08348      -0.63281       0.02604
                        -----------------------------------------
Magnitude (a.u.)       :      0.63882
Magnitude (Debye)      :      1.62376

Rotational constants in cm-1:     4.197801     0.851576     0.820052
Rotational constants in MHz : 125846.906076 25529.598222 24584.550561

                             ****ORCA TERMINATED NORMALLY****
TOTAL RUN TIME: 0 days 0 hours 1 minutes 7 seconds 192 msec
