                         Program Version 4.1.2  - RELEASE  -
|  1> #Run DFT-D3 single point of the dimer
|  2> ! wB97X-D3 def2-TZVP TIGHTSCF CHELPG PMODEL PAL8
|  3>
|  4> %base "14-65_DFT_AB"
|  5>
|  6> %scf
|  7> MaxIter 1000
|  8> end
|  9>
| 10> * xyz 0 1
| 11>   C                      -0.584460            9.833385             -7.370606
| 12>   O                      0.262817             9.973202             -6.259486
| 13>   H                      -0.083268            10.436978            -5.479950
| 14>   H                      -1.227082            10.668618            -7.422794
| 15>   H                      0.023229             9.743565             -8.282138
| 16>   H                      -1.232432            8.935795             -7.342917
| 17>   C                      -1.521902            10.435750            -3.257691
| 18>   O                      -1.757048            10.833954            -4.533719
| 19>   H                      -2.755831            11.023440            -4.552019
| 20>   H                      -2.115777            10.910476            -2.480621
| 21>   H                      -1.890686            9.475537             -3.138508
| 22>   H                      -0.471296            10.424483            -3.037976
| 23> *
| 24>
| 25> #Run DFT-D3 single point of the molecule with dimer basis set
| 26> $new_job
| 27> %base "14-65_DFT_A"
| 28> ! wB97X-D3 def2-TZVP TIGHTSCF CHELPG PMODEL
| 29>
| 30> %scf
| 31> MaxIter 1000
| 32> end
| 33>
| 34> * xyz 0 1
| 35>   C                      -0.584460            9.833385             -7.370606
| 36>   O                      0.262817             9.973202             -6.259486
| 37>   H                      -0.083268            10.436978            -5.479950
| 38>   H                      -1.227082            10.668618            -7.422794
| 39>   H                      0.023229             9.743565             -8.282138
| 40>   H                      -1.232432            8.935795             -7.342917
| 41>   C                    : -1.521902            10.435750            -3.257691
| 42>   O                    : -1.757048            10.833954            -4.533719
| 43>   H                    : -2.755831            11.023440            -4.552019
| 44>   H                    : -2.115777            10.910476            -2.480621
| 45>   H                    : -1.890686            9.475537             -3.138508
| 46>   H                    : -0.471296            10.424483            -3.037976
| 47> *
| 48>
| 49> #Run DFT-D3 single point of the particle with dimer basis set
| 50> $new_job
| 51> %base "14-65_DFT_B"
| 52> ! wB97X-D3 def2-TZVP TIGHTSCF CHELPG PMODEL
| 53>
| 54> %scf
| 55> MaxIter 1000
| 56> end
| 57>
| 58> * xyz 0 1
| 59>   C                    : -0.584460            9.833385             -7.370606
| 60>   O                    : 0.262817             9.973202             -6.259486
| 61>   H                    : -0.083268            10.436978            -5.479950
| 62>   H                    : -1.227082            10.668618            -7.422794
| 63>   H                    : 0.023229             9.743565             -8.282138
| 64>   H                    : -1.232432            8.935795             -7.342917
| 65>   C                      -1.521902            10.435750            -3.257691
| 66>   O                      -1.757048            10.833954            -4.533719
| 67>   H                      -2.755831            11.023440            -4.552019
| 68>   H                      -2.115777            10.910476            -2.480621
| 69>   H                      -1.890686            9.475537             -3.138508
| 70>   H                      -0.471296            10.424483            -3.037976
| 71> *
| 72>
| 73>                          ****END OF INPUT****
 Total Charge           Charge          ....    0
 Multiplicity           Mult            ....    1
 Number of Electrons    NEL             ....   36
Dispersion correction           -0.001908260
FINAL SINGLE POINT ENERGY      -231.460482038281
Dispersion correction           -0.000256089
FINAL SINGLE POINT ENERGY      -115.733139867798

CARTESIAN COORDINATES (ANGSTROEM)
---------------------------------
  C     -0.584460    9.833385   -7.370606
  O      0.262817    9.973202   -6.259486
  H     -0.083268   10.436978   -5.479950
  H     -1.227082   10.668618   -7.422794
  H      0.023229    9.743565   -8.282138
  H     -1.232432    8.935795   -7.342917
  C     -1.521902   10.435750   -3.257691
  O     -1.757048   10.833954   -4.533719
  H     -2.755831   11.023440   -4.552019
  H     -2.115777   10.910476   -2.480621
  H     -1.890686    9.475537   -3.138508
  H     -0.471296   10.424483   -3.037976

 Multiplicity           Mult            ....    1
 Number of Electrons    NEL             ....   18
 Basis Dimension        Dim             ....  172

ORBITAL ENERGIES
----------------

  NO   OCC          E(Eh)            E(eV)
   0   2.0000     -19.236217      -523.4441
   1   2.0000     -10.297096      -280.1982
   2   2.0000      -1.148942       -31.2643
   3   2.0000      -0.794201       -21.6113
   4   2.0000      -0.624766       -17.0007
   5   2.0000      -0.543016       -14.7762
   6   2.0000      -0.534916       -14.5558
   7   2.0000      -0.441817       -12.0225
   8   2.0000      -0.363716        -9.8972
   9   0.0000       0.095134         2.5887
  10   0.0000       0.123002         3.3471
  11   0.0000       0.154916         4.2155
  12   0.0000       0.183570         4.9952
  13   0.0000       0.202451         5.5090

MULLIKEN ATOMIC CHARGES
-----------------------
   0 C :    0.002765
   1 O :    0.002283
   2 H :   -0.008338
   3 H :   -0.003761
   4 H :   -0.000453
   5 H :   -0.002089
   6 C :   -0.155947
   7 O :   -0.450230
   8 H :    0.313835
   9 H :    0.090050
  10 H :    0.095651
  11 H :    0.116235
Sum of atomic charges:    0.0000000

LOEWDIN ATOMIC CHARGES
----------------------
   0 C :   -0.010943
   1 O :   -0.006151
   2 H :   -0.029509
   3 H :   -0.002640
   4 H :   -0.000167
   5 H :   -0.000880
   6 C :   -0.428404
   7 O :   -0.014444
   8 H :    0.209520
   9 H :    0.094250
  10 H :    0.082434
  11 H :    0.106934

  Mayer bond orders larger than 0.1
B(  6-C ,  7-O ) :   0.9937 B(  6-C ,  9-H ) :   0.9748 B(  6-C , 10-H ) :   0.9839
B(  6-C , 11-H ) :   0.9778 B(  7-O ,  8-H ) :   0.8896

Dispersion correction           -0.000198677
FINAL SINGLE POINT ENERGY      -115.723194005308

DIPOLE MOMENT
-------------
                                X             Y             Z
Electronic contribution:     -0.04047       0.62163      -1.77314
Nuclear contribution   :     -0.50044      -0.66866       2.23535
                        -----------------------------------------
Total Dipole Moment    :     -0.54091      -0.04703       0.46221
                        -----------------------------------------
Magnitude (a.u.)       :      0.71304
Magnitude (Debye)      :      1.81241

Rotational constants in cm-1:     4.396731     0.906138     0.846047
Rotational constants in MHz : 131810.688656 27165.335258 25363.856256

                             ****ORCA TERMINATED NORMALLY****
TOTAL RUN TIME: 0 days 0 hours 1 minutes 1 seconds 874 msec
