                         Program Version 4.1.2  - RELEASE  -
|  1> #Run DFT-D3 single point of the dimer
|  2> ! wB97X-D3 def2-TZVP TIGHTSCF CHELPG PMODEL PAL8
|  3>
|  4> %base "8-28_DFT_AB"
|  5>
|  6> %scf
|  7> MaxIter 1000
|  8> end
|  9>
| 10> * xyz 0 1
| 11>   C                      1.242681             -1.490844            -1.242399
| 12>   O                      2.017750             -2.223303            -0.392427
| 13>   H                      2.854270             -2.385998            -0.915143
| 14>   H                      0.235646             -1.382705            -0.890573
| 15>   H                      1.563453             -0.460555            -1.422829
| 16>   H                      1.015853             -1.921014            -2.215583
| 17>   C                      -0.724076            2.085475             2.183284
| 18>   O                      -1.374681            2.465893             3.392818
| 19>   H                      -1.953464            3.260510             3.216241
| 20>   H                      0.226551             1.538815             2.290839
| 21>   H                      -1.235051            1.347565             1.552322
| 22>   H                      -0.372481            2.892699             1.636223
| 23> *
| 24>
| 25> #Run DFT-D3 single point of the molecule with dimer basis set
| 26> $new_job
| 27> %base "8-28_DFT_A"
| 28> ! wB97X-D3 def2-TZVP TIGHTSCF CHELPG PMODEL
| 29>
| 30> %scf
| 31> MaxIter 1000
| 32> end
| 33>
| 34> * xyz 0 1
| 35>   C                      1.242681             -1.490844            -1.242399
| 36>   O                      2.017750             -2.223303            -0.392427
| 37>   H                      2.854270             -2.385998            -0.915143
| 38>   H                      0.235646             -1.382705            -0.890573
| 39>   H                      1.563453             -0.460555            -1.422829
| 40>   H                      1.015853             -1.921014            -2.215583
| 41>   C                    : -0.724076            2.085475             2.183284
| 42>   O                    : -1.374681            2.465893             3.392818
| 43>   H                    : -1.953464            3.260510             3.216241
| 44>   H                    : 0.226551             1.538815             2.290839
| 45>   H                    : -1.235051            1.347565             1.552322
| 46>   H                    : -0.372481            2.892699             1.636223
| 47> *
| 48>
| 49> #Run DFT-D3 single point of the particle with dimer basis set
| 50> $new_job
| 51> %base "8-28_DFT_B"
| 52> ! wB97X-D3 def2-TZVP TIGHTSCF CHELPG PMODEL
| 53>
| 54> %scf
| 55> MaxIter 1000
| 56> end
| 57>
| 58> * xyz 0 1
| 59>   C                    : 1.242681             -1.490844            -1.242399
| 60>   O                    : 2.017750             -2.223303            -0.392427
| 61>   H                    : 2.854270             -2.385998            -0.915143
| 62>   H                    : 0.235646             -1.382705            -0.890573
| 63>   H                    : 1.563453             -0.460555            -1.422829
| 64>   H                    : 1.015853             -1.921014            -2.215583
| 65>   C                      -0.724076            2.085475             2.183284
| 66>   O                      -1.374681            2.465893             3.392818
| 67>   H                      -1.953464            3.260510             3.216241
| 68>   H                      0.226551             1.538815             2.290839
| 69>   H                      -1.235051            1.347565             1.552322
| 70>   H                      -0.372481            2.892699             1.636223
| 71> *
| 72>
| 73>                          ****END OF INPUT****
 Total Charge           Charge          ....    0
 Multiplicity           Mult            ....    1
 Number of Electrons    NEL             ....   36
Dispersion correction           -0.000731268
FINAL SINGLE POINT ENERGY      -231.454939904659
Dispersion correction           -0.000235095
FINAL SINGLE POINT ENERGY      -115.729696666932

CARTESIAN COORDINATES (ANGSTROEM)
---------------------------------
  C      1.242681   -1.490844   -1.242399
  O      2.017750   -2.223303   -0.392427
  H      2.854270   -2.385998   -0.915143
  H      0.235646   -1.382705   -0.890573
  H      1.563453   -0.460555   -1.422829
  H      1.015853   -1.921014   -2.215583
  C     -0.724076    2.085475    2.183284
  O     -1.374681    2.465893    3.392818
  H     -1.953464    3.260510    3.216241
  H      0.226551    1.538815    2.290839
  H     -1.235051    1.347565    1.552322
  H     -0.372481    2.892699    1.636223

 Multiplicity           Mult            ....    1
 Number of Electrons    NEL             ....   18
 Basis Dimension        Dim             ....  172

ORBITAL ENERGIES
----------------

  NO   OCC          E(Eh)            E(eV)
   0   2.0000     -19.237556      -523.4805
   1   2.0000     -10.308436      -280.5068
   2   2.0000      -1.126229       -30.6462
   3   2.0000      -0.802336       -21.8327
   4   2.0000      -0.608361       -16.5543
   5   2.0000      -0.545816       -14.8524
   6   2.0000      -0.522169       -14.2089
   7   2.0000      -0.425553       -11.5799
   8   2.0000      -0.376685       -10.2501
   9   0.0000       0.081749         2.2245
  10   0.0000       0.112883         3.0717
  11   0.0000       0.136734         3.7207
  12   0.0000       0.167256         4.5513
  13   0.0000       0.191717         5.2169

MULLIKEN ATOMIC CHARGES
-----------------------
   0 C :    0.000026
   1 O :    0.000001
   2 H :    0.000000
   3 H :   -0.000107
   4 H :    0.000004
   5 H :   -0.000002
   6 C :   -0.176227
   7 O :   -0.477157
   8 H :    0.322285
   9 H :    0.113169
  10 H :    0.103514
  11 H :    0.114494
Sum of atomic charges:    0.0000000

LOEWDIN ATOMIC CHARGES
----------------------
   0 C :   -0.000052
   1 O :   -0.000003
   2 H :   -0.000000
   3 H :   -0.000080
   4 H :   -0.000008
   5 H :   -0.000001
   6 C :   -0.389777
   7 O :   -0.097292
   8 H :    0.193437
   9 H :    0.111155
  10 H :    0.097243
  11 H :    0.085376

  Mayer bond orders larger than 0.1
B(  6-C ,  7-O ) :   1.0119 B(  6-C ,  9-H ) :   0.9730 B(  6-C , 10-H ) :   0.9747
B(  6-C , 11-H ) :   0.9805 B(  7-O ,  8-H ) :   0.8902

Dispersion correction           -0.000274384
FINAL SINGLE POINT ENERGY      -115.725071354865

DIPOLE MOMENT
-------------
                                X             Y             Z
Electronic contribution:     -0.91559       0.50049       1.68853
Nuclear contribution   :      0.85515      -0.13814      -2.28819
                        -----------------------------------------
Total Dipole Moment    :     -0.06044       0.36235      -0.59966
                        -----------------------------------------
Magnitude (a.u.)       :      0.70324
Magnitude (Debye)      :      1.78748

Rotational constants in cm-1:     4.624518     0.797540     0.776208
Rotational constants in MHz : 138639.572114 23909.639544 23270.135595

                             ****ORCA TERMINATED NORMALLY****
TOTAL RUN TIME: 0 days 0 hours 0 minutes 39 seconds 972 msec
