                         Program Version 4.1.2  - RELEASE  -
|  1> #Run DFT-D3 single point of the dimer
|  2> ! wB97X-D3 def2-TZVP TIGHTSCF CHELPG PMODEL PAL8
|  3>
|  4> %base "12-201_DFT_AB"
|  5>
|  6> %scf
|  7> MaxIter 1000
|  8> end
|  9>
| 10> * xyz 0 1
| 11>   C                      -4.487351            6.730992             -8.621234
| 12>   O                      -5.169944            7.580776             -9.507352
| 13>   H                      -4.499370            7.902019             -10.105670
| 14>   H                      -3.474777            7.150716             -8.438658
| 15>   H                      -4.982341            6.601507             -7.613983
| 16>   H                      -4.219826            5.799168             -9.127553
| 17>   C                      -6.268727            11.277316            -9.526417
| 18>   O                      -6.726809            9.977676             -9.779781
| 19>   H                      -6.249792            9.392314             -9.217543
| 20>   H                      -6.790519            12.038245            -10.034972
| 21>   H                      -6.384330            11.459130            -8.478355
| 22>   H                      -5.215842            11.322579            -9.836590
| 23> *
| 24>
| 25> #Run DFT-D3 single point of the molecule with dimer basis set
| 26> $new_job
| 27> %base "12-201_DFT_A"
| 28> ! wB97X-D3 def2-TZVP TIGHTSCF CHELPG PMODEL
| 29>
| 30> %scf
| 31> MaxIter 1000
| 32> end
| 33>
| 34> * xyz 0 1
| 35>   C                      -4.487351            6.730992             -8.621234
| 36>   O                      -5.169944            7.580776             -9.507352
| 37>   H                      -4.499370            7.902019             -10.105670
| 38>   H                      -3.474777            7.150716             -8.438658
| 39>   H                      -4.982341            6.601507             -7.613983
| 40>   H                      -4.219826            5.799168             -9.127553
| 41>   C                    : -6.268727            11.277316            -9.526417
| 42>   O                    : -6.726809            9.977676             -9.779781
| 43>   H                    : -6.249792            9.392314             -9.217543
| 44>   H                    : -6.790519            12.038245            -10.034972
| 45>   H                    : -6.384330            11.459130            -8.478355
| 46>   H                    : -5.215842            11.322579            -9.836590
| 47> *
| 48>
| 49> #Run DFT-D3 single point of the particle with dimer basis set
| 50> $new_job
| 51> %base "12-201_DFT_B"
| 52> ! wB97X-D3 def2-TZVP TIGHTSCF CHELPG PMODEL
| 53>
| 54> %scf
| 55> MaxIter 1000
| 56> end
| 57>
| 58> * xyz 0 1
| 59>   C                    : -4.487351            6.730992             -8.621234
| 60>   O                    : -5.169944            7.580776             -9.507352
| 61>   H                    : -4.499370            7.902019             -10.105670
| 62>   H                    : -3.474777            7.150716             -8.438658
| 63>   H                    : -4.982341            6.601507             -7.613983
| 64>   H                    : -4.219826            5.799168             -9.127553
| 65>   C                      -6.268727            11.277316            -9.526417
| 66>   O                      -6.726809            9.977676             -9.779781
| 67>   H                      -6.249792            9.392314             -9.217543
| 68>   H                      -6.790519            12.038245            -10.034972
| 69>   H                      -6.384330            11.459130            -8.478355
| 70>   H                      -5.215842            11.322579            -9.836590
| 71> *
| 72>
| 73>                          ****END OF INPUT****
 Total Charge           Charge          ....    0
 Multiplicity           Mult            ....    1
 Number of Electrons    NEL             ....   36
Dispersion correction           -0.001437556
FINAL SINGLE POINT ENERGY      -231.468954062298
Dispersion correction           -0.000224733
FINAL SINGLE POINT ENERGY      -115.731089695746

CARTESIAN COORDINATES (ANGSTROEM)
---------------------------------
  C     -4.487351    6.730992   -8.621234
  O     -5.169944    7.580776   -9.507352
  H     -4.499370    7.902019  -10.105670
  H     -3.474777    7.150716   -8.438658
  H     -4.982341    6.601507   -7.613983
  H     -4.219826    5.799168   -9.127553
  C     -6.268727   11.277316   -9.526417
  O     -6.726809    9.977676   -9.779781
  H     -6.249792    9.392314   -9.217543
  H     -6.790519   12.038245  -10.034972
  H     -6.384330   11.459130   -8.478355
  H     -5.215842   11.322579   -9.836590

 Multiplicity           Mult            ....    1
 Number of Electrons    NEL             ....   18
 Basis Dimension        Dim             ....  172

ORBITAL ENERGIES
----------------

  NO   OCC          E(Eh)            E(eV)
   0   2.0000     -19.225373      -523.1490
   1   2.0000     -10.305605      -280.4298
   2   2.0000      -1.143156       -31.1069
   3   2.0000      -0.800630       -21.7863
   4   2.0000      -0.611327       -16.6350
   5   2.0000      -0.550782       -14.9875
   6   2.0000      -0.539753       -14.6874
   7   2.0000      -0.430283       -11.7086
   8   2.0000      -0.371651       -10.1131
   9   0.0000       0.073814         2.0086
  10   0.0000       0.129155         3.5145
  11   0.0000       0.157155         4.2764
  12   0.0000       0.164613         4.4793
  13   0.0000       0.198267         5.3951

MULLIKEN ATOMIC CHARGES
-----------------------
   0 C :   -0.000490
   1 O :   -0.003908
   2 H :   -0.002516
   3 H :    0.000018
   4 H :    0.000065
   5 H :   -0.000034
   6 C :   -0.158209
   7 O :   -0.466813
   8 H :    0.312076
   9 H :    0.118752
  10 H :    0.103192
  11 H :    0.097867
Sum of atomic charges:    0.0000000

LOEWDIN ATOMIC CHARGES
----------------------
   0 C :   -0.001492
   1 O :   -0.013901
   2 H :   -0.003166
   3 H :   -0.000029
   4 H :   -0.000078
   5 H :   -0.000047
   6 C :   -0.380222
   7 O :   -0.052204
   8 H :    0.162231
   9 H :    0.098984
  10 H :    0.092239
  11 H :    0.097684

  Mayer bond orders larger than 0.1
B(  6-C ,  7-O ) :   0.9958 B(  6-C ,  9-H ) :   0.9711 B(  6-C , 10-H ) :   0.9892
B(  6-C , 11-H ) :   0.9805 B(  7-O ,  8-H ) :   0.9040

Dispersion correction           -0.000207431
FINAL SINGLE POINT ENERGY      -115.733182658405

DIPOLE MOMENT
-------------
                                X             Y             Z
Electronic contribution:     -0.74865      -1.51700      -0.45740
Nuclear contribution   :      1.21103       1.69038       0.91402
                        -----------------------------------------
Total Dipole Moment    :      0.46238       0.17338       0.45662
                        -----------------------------------------
Magnitude (a.u.)       :      0.67257
Magnitude (Debye)      :      1.70955

Rotational constants in cm-1:     4.428160     0.849664     0.826955
Rotational constants in MHz : 132752.891795 25472.300890 24791.495605

                             ****ORCA TERMINATED NORMALLY****
TOTAL RUN TIME: 0 days 0 hours 1 minutes 11 seconds 917 msec
