                         Program Version 4.1.2  - RELEASE  -
|  1> #Run DFT-D3 single point of the dimer
|  2> ! wB97X-D3 def2-TZVP TIGHTSCF CHELPG PMODEL PAL8
|  3>
|  4> %base "2-37_DFT_AB"
|  5>
|  6> %scf
|  7> MaxIter 1000
|  8> end
|  9>
| 10> * xyz 0 1
| 11>   C                      5.916145             7.599752             -3.115480
| 12>   O                      6.303187             6.405109             -3.797141
| 13>   H                      6.313995             5.742929             -3.113214
| 14>   H                      6.562852             7.866482             -2.246742
| 15>   H                      5.963492             8.428625             -3.817606
| 16>   H                      4.933177             7.588969             -2.693862
| 17>   C                      1.510304             9.153771             -5.642974
| 18>   O                      1.929908             9.833974             -6.808871
| 19>   H                      1.483246             10.617684            -6.917568
| 20>   H                      1.944695             9.434211             -4.658071
| 21>   H                      0.409652             9.167967             -5.589609
| 22>   H                      1.939527             8.090839             -5.783909
| 23> *
| 24>
| 25> #Run DFT-D3 single point of the molecule with dimer basis set
| 26> $new_job
| 27> %base "2-37_DFT_A"
| 28> ! wB97X-D3 def2-TZVP TIGHTSCF CHELPG PMODEL
| 29>
| 30> %scf
| 31> MaxIter 1000
| 32> end
| 33>
| 34> * xyz 0 1
| 35>   C                      5.916145             7.599752             -3.115480
| 36>   O                      6.303187             6.405109             -3.797141
| 37>   H                      6.313995             5.742929             -3.113214
| 38>   H                      6.562852             7.866482             -2.246742
| 39>   H                      5.963492             8.428625             -3.817606
| 40>   H                      4.933177             7.588969             -2.693862
| 41>   C                    : 1.510304             9.153771             -5.642974
| 42>   O                    : 1.929908             9.833974             -6.808871
| 43>   H                    : 1.483246             10.617684            -6.917568
| 44>   H                    : 1.944695             9.434211             -4.658071
| 45>   H                    : 0.409652             9.167967             -5.589609
| 46>   H                    : 1.939527             8.090839             -5.783909
| 47> *
| 48>
| 49> #Run DFT-D3 single point of the particle with dimer basis set
| 50> $new_job
| 51> %base "2-37_DFT_B"
| 52> ! wB97X-D3 def2-TZVP TIGHTSCF CHELPG PMODEL
| 53>
| 54> %scf
| 55> MaxIter 1000
| 56> end
| 57>
| 58> * xyz 0 1
| 59>   C                    : 5.916145             7.599752             -3.115480
| 60>   O                    : 6.303187             6.405109             -3.797141
| 61>   H                    : 6.313995             5.742929             -3.113214
| 62>   H                    : 6.562852             7.866482             -2.246742
| 63>   H                    : 5.963492             8.428625             -3.817606
| 64>   H                    : 4.933177             7.588969             -2.693862
| 65>   C                      1.510304             9.153771             -5.642974
| 66>   O                      1.929908             9.833974             -6.808871
| 67>   H                      1.483246             10.617684            -6.917568
| 68>   H                      1.944695             9.434211             -4.658071
| 69>   H                      0.409652             9.167967             -5.589609
| 70>   H                      1.939527             8.090839             -5.783909
| 71> *
| 72>
| 73>                          ****END OF INPUT****
 Total Charge           Charge          ....    0
 Multiplicity           Mult            ....    1
 Number of Electrons    NEL             ....   36
Dispersion correction           -0.000737098
FINAL SINGLE POINT ENERGY      -231.463416165304
Dispersion correction           -0.000247121
FINAL SINGLE POINT ENERGY      -115.735026351653

CARTESIAN COORDINATES (ANGSTROEM)
---------------------------------
  C      5.916145    7.599752   -3.115480
  O      6.303187    6.405109   -3.797141
  H      6.313995    5.742929   -3.113214
  H      6.562852    7.866482   -2.246742
  H      5.963492    8.428625   -3.817606
  H      4.933177    7.588969   -2.693862
  C      1.510304    9.153771   -5.642974
  O      1.929908    9.833974   -6.808871
  H      1.483246   10.617684   -6.917568
  H      1.944695    9.434211   -4.658071
  H      0.409652    9.167967   -5.589609
  H      1.939527    8.090839   -5.783909

 Multiplicity           Mult            ....    1
 Number of Electrons    NEL             ....   18
 Basis Dimension        Dim             ....  172

ORBITAL ENERGIES
----------------

  NO   OCC          E(Eh)            E(eV)
   0   2.0000     -19.226390      -523.1767
   1   2.0000     -10.323385      -280.9136
   2   2.0000      -1.146339       -31.1935
   3   2.0000      -0.796559       -21.6755
   4   2.0000      -0.618803       -16.8385
   5   2.0000      -0.545658       -14.8481
   6   2.0000      -0.514983       -14.0134
   7   2.0000      -0.430257       -11.7079
   8   2.0000      -0.375139       -10.2080
   9   0.0000       0.085275         2.3204
  10   0.0000       0.119668         3.2563
  11   0.0000       0.146992         3.9999
  12   0.0000       0.168530         4.5859
  13   0.0000       0.187076         5.0906

MULLIKEN ATOMIC CHARGES
-----------------------
   0 C :   -0.000018
   1 O :   -0.000000
   2 H :   -0.000000
   3 H :    0.000003
   4 H :    0.000037
   5 H :   -0.000070
   6 C :   -0.160111
   7 O :   -0.462658
   8 H :    0.302415
   9 H :    0.098238
  10 H :    0.105487
  11 H :    0.116678
Sum of atomic charges:    0.0000000

LOEWDIN ATOMIC CHARGES
----------------------
   0 C :   -0.000057
   1 O :   -0.000002
   2 H :   -0.000000
   3 H :   -0.000000
   4 H :   -0.000009
   5 H :   -0.000058
   6 C :   -0.392895
   7 O :   -0.049752
   8 H :    0.130545
   9 H :    0.094443
  10 H :    0.096280
  11 H :    0.121505

  Mayer bond orders larger than 0.1
B(  6-C ,  7-O ) :   1.0031 B(  6-C ,  9-H ) :   0.9607 B(  6-C , 10-H ) :   0.9796
B(  6-C , 11-H ) :   0.9780 B(  7-O ,  8-H ) :   0.9120

Dispersion correction           -0.000264380
FINAL SINGLE POINT ENERGY      -115.728334376913

DIPOLE MOMENT
-------------
                                X             Y             Z
Electronic contribution:      0.53565       0.95442      -1.48690
Nuclear contribution   :     -0.99960      -0.69934       1.86677
                        -----------------------------------------
Total Dipole Moment    :     -0.46395       0.25508       0.37987
                        -----------------------------------------
Magnitude (a.u.)       :      0.65163
Magnitude (Debye)      :      1.65631

Rotational constants in cm-1:     4.265599     0.827215     0.793298
Rotational constants in MHz : 127879.451018 24799.281150 23782.484960

                             ****ORCA TERMINATED NORMALLY****
TOTAL RUN TIME: 0 days 0 hours 5 minutes 24 seconds 851 msec
