                         Program Version 4.1.2  - RELEASE  -
|  1> #Run DFT-D3 single point of the dimer
|  2> ! wB97X-D3 def2-TZVP TIGHTSCF CHELPG PMODEL PAL8
|  3>
|  4> %base "5-129_DFT_AB"
|  5>
|  6> %scf
|  7> MaxIter 1000
|  8> end
|  9>
| 10> * xyz 0 1
| 11>   C                      -7.477111            -4.456450            -6.946488
| 12>   O                      -7.988286            -4.822817            -5.665183
| 13>   H                      -7.892709            -4.108142            -5.012299
| 14>   H                      -6.388501            -4.259669            -7.003349
| 15>   H                      -7.612256            -5.270702            -7.671501
| 16>   H                      -7.996882            -3.590406            -7.298455
| 17>   C                      -10.771748           -2.147596            -6.434548
| 18>   O                      -11.023933           -3.535899            -6.412449
| 19>   H                      -10.411552           -3.910261            -5.800854
| 20>   H                      -11.190893           -1.574947            -7.314012
| 21>   H                      -11.210914           -1.638381            -5.544509
| 22>   H                      -9.661473            -1.957314            -6.485797
| 23> *
| 24>
| 25> #Run DFT-D3 single point of the molecule with dimer basis set
| 26> $new_job
| 27> %base "5-129_DFT_A"
| 28> ! wB97X-D3 def2-TZVP TIGHTSCF CHELPG PMODEL
| 29>
| 30> %scf
| 31> MaxIter 1000
| 32> end
| 33>
| 34> * xyz 0 1
| 35>   C                      -7.477111            -4.456450            -6.946488
| 36>   O                      -7.988286            -4.822817            -5.665183
| 37>   H                      -7.892709            -4.108142            -5.012299
| 38>   H                      -6.388501            -4.259669            -7.003349
| 39>   H                      -7.612256            -5.270702            -7.671501
| 40>   H                      -7.996882            -3.590406            -7.298455
| 41>   C                    : -10.771748           -2.147596            -6.434548
| 42>   O                    : -11.023933           -3.535899            -6.412449
| 43>   H                    : -10.411552           -3.910261            -5.800854
| 44>   H                    : -11.190893           -1.574947            -7.314012
| 45>   H                    : -11.210914           -1.638381            -5.544509
| 46>   H                    : -9.661473            -1.957314            -6.485797
| 47> *
| 48>
| 49> #Run DFT-D3 single point of the particle with dimer basis set
| 50> $new_job
| 51> %base "5-129_DFT_B"
| 52> ! wB97X-D3 def2-TZVP TIGHTSCF CHELPG PMODEL
| 53>
| 54> %scf
| 55> MaxIter 1000
| 56> end
| 57>
| 58> * xyz 0 1
| 59>   C                    : -7.477111            -4.456450            -6.946488
| 60>   O                    : -7.988286            -4.822817            -5.665183
| 61>   H                    : -7.892709            -4.108142            -5.012299
| 62>   H                    : -6.388501            -4.259669            -7.003349
| 63>   H                    : -7.612256            -5.270702            -7.671501
| 64>   H                    : -7.996882            -3.590406            -7.298455
| 65>   C                      -10.771748           -2.147596            -6.434548
| 66>   O                      -11.023933           -3.535899            -6.412449
| 67>   H                      -10.411552           -3.910261            -5.800854
| 68>   H                      -11.190893           -1.574947            -7.314012
| 69>   H                      -11.210914           -1.638381            -5.544509
| 70>   H                      -9.661473            -1.957314            -6.485797
| 71> *
| 72>
| 73>                          ****END OF INPUT****
 Total Charge           Charge          ....    0
 Multiplicity           Mult            ....    1
 Number of Electrons    NEL             ....   36
Dispersion correction           -0.002115458
FINAL SINGLE POINT ENERGY      -231.471348093180
Dispersion correction           -0.000264708
FINAL SINGLE POINT ENERGY      -115.734828153117

CARTESIAN COORDINATES (ANGSTROEM)
---------------------------------
  C     -7.477111   -4.456450   -6.946488
  O     -7.988286   -4.822817   -5.665183
  H     -7.892709   -4.108142   -5.012299
  H     -6.388501   -4.259669   -7.003349
  H     -7.612256   -5.270702   -7.671501
  H     -7.996882   -3.590406   -7.298455
  C    -10.771748   -2.147596   -6.434548
  O    -11.023933   -3.535899   -6.412449
  H    -10.411552   -3.910261   -5.800854
  H    -11.190893   -1.574947   -7.314012
  H    -11.210914   -1.638381   -5.544509
  H     -9.661473   -1.957314   -6.485797

 Multiplicity           Mult            ....    1
 Number of Electrons    NEL             ....   18
 Basis Dimension        Dim             ....  172

ORBITAL ENERGIES
----------------

  NO   OCC          E(Eh)            E(eV)
   0   2.0000     -19.232888      -523.3535
   1   2.0000     -10.323714      -280.9225
   2   2.0000      -1.143823       -31.1250
   3   2.0000      -0.790726       -21.5168
   4   2.0000      -0.611708       -16.6454
   5   2.0000      -0.541356       -14.7311
   6   2.0000      -0.529441       -14.4068
   7   2.0000      -0.428922       -11.6716
   8   2.0000      -0.375727       -10.2240
   9   0.0000       0.074370         2.0237
  10   0.0000       0.134157         3.6506
  11   0.0000       0.144439         3.9304
  12   0.0000       0.169861         4.6221
  13   0.0000       0.186663         5.0794

MULLIKEN ATOMIC CHARGES
-----------------------
   0 C :   -0.007467
   1 O :   -0.000459
   2 H :   -0.000316
   3 H :   -0.000086
   4 H :    0.000697
   5 H :    0.003227
   6 C :   -0.183220
   7 O :   -0.458400
   8 H :    0.314675
   9 H :    0.121267
  10 H :    0.109620
  11 H :    0.100463
Sum of atomic charges:    0.0000000

LOEWDIN ATOMIC CHARGES
----------------------
   0 C :   -0.005319
   1 O :   -0.003061
   2 H :   -0.001109
   3 H :   -0.000091
   4 H :   -0.000116
   5 H :   -0.003048
   6 C :   -0.399995
   7 O :   -0.059844
   8 H :    0.160593
   9 H :    0.113783
  10 H :    0.097385
  11 H :    0.100822

  Mayer bond orders larger than 0.1
B(  6-C ,  7-O ) :   0.9967 B(  6-C ,  9-H ) :   0.9692 B(  6-C , 10-H ) :   0.9780
B(  6-C , 11-H ) :   0.9776 B(  7-O ,  8-H ) :   0.9049

Dispersion correction           -0.000252052
FINAL SINGLE POINT ENERGY      -115.732941644095

DIPOLE MOMENT
-------------
                                X             Y             Z
Electronic contribution:     -0.49276      -1.88566      -0.07954
Nuclear contribution   :      0.97243       2.18903       0.44483
                        -----------------------------------------
Total Dipole Moment    :      0.47967       0.30337       0.36529
                        -----------------------------------------
Magnitude (a.u.)       :      0.67495
Magnitude (Debye)      :      1.71557

Rotational constants in cm-1:     4.225749     0.819764     0.795717
Rotational constants in MHz : 126684.765157 24575.894167 23854.995182

                             ****ORCA TERMINATED NORMALLY****
TOTAL RUN TIME: 0 days 0 hours 0 minutes 55 seconds 224 msec
