                         Program Version 4.1.2  - RELEASE  -
|  1> #Run DFT-D3 single point of the dimer
|  2> ! wB97X-D3 def2-TZVP TIGHTSCF CHELPG PMODEL PAL8
|  3>
|  4> %base "22-188_DFT_AB"
|  5>
|  6> %scf
|  7> MaxIter 1000
|  8> end
|  9>
| 10> * xyz 0 1
| 11>   C                      -9.575890            -1.714717            -9.971939
| 12>   O                      -8.783560            -1.945917            -8.854113
| 13>   H                      -9.272801            -2.521201            -8.251607
| 14>   H                      -10.653452           -1.483657            -9.666511
| 15>   H                      -9.032290            -0.866566            -10.589355
| 16>   H                      -9.703653            -2.581191            -10.584015
| 17>   C                      -5.852520            0.774861             -7.613912
| 18>   O                      -6.908664            0.365296             -8.454930
| 19>   H                      -7.478881            -0.233197            -7.950031
| 20>   H                      -5.049186            1.251773             -8.179559
| 21>   H                      -6.218541            1.447878             -6.845721
| 22>   H                      -5.393298            -0.081256            -7.211232
| 23> *
| 24>
| 25> #Run DFT-D3 single point of the molecule with dimer basis set
| 26> $new_job
| 27> %base "22-188_DFT_A"
| 28> ! wB97X-D3 def2-TZVP TIGHTSCF CHELPG PMODEL
| 29>
| 30> %scf
| 31> MaxIter 1000
| 32> end
| 33>
| 34> * xyz 0 1
| 35>   C                      -9.575890            -1.714717            -9.971939
| 36>   O                      -8.783560            -1.945917            -8.854113
| 37>   H                      -9.272801            -2.521201            -8.251607
| 38>   H                      -10.653452           -1.483657            -9.666511
| 39>   H                      -9.032290            -0.866566            -10.589355
| 40>   H                      -9.703653            -2.581191            -10.584015
| 41>   C                    : -5.852520            0.774861             -7.613912
| 42>   O                    : -6.908664            0.365296             -8.454930
| 43>   H                    : -7.478881            -0.233197            -7.950031
| 44>   H                    : -5.049186            1.251773             -8.179559
| 45>   H                    : -6.218541            1.447878             -6.845721
| 46>   H                    : -5.393298            -0.081256            -7.211232
| 47> *
| 48>
| 49> #Run DFT-D3 single point of the particle with dimer basis set
| 50> $new_job
| 51> %base "22-188_DFT_B"
| 52> ! wB97X-D3 def2-TZVP TIGHTSCF CHELPG PMODEL
| 53>
| 54> %scf
| 55> MaxIter 1000
| 56> end
| 57>
| 58> * xyz 0 1
| 59>   C                    : -9.575890            -1.714717            -9.971939
| 60>   O                    : -8.783560            -1.945917            -8.854113
| 61>   H                    : -9.272801            -2.521201            -8.251607
| 62>   H                    : -10.653452           -1.483657            -9.666511
| 63>   H                    : -9.032290            -0.866566            -10.589355
| 64>   H                    : -9.703653            -2.581191            -10.584015
| 65>   C                      -5.852520            0.774861             -7.613912
| 66>   O                      -6.908664            0.365296             -8.454930
| 67>   H                      -7.478881            -0.233197            -7.950031
| 68>   H                      -5.049186            1.251773             -8.179559
| 69>   H                      -6.218541            1.447878             -6.845721
| 70>   H                      -5.393298            -0.081256            -7.211232
| 71> *
| 72>
| 73>                          ****END OF INPUT****
 Total Charge           Charge          ....    0
 Multiplicity           Mult            ....    1
 Number of Electrons    NEL             ....   36
Dispersion correction           -0.001429150
FINAL SINGLE POINT ENERGY      -231.467403032775
Dispersion correction           -0.000236863
FINAL SINGLE POINT ENERGY      -115.728644905442

CARTESIAN COORDINATES (ANGSTROEM)
---------------------------------
  C     -9.575890   -1.714717   -9.971939
  O     -8.783560   -1.945917   -8.854113
  H     -9.272801   -2.521201   -8.251607
  H    -10.653452   -1.483657   -9.666511
  H     -9.032290   -0.866566  -10.589355
  H     -9.703653   -2.581191  -10.584015
  C     -5.852520    0.774861   -7.613912
  O     -6.908664    0.365296   -8.454930
  H     -7.478881   -0.233197   -7.950031
  H     -5.049186    1.251773   -8.179559
  H     -6.218541    1.447878   -6.845721
  H     -5.393298   -0.081256   -7.211232

 Multiplicity           Mult            ....    1
 Number of Electrons    NEL             ....   18
 Basis Dimension        Dim             ....  172

ORBITAL ENERGIES
----------------

  NO   OCC          E(Eh)            E(eV)
   0   2.0000     -19.228107      -523.2234
   1   2.0000     -10.306511      -280.4544
   2   2.0000      -1.134365       -30.8676
   3   2.0000      -0.798063       -21.7164
   4   2.0000      -0.608131       -16.5481
   5   2.0000      -0.552810       -15.0427
   6   2.0000      -0.528241       -14.3742
   7   2.0000      -0.428764       -11.6673
   8   2.0000      -0.374020       -10.1776
   9   0.0000       0.080630         2.1941
  10   0.0000       0.126254         3.4355
  11   0.0000       0.155775         4.2389
  12   0.0000       0.173859         4.7310
  13   0.0000       0.203472         5.5367

MULLIKEN ATOMIC CHARGES
-----------------------
   0 C :   -0.000979
   1 O :   -0.001154
   2 H :   -0.000140
   3 H :    0.000018
   4 H :   -0.001883
   5 H :    0.000089
   6 C :   -0.160770
   7 O :   -0.476228
   8 H :    0.315501
   9 H :    0.117531
  10 H :    0.103801
  11 H :    0.104214
Sum of atomic charges:    0.0000000

LOEWDIN ATOMIC CHARGES
----------------------
   0 C :   -0.002656
   1 O :   -0.007880
   2 H :   -0.000543
   3 H :   -0.000029
   4 H :   -0.001495
   5 H :   -0.000023
   6 C :   -0.379460
   7 O :   -0.076067
   8 H :    0.176744
   9 H :    0.109424
  10 H :    0.094483
  11 H :    0.087504

  Mayer bond orders larger than 0.1
B(  6-C ,  7-O ) :   0.9920 B(  6-C ,  9-H ) :   0.9721 B(  6-C , 10-H ) :   0.9788
B(  6-C , 11-H ) :   0.9844 B(  7-O ,  8-H ) :   0.8970

Dispersion correction           -0.000222852
FINAL SINGLE POINT ENERGY      -115.734574975936

DIPOLE MOMENT
-------------
                                X             Y             Z
Electronic contribution:     -1.27584      -0.40240      -1.13305
Nuclear contribution   :      1.37295       0.17896       1.79023
                        -----------------------------------------
Total Dipole Moment    :      0.09711      -0.22343       0.65718
                        -----------------------------------------
Magnitude (a.u.)       :      0.70088
Magnitude (Debye)      :      1.78150

Rotational constants in cm-1:     4.380611     0.837016     0.811972
Rotational constants in MHz : 131327.401385 25093.095359 24342.323137

                             ****ORCA TERMINATED NORMALLY****
TOTAL RUN TIME: 0 days 0 hours 1 minutes 7 seconds 66 msec
