                         Program Version 4.1.2  - RELEASE  -
|  1> #Run DFT-D3 single point of the dimer
|  2> ! wB97X-D3 def2-TZVP TIGHTSCF CHELPG PMODEL PAL8
|  3>
|  4> %base "19-16_DFT_AB"
|  5>
|  6> %scf
|  7> MaxIter 1000
|  8> end
|  9>
| 10> * xyz 0 1
| 11>   C                      -9.485652            9.146111             -9.677231
| 12>   O                      -9.391521            8.246951             -10.803226
| 13>   H                      -8.826788            8.615643             -11.448044
| 14>   H                      -10.273621           8.718987             -9.129059
| 15>   H                      -8.578479            9.239186             -9.109685
| 16>   H                      -9.732555            10.232964            -9.990699
| 17>   C                      -9.656386            8.004466             -4.055375
| 18>   O                      -9.827183            6.696000             -4.516681
| 19>   H                      -9.087512            6.304048             -4.075677
| 20>   H                      -9.612539            7.925407             -2.937611
| 21>   H                      -8.707890            8.407722             -4.410754
| 22>   H                      -10.451495           8.603904             -4.404213
| 23> *
| 24>
| 25> #Run DFT-D3 single point of the molecule with dimer basis set
| 26> $new_job
| 27> %base "19-16_DFT_A"
| 28> ! wB97X-D3 def2-TZVP TIGHTSCF CHELPG PMODEL
| 29>
| 30> %scf
| 31> MaxIter 1000
| 32> end
| 33>
| 34> * xyz 0 1
| 35>   C                      -9.485652            9.146111             -9.677231
| 36>   O                      -9.391521            8.246951             -10.803226
| 37>   H                      -8.826788            8.615643             -11.448044
| 38>   H                      -10.273621           8.718987             -9.129059
| 39>   H                      -8.578479            9.239186             -9.109685
| 40>   H                      -9.732555            10.232964            -9.990699
| 41>   C                    : -9.656386            8.004466             -4.055375
| 42>   O                    : -9.827183            6.696000             -4.516681
| 43>   H                    : -9.087512            6.304048             -4.075677
| 44>   H                    : -9.612539            7.925407             -2.937611
| 45>   H                    : -8.707890            8.407722             -4.410754
| 46>   H                    : -10.451495           8.603904             -4.404213
| 47> *
| 48>
| 49> #Run DFT-D3 single point of the particle with dimer basis set
| 50> $new_job
| 51> %base "19-16_DFT_B"
| 52> ! wB97X-D3 def2-TZVP TIGHTSCF CHELPG PMODEL
| 53>
| 54> %scf
| 55> MaxIter 1000
| 56> end
| 57>
| 58> * xyz 0 1
| 59>   C                    : -9.485652            9.146111             -9.677231
| 60>   O                    : -9.391521            8.246951             -10.803226
| 61>   H                    : -8.826788            8.615643             -11.448044
| 62>   H                    : -10.273621           8.718987             -9.129059
| 63>   H                    : -8.578479            9.239186             -9.109685
| 64>   H                    : -9.732555            10.232964            -9.990699
| 65>   C                      -9.656386            8.004466             -4.055375
| 66>   O                      -9.827183            6.696000             -4.516681
| 67>   H                      -9.087512            6.304048             -4.075677
| 68>   H                      -9.612539            7.925407             -2.937611
| 69>   H                      -8.707890            8.407722             -4.410754
| 70>   H                      -10.451495           8.603904             -4.404213
| 71> *
| 72>
| 73>                          ****END OF INPUT****
 Total Charge           Charge          ....    0
 Multiplicity           Mult            ....    1
 Number of Electrons    NEL             ....   36
Dispersion correction           -0.000575511
FINAL SINGLE POINT ENERGY      -231.461553167163
Dispersion correction           -0.000258399
FINAL SINGLE POINT ENERGY      -115.731347438465

CARTESIAN COORDINATES (ANGSTROEM)
---------------------------------
  C     -9.485652    9.146111   -9.677231
  O     -9.391521    8.246951  -10.803226
  H     -8.826788    8.615643  -11.448044
  H    -10.273621    8.718987   -9.129059
  H     -8.578479    9.239186   -9.109685
  H     -9.732555   10.232964   -9.990699
  C     -9.656386    8.004466   -4.055375
  O     -9.827183    6.696000   -4.516681
  H     -9.087512    6.304048   -4.075677
  H     -9.612539    7.925407   -2.937611
  H     -8.707890    8.407722   -4.410754
  H    -10.451495    8.603904   -4.404213

 Multiplicity           Mult            ....    1
 Number of Electrons    NEL             ....   18
 Basis Dimension        Dim             ....  172

ORBITAL ENERGIES
----------------

  NO   OCC          E(Eh)            E(eV)
   0   2.0000     -19.227622      -523.2102
   1   2.0000     -10.310954      -280.5753
   2   2.0000      -1.150948       -31.3189
   3   2.0000      -0.790838       -21.5198
   4   2.0000      -0.614764       -16.7286
   5   2.0000      -0.547072       -14.8866
   6   2.0000      -0.530882       -14.4460
   7   2.0000      -0.445963       -12.1353
   8   2.0000      -0.369746       -10.0613
   9   0.0000       0.088538         2.4092
  10   0.0000       0.112788         3.0691
  11   0.0000       0.160140         4.3576
  12   0.0000       0.170353         4.6355
  13   0.0000       0.193157         5.2561

MULLIKEN ATOMIC CHARGES
-----------------------
   0 C :    0.000004
   1 O :    0.000001
   2 H :    0.000000
   3 H :   -0.000043
   4 H :   -0.000005
   5 H :    0.000000
   6 C :   -0.171550
   7 O :   -0.456508
   8 H :    0.310807
   9 H :    0.097754
  10 H :    0.097024
  11 H :    0.122516
Sum of atomic charges:    0.0000000

LOEWDIN ATOMIC CHARGES
----------------------
   0 C :   -0.000009
   1 O :   -0.000001
   2 H :   -0.000000
   3 H :   -0.000014
   4 H :   -0.000004
   5 H :   -0.000001
   6 C :   -0.394879
   7 O :   -0.062216
   8 H :    0.165826
   9 H :    0.100471
  10 H :    0.091981
  11 H :    0.098844

  Mayer bond orders larger than 0.1
B(  6-C ,  7-O ) :   0.9920 B(  6-C ,  9-H ) :   0.9878 B(  6-C , 10-H ) :   0.9754
B(  6-C , 11-H ) :   0.9741 B(  7-O ,  8-H ) :   0.9085

Dispersion correction           -0.000185382
FINAL SINGLE POINT ENERGY      -115.730252195134

DIPOLE MOMENT
-------------
                                X             Y             Z
Electronic contribution:     -0.44070      -1.55138      -0.75780
Nuclear contribution   :      0.94672       1.80539       1.18329
                        -----------------------------------------
Total Dipole Moment    :      0.50602       0.25401       0.42549
                        -----------------------------------------
Magnitude (a.u.)       :      0.70825
Magnitude (Debye)      :      1.80023

Rotational constants in cm-1:     4.160025     0.874207     0.837633
Rotational constants in MHz : 124714.420255 26208.063622 25111.610203

                             ****ORCA TERMINATED NORMALLY****
TOTAL RUN TIME: 0 days 0 hours 0 minutes 45 seconds 800 msec
