                         Program Version 4.1.2  - RELEASE  -
|  1> #Run DFT-D3 single point of the dimer
|  2> ! wB97X-D3 def2-TZVP TIGHTSCF CHELPG PMODEL PAL8
|  3>
|  4> %base "9-204_DFT_AB"
|  5>
|  6> %scf
|  7> MaxIter 1000
|  8> end
|  9>
| 10> * xyz 0 1
| 11>   C                      0.464581             3.135544             1.057392
| 12>   O                      -0.033795            4.391398             1.287106
| 13>   H                      -0.049888            4.757126             0.377471
| 14>   H                      1.507871             3.076970             0.691846
| 15>   H                      0.225967             2.508593             1.971604
| 16>   H                      -0.090771            2.731226             0.174747
| 17>   C                      -0.295640            5.583411             4.615057
| 18>   O                      0.703822             6.013300             3.708380
| 19>   H                      0.533030             5.490817             2.814526
| 20>   H                      -0.269927            4.481626             4.780587
| 21>   H                      -0.123123            6.165248             5.600437
| 22>   H                      -1.338070            5.897622             4.206678
| 23> *
| 24>
| 25> #Run DFT-D3 single point of the molecule with dimer basis set
| 26> $new_job
| 27> %base "9-204_DFT_A"
| 28> ! wB97X-D3 def2-TZVP TIGHTSCF CHELPG PMODEL
| 29>
| 30> %scf
| 31> MaxIter 1000
| 32> end
| 33>
| 34> * xyz 0 1
| 35>   C                      0.464581             3.135544             1.057392
| 36>   O                      -0.033795            4.391398             1.287106
| 37>   H                      -0.049888            4.757126             0.377471
| 38>   H                      1.507871             3.076970             0.691846
| 39>   H                      0.225967             2.508593             1.971604
| 40>   H                      -0.090771            2.731226             0.174747
| 41>   C                    : -0.295640            5.583411             4.615057
| 42>   O                    : 0.703822             6.013300             3.708380
| 43>   H                    : 0.533030             5.490817             2.814526
| 44>   H                    : -0.269927            4.481626             4.780587
| 45>   H                    : -0.123123            6.165248             5.600437
| 46>   H                    : -1.338070            5.897622             4.206678
| 47> *
| 48>
| 49> #Run DFT-D3 single point of the particle with dimer basis set
| 50> $new_job
| 51> %base "9-204_DFT_B"
| 52> ! wB97X-D3 def2-TZVP TIGHTSCF CHELPG PMODEL
| 53>
| 54> %scf
| 55> MaxIter 1000
| 56> end
| 57>
| 58> * xyz 0 1
| 59>   C                    : 0.464581             3.135544             1.057392
| 60>   O                    : -0.033795            4.391398             1.287106
| 61>   H                    : -0.049888            4.757126             0.377471
| 62>   H                    : 1.507871             3.076970             0.691846
| 63>   H                    : 0.225967             2.508593             1.971604
| 64>   H                    : -0.090771            2.731226             0.174747
| 65>   C                      -0.295640            5.583411             4.615057
| 66>   O                      0.703822             6.013300             3.708380
| 67>   H                      0.533030             5.490817             2.814526
| 68>   H                      -0.269927            4.481626             4.780587
| 69>   H                      -0.123123            6.165248             5.600437
| 70>   H                      -1.338070            5.897622             4.206678
| 71> *
| 72>
| 73>                          ****END OF INPUT****
 Total Charge           Charge          ....    0
 Multiplicity           Mult            ....    1
 Number of Electrons    NEL             ....   36
Dispersion correction           -0.001698066
FINAL SINGLE POINT ENERGY      -231.463020410321
Dispersion correction           -0.000208040
FINAL SINGLE POINT ENERGY      -115.727861213933

CARTESIAN COORDINATES (ANGSTROEM)
---------------------------------
  C      0.464581    3.135544    1.057392
  O     -0.033795    4.391398    1.287106
  H     -0.049888    4.757126    0.377471
  H      1.507871    3.076970    0.691846
  H      0.225967    2.508593    1.971604
  H     -0.090771    2.731226    0.174747
  C     -0.295640    5.583411    4.615057
  O      0.703822    6.013300    3.708380
  H      0.533030    5.490817    2.814526
  H     -0.269927    4.481626    4.780587
  H     -0.123123    6.165248    5.600437
  H     -1.338070    5.897622    4.206678

 Multiplicity           Mult            ....    1
 Number of Electrons    NEL             ....   18
 Basis Dimension        Dim             ....  172

ORBITAL ENERGIES
----------------

  NO   OCC          E(Eh)            E(eV)
   0   2.0000     -19.239453      -523.5321
   1   2.0000     -10.329088      -281.0688
   2   2.0000      -1.123106       -30.5613
   3   2.0000      -0.774900       -21.0861
   4   2.0000      -0.598241       -16.2790
   5   2.0000      -0.536079       -14.5874
   6   2.0000      -0.517424       -14.0798
   7   2.0000      -0.429882       -11.6977
   8   2.0000      -0.370303       -10.0765
   9   0.0000       0.063179         1.7192
  10   0.0000       0.125861         3.4249
  11   0.0000       0.140340         3.8188
  12   0.0000       0.163341         4.4447
  13   0.0000       0.189059         5.1446

MULLIKEN ATOMIC CHARGES
-----------------------
   0 C :   -0.003968
   1 O :   -0.002154
   2 H :   -0.000453
   3 H :    0.000295
   4 H :    0.000136
   5 H :   -0.000060
   6 C :   -0.172271
   7 O :   -0.466268
   8 H :    0.316532
   9 H :    0.109122
  10 H :    0.122547
  11 H :    0.096540
Sum of atomic charges:   -0.0000000

LOEWDIN ATOMIC CHARGES
----------------------
   0 C :   -0.004251
   1 O :   -0.019996
   2 H :   -0.001351
   3 H :   -0.000113
   4 H :   -0.000270
   5 H :   -0.000124
   6 C :   -0.410862
   7 O :   -0.108775
   8 H :    0.227684
   9 H :    0.095650
  10 H :    0.120267
  11 H :    0.102141

  Mayer bond orders larger than 0.1
B(  6-C ,  7-O ) :   0.9941 B(  6-C ,  9-H ) :   0.9661 B(  6-C , 10-H ) :   0.9693
B(  6-C , 11-H ) :   0.9749 B(  7-O ,  8-H ) :   0.8934

Dispersion correction           -0.000257136
FINAL SINGLE POINT ENERGY      -115.725562151288

DIPOLE MOMENT
-------------
                                X             Y             Z
Electronic contribution:      1.41971       0.57681      -1.00479
Nuclear contribution   :     -1.87810      -1.04686       0.82500
                        -----------------------------------------
Total Dipole Moment    :     -0.45839      -0.47006      -0.17979
                        -----------------------------------------
Magnitude (a.u.)       :      0.68073
Magnitude (Debye)      :      1.73028

Rotational constants in cm-1:     3.780031     0.824895     0.788195
Rotational constants in MHz : 113322.474714 24729.723328 23629.479516

                             ****ORCA TERMINATED NORMALLY****
TOTAL RUN TIME: 0 days 0 hours 0 minutes 44 seconds 131 msec
