                         Program Version 4.1.2  - RELEASE  -
|  1> #Run DFT-D3 single point of the dimer
|  2> ! wB97X-D3 def2-TZVP TIGHTSCF CHELPG PMODEL PAL8
|  3>
|  4> %base "1-149_DFT_AB"
|  5>
|  6> %scf
|  7> MaxIter 1000
|  8> end
|  9>
| 10> * xyz 0 1
| 11>   C                      9.668061             -3.866281            -6.976412
| 12>   O                      8.552818             -3.581596            -6.200644
| 13>   H                      8.019114             -2.985444            -6.708306
| 14>   H                      10.315615            -4.650284            -6.516347
| 15>   H                      9.364548             -4.279350            -7.979582
| 16>   H                      10.229104            -2.945901            -7.121084
| 17>   C                      10.237845            -3.068959            -3.308223
| 18>   O                      9.737158             -3.674142            -4.465276
| 19>   H                      9.453177             -4.568584            -4.169225
| 20>   H                      10.407160            -2.007675            -3.539728
| 21>   H                      9.488849             -3.072322            -2.575428
| 22>   H                      11.112346            -3.636049            -2.896684
| 23> *
| 24>
| 25> #Run DFT-D3 single point of the molecule with dimer basis set
| 26> $new_job
| 27> %base "1-149_DFT_A"
| 28> ! wB97X-D3 def2-TZVP TIGHTSCF CHELPG PMODEL
| 29>
| 30> %scf
| 31> MaxIter 1000
| 32> end
| 33>
| 34> * xyz 0 1
| 35>   C                      9.668061             -3.866281            -6.976412
| 36>   O                      8.552818             -3.581596            -6.200644
| 37>   H                      8.019114             -2.985444            -6.708306
| 38>   H                      10.315615            -4.650284            -6.516347
| 39>   H                      9.364548             -4.279350            -7.979582
| 40>   H                      10.229104            -2.945901            -7.121084
| 41>   C                    : 10.237845            -3.068959            -3.308223
| 42>   O                    : 9.737158             -3.674142            -4.465276
| 43>   H                    : 9.453177             -4.568584            -4.169225
| 44>   H                    : 10.407160            -2.007675            -3.539728
| 45>   H                    : 9.488849             -3.072322            -2.575428
| 46>   H                    : 11.112346            -3.636049            -2.896684
| 47> *
| 48>
| 49> #Run DFT-D3 single point of the particle with dimer basis set
| 50> $new_job
| 51> %base "1-149_DFT_B"
| 52> ! wB97X-D3 def2-TZVP TIGHTSCF CHELPG PMODEL
| 53>
| 54> %scf
| 55> MaxIter 1000
| 56> end
| 57>
| 58> * xyz 0 1
| 59>   C                    : 9.668061             -3.866281            -6.976412
| 60>   O                    : 8.552818             -3.581596            -6.200644
| 61>   H                    : 8.019114             -2.985444            -6.708306
| 62>   H                    : 10.315615            -4.650284            -6.516347
| 63>   H                    : 9.364548             -4.279350            -7.979582
| 64>   H                    : 10.229104            -2.945901            -7.121084
| 65>   C                      10.237845            -3.068959            -3.308223
| 66>   O                      9.737158             -3.674142            -4.465276
| 67>   H                      9.453177             -4.568584            -4.169225
| 68>   H                      10.407160            -2.007675            -3.539728
| 69>   H                      9.488849             -3.072322            -2.575428
| 70>   H                      11.112346            -3.636049            -2.896684
| 71> *
| 72>
| 73>                          ****END OF INPUT****
 Total Charge           Charge          ....    0
 Multiplicity           Mult            ....    1
 Number of Electrons    NEL             ....   36
Dispersion correction           -0.002006423
FINAL SINGLE POINT ENERGY      -231.434117485612
Dispersion correction           -0.000220055
FINAL SINGLE POINT ENERGY      -115.735042397200

CARTESIAN COORDINATES (ANGSTROEM)
---------------------------------
  C      9.668061   -3.866281   -6.976412
  O      8.552818   -3.581596   -6.200644
  H      8.019114   -2.985444   -6.708306
  H     10.315615   -4.650284   -6.516347
  H      9.364548   -4.279350   -7.979582
  H     10.229104   -2.945901   -7.121084
  C     10.237845   -3.068959   -3.308223
  O      9.737158   -3.674142   -4.465276
  H      9.453177   -4.568584   -4.169225
  H     10.407160   -2.007675   -3.539728
  H      9.488849   -3.072322   -2.575428
  H     11.112346   -3.636049   -2.896684

 Multiplicity           Mult            ....    1
 Number of Electrons    NEL             ....   18
 Basis Dimension        Dim             ....  172

ORBITAL ENERGIES
----------------

  NO   OCC          E(Eh)            E(eV)
   0   2.0000     -19.232450      -523.3416
   1   2.0000     -10.309916      -280.5471
   2   2.0000      -1.139701       -31.0129
   3   2.0000      -0.791887       -21.5483
   4   2.0000      -0.613271       -16.6879
   5   2.0000      -0.547954       -14.9106
   6   2.0000      -0.524402       -14.2697
   7   2.0000      -0.437949       -11.9172
   8   2.0000      -0.371635       -10.1127
   9   0.0000       0.096644         2.6298
  10   0.0000       0.130172         3.5422
  11   0.0000       0.157757         4.2928
  12   0.0000       0.182991         4.9794
  13   0.0000       0.193788         5.2732

MULLIKEN ATOMIC CHARGES
-----------------------
   0 C :    0.002895
   1 O :    0.011231
   2 H :   -0.001293
   3 H :   -0.016034
   4 H :   -0.000774
   5 H :   -0.004000
   6 C :   -0.153599
   7 O :   -0.469780
   8 H :    0.316365
   9 H :    0.117054
  10 H :    0.102860
  11 H :    0.095075
Sum of atomic charges:   -0.0000000

LOEWDIN ATOMIC CHARGES
----------------------
   0 C :   -0.052344
   1 O :   -0.070304
   2 H :   -0.004054
   3 H :   -0.013218
   4 H :   -0.000722
   5 H :   -0.003228
   6 C :   -0.390135
   7 O :    0.042433
   8 H :    0.192641
   9 H :    0.112854
  10 H :    0.085068
  11 H :    0.101011

  Mayer bond orders larger than 0.1
B(  6-C ,  7-O ) :   0.9927 B(  6-C ,  9-H ) :   0.9784 B(  6-C , 10-H ) :   0.9798
B(  6-C , 11-H ) :   0.9722 B(  7-O ,  8-H ) :   0.8923

Dispersion correction           -0.000210411
FINAL SINGLE POINT ENERGY      -115.732665692359

DIPOLE MOMENT
-------------
                                X             Y             Z
Electronic contribution:     -0.55124      -0.60132      -1.55376
Nuclear contribution   :      0.53296       0.30263       2.20197
                        -----------------------------------------
Total Dipole Moment    :     -0.01828      -0.29869       0.64821
                        -----------------------------------------
Magnitude (a.u.)       :      0.71395
Magnitude (Debye)      :      1.81471

Rotational constants in cm-1:     4.171378     0.862717     0.821528
Rotational constants in MHz : 125054.766551 25863.607259 24628.780283

                             ****ORCA TERMINATED NORMALLY****
TOTAL RUN TIME: 0 days 0 hours 6 minutes 3 seconds 136 msec
