                         Program Version 4.1.2  - RELEASE  -
|  1> #Run DFT-D3 single point of the dimer
|  2> ! wB97X-D3 def2-TZVP TIGHTSCF CHELPG PMODEL PAL8
|  3>
|  4> %base "18-109_DFT_AB"
|  5>
|  6> %scf
|  7> MaxIter 1000
|  8> end
|  9>
| 10> * xyz 0 1
| 11>   C                      -6.192142            3.316149             -6.809267
| 12>   O                      -7.336972            3.537002             -7.548146
| 13>   H                      -7.789556            2.702504             -7.730848
| 14>   H                      -5.550803            2.508840             -7.203394
| 15>   H                      -5.617500            4.249866             -6.681300
| 16>   H                      -6.487296            3.059654             -5.826811
| 17>   C                      -4.316056            -0.856498            -8.775751
| 18>   O                      -4.542268            -0.190144            -7.540663
| 19>   H                      -5.476759            -0.406230            -7.283061
| 20>   H                      -4.513052            -1.905789            -8.747936
| 21>   H                      -4.996496            -0.417810            -9.494669
| 22>   H                      -3.271040            -0.721559            -9.192925
| 23> *
| 24>
| 25> #Run DFT-D3 single point of the molecule with dimer basis set
| 26> $new_job
| 27> %base "18-109_DFT_A"
| 28> ! wB97X-D3 def2-TZVP TIGHTSCF CHELPG PMODEL
| 29>
| 30> %scf
| 31> MaxIter 1000
| 32> end
| 33>
| 34> * xyz 0 1
| 35>   C                      -6.192142            3.316149             -6.809267
| 36>   O                      -7.336972            3.537002             -7.548146
| 37>   H                      -7.789556            2.702504             -7.730848
| 38>   H                      -5.550803            2.508840             -7.203394
| 39>   H                      -5.617500            4.249866             -6.681300
| 40>   H                      -6.487296            3.059654             -5.826811
| 41>   C                    : -4.316056            -0.856498            -8.775751
| 42>   O                    : -4.542268            -0.190144            -7.540663
| 43>   H                    : -5.476759            -0.406230            -7.283061
| 44>   H                    : -4.513052            -1.905789            -8.747936
| 45>   H                    : -4.996496            -0.417810            -9.494669
| 46>   H                    : -3.271040            -0.721559            -9.192925
| 47> *
| 48>
| 49> #Run DFT-D3 single point of the particle with dimer basis set
| 50> $new_job
| 51> %base "18-109_DFT_B"
| 52> ! wB97X-D3 def2-TZVP TIGHTSCF CHELPG PMODEL
| 53>
| 54> %scf
| 55> MaxIter 1000
| 56> end
| 57>
| 58> * xyz 0 1
| 59>   C                    : -6.192142            3.316149             -6.809267
| 60>   O                    : -7.336972            3.537002             -7.548146
| 61>   H                    : -7.789556            2.702504             -7.730848
| 62>   H                    : -5.550803            2.508840             -7.203394
| 63>   H                    : -5.617500            4.249866             -6.681300
| 64>   H                    : -6.487296            3.059654             -5.826811
| 65>   C                      -4.316056            -0.856498            -8.775751
| 66>   O                      -4.542268            -0.190144            -7.540663
| 67>   H                      -5.476759            -0.406230            -7.283061
| 68>   H                      -4.513052            -1.905789            -8.747936
| 69>   H                      -4.996496            -0.417810            -9.494669
| 70>   H                      -3.271040            -0.721559            -9.192925
| 71> *
| 72>
| 73>                          ****END OF INPUT****
 Total Charge           Charge          ....    0
 Multiplicity           Mult            ....    1
 Number of Electrons    NEL             ....   36
Dispersion correction           -0.001192879
FINAL SINGLE POINT ENERGY      -231.466790424365
Dispersion correction           -0.000224915
FINAL SINGLE POINT ENERGY      -115.733650197592

CARTESIAN COORDINATES (ANGSTROEM)
---------------------------------
  C     -6.192142    3.316149   -6.809267
  O     -7.336972    3.537002   -7.548146
  H     -7.789556    2.702504   -7.730848
  H     -5.550803    2.508840   -7.203394
  H     -5.617500    4.249866   -6.681300
  H     -6.487296    3.059654   -5.826811
  C     -4.316056   -0.856498   -8.775751
  O     -4.542268   -0.190144   -7.540663
  H     -5.476759   -0.406230   -7.283061
  H     -4.513052   -1.905789   -8.747936
  H     -4.996496   -0.417810   -9.494669
  H     -3.271040   -0.721559   -9.192925

 Multiplicity           Mult            ....    1
 Number of Electrons    NEL             ....   18
 Basis Dimension        Dim             ....  172

ORBITAL ENERGIES
----------------

  NO   OCC          E(Eh)            E(eV)
   0   2.0000     -19.234438      -523.3957
   1   2.0000     -10.313704      -280.6502
   2   2.0000      -1.129944       -30.7473
   3   2.0000      -0.792444       -21.5635
   4   2.0000      -0.606348       -16.4996
   5   2.0000      -0.543747       -14.7961
   6   2.0000      -0.525013       -14.2863
   7   2.0000      -0.433792       -11.8041
   8   2.0000      -0.372812       -10.1447
   9   0.0000       0.085323         2.3218
  10   0.0000       0.122124         3.3232
  11   0.0000       0.150778         4.1029
  12   0.0000       0.168773         4.5925
  13   0.0000       0.196594         5.3496

MULLIKEN ATOMIC CHARGES
-----------------------
   0 C :    0.002701
   1 O :    0.000128
   2 H :   -0.000120
   3 H :   -0.010162
   4 H :   -0.000314
   5 H :   -0.000086
   6 C :   -0.174689
   7 O :   -0.472492
   8 H :    0.319456
   9 H :    0.109907
  10 H :    0.105753
  11 H :    0.119918
Sum of atomic charges:   -0.0000000

LOEWDIN ATOMIC CHARGES
----------------------
   0 C :   -0.001966
   1 O :   -0.000025
   2 H :   -0.000064
   3 H :   -0.006966
   4 H :   -0.000020
   5 H :   -0.000039
   6 C :   -0.386809
   7 O :   -0.092735
   8 H :    0.190292
   9 H :    0.088234
  10 H :    0.093188
  11 H :    0.116909

  Mayer bond orders larger than 0.1
B(  6-C ,  7-O ) :   0.9897 B(  6-C ,  9-H ) :   0.9708 B(  6-C , 10-H ) :   0.9856
B(  6-C , 11-H ) :   0.9701 B(  7-O ,  8-H ) :   0.8914

Dispersion correction           -0.000235008
FINAL SINGLE POINT ENERGY      -115.732272880292

DIPOLE MOMENT
-------------
                                X             Y             Z
Electronic contribution:     -0.09702       0.84453       1.64435
Nuclear contribution   :     -0.39182      -1.26448      -1.99005
                        -----------------------------------------
Total Dipole Moment    :     -0.48885      -0.41995      -0.34570
                        -----------------------------------------
Magnitude (a.u.)       :      0.73133
Magnitude (Debye)      :      1.85889

Rotational constants in cm-1:     4.273458     0.823793     0.788220
Rotational constants in MHz : 128115.058890 24696.684670 23630.230423

                             ****ORCA TERMINATED NORMALLY****
TOTAL RUN TIME: 0 days 0 hours 1 minutes 4 seconds 315 msec
