                         Program Version 4.1.2  - RELEASE  -
|  1> #Run DFT-D3 single point of the dimer
|  2> ! wB97X-D3 def2-TZVP TIGHTSCF CHELPG PMODEL PAL8
|  3>
|  4> %base "13-12_DFT_AB"
|  5>
|  6> %scf
|  7> MaxIter 1000
|  8> end
|  9>
| 10> * xyz 0 1
| 11>   C                      -1.759558            -3.697240            10.473655
| 12>   O                      -1.814703            -2.791501            9.446395
| 13>   H                      -1.493921            -1.963915            9.817831
| 14>   H                      -0.839036            -3.765161            10.942798
| 15>   H                      -2.437705            -3.484567            11.215743
| 16>   H                      -1.906414            -4.658250            10.028213
| 17>   C                      -0.569325            0.547169             11.173100
| 18>   O                      -0.356151            -0.616771            10.400713
| 19>   H                      0.526050             -0.485911            9.977377
| 20>   H                      -0.933703            0.250722             12.240834
| 21>   H                      0.352032             1.046858             11.233762
| 22>   H                      -1.261568            1.216516             10.621655
| 23> *
| 24>
| 25> #Run DFT-D3 single point of the molecule with dimer basis set
| 26> $new_job
| 27> %base "13-12_DFT_A"
| 28> ! wB97X-D3 def2-TZVP TIGHTSCF CHELPG PMODEL
| 29>
| 30> %scf
| 31> MaxIter 1000
| 32> end
| 33>
| 34> * xyz 0 1
| 35>   C                      -1.759558            -3.697240            10.473655
| 36>   O                      -1.814703            -2.791501            9.446395
| 37>   H                      -1.493921            -1.963915            9.817831
| 38>   H                      -0.839036            -3.765161            10.942798
| 39>   H                      -2.437705            -3.484567            11.215743
| 40>   H                      -1.906414            -4.658250            10.028213
| 41>   C                    : -0.569325            0.547169             11.173100
| 42>   O                    : -0.356151            -0.616771            10.400713
| 43>   H                    : 0.526050             -0.485911            9.977377
| 44>   H                    : -0.933703            0.250722             12.240834
| 45>   H                    : 0.352032             1.046858             11.233762
| 46>   H                    : -1.261568            1.216516             10.621655
| 47> *
| 48>
| 49> #Run DFT-D3 single point of the particle with dimer basis set
| 50> $new_job
| 51> %base "13-12_DFT_B"
| 52> ! wB97X-D3 def2-TZVP TIGHTSCF CHELPG PMODEL
| 53>
| 54> %scf
| 55> MaxIter 1000
| 56> end
| 57>
| 58> * xyz 0 1
| 59>   C                    : -1.759558            -3.697240            10.473655
| 60>   O                    : -1.814703            -2.791501            9.446395
| 61>   H                    : -1.493921            -1.963915            9.817831
| 62>   H                    : -0.839036            -3.765161            10.942798
| 63>   H                    : -2.437705            -3.484567            11.215743
| 64>   H                    : -1.906414            -4.658250            10.028213
| 65>   C                      -0.569325            0.547169             11.173100
| 66>   O                      -0.356151            -0.616771            10.400713
| 67>   H                      0.526050             -0.485911            9.977377
| 68>   H                      -0.933703            0.250722             12.240834
| 69>   H                      0.352032             1.046858             11.233762
| 70>   H                      -1.261568            1.216516             10.621655
| 71> *
| 72>
| 73>                          ****END OF INPUT****
 Total Charge           Charge          ....    0
 Multiplicity           Mult            ....    1
 Number of Electrons    NEL             ....   36
Dispersion correction           -0.001655910
FINAL SINGLE POINT ENERGY      -231.465711084780
Dispersion correction           -0.000194011
FINAL SINGLE POINT ENERGY      -115.728727399963

CARTESIAN COORDINATES (ANGSTROEM)
---------------------------------
  C     -1.759558   -3.697240   10.473655
  O     -1.814703   -2.791501    9.446395
  H     -1.493921   -1.963915    9.817831
  H     -0.839036   -3.765161   10.942798
  H     -2.437705   -3.484567   11.215743
  H     -1.906414   -4.658250   10.028213
  C     -0.569325    0.547169   11.173100
  O     -0.356151   -0.616771   10.400713
  H      0.526050   -0.485911    9.977377
  H     -0.933703    0.250722   12.240834
  H      0.352032    1.046858   11.233762
  H     -1.261568    1.216516   10.621655

 Multiplicity           Mult            ....    1
 Number of Electrons    NEL             ....   18
 Basis Dimension        Dim             ....  172

ORBITAL ENERGIES
----------------

  NO   OCC          E(Eh)            E(eV)
   0   2.0000     -19.231088      -523.3045
   1   2.0000     -10.317808      -280.7618
   2   2.0000      -1.133962       -30.8567
   3   2.0000      -0.786959       -21.4142
   4   2.0000      -0.612522       -16.6676
   5   2.0000      -0.541771       -14.7423
   6   2.0000      -0.520861       -14.1733
   7   2.0000      -0.433839       -11.8054
   8   2.0000      -0.371528       -10.1098
   9   0.0000       0.097352         2.6491
  10   0.0000       0.122098         3.3225
  11   0.0000       0.151428         4.1206
  12   0.0000       0.188812         5.1378
  13   0.0000       0.194031         5.2798

MULLIKEN ATOMIC CHARGES
-----------------------
   0 C :    0.005174
   1 O :    0.002177
   2 H :   -0.014200
   3 H :   -0.004481
   4 H :   -0.001025
   5 H :   -0.000327
   6 C :   -0.159181
   7 O :   -0.464792
   8 H :    0.315056
   9 H :    0.110431
  10 H :    0.105894
  11 H :    0.105274
Sum of atomic charges:    0.0000000

LOEWDIN ATOMIC CHARGES
----------------------
   0 C :   -0.005547
   1 O :   -0.006963
   2 H :   -0.050673
   3 H :   -0.001697
   4 H :   -0.000185
   5 H :   -0.000070
   6 C :   -0.386250
   7 O :   -0.039534
   8 H :    0.186563
   9 H :    0.116875
  10 H :    0.087061
  11 H :    0.100421

  Mayer bond orders larger than 0.1
B(  6-C ,  7-O ) :   0.9945 B(  6-C ,  9-H ) :   0.9707 B(  6-C , 10-H ) :   0.9842
B(  6-C , 11-H ) :   0.9745 B(  7-O ,  8-H ) :   0.8964

Dispersion correction           -0.000233398
FINAL SINGLE POINT ENERGY      -115.728577679727

DIPOLE MOMENT
-------------
                                X             Y             Z
Electronic contribution:      0.13303      -1.48601      -0.90894
Nuclear contribution   :      0.38910       2.04080       0.93438
                        -----------------------------------------
Total Dipole Moment    :      0.52213       0.55479       0.02544
                        -----------------------------------------
Magnitude (a.u.)       :      0.76227
Magnitude (Debye)      :      1.93753

Rotational constants in cm-1:     4.038909     0.838822     0.811025
Rotational constants in MHz : 121083.459864 25147.245916 24313.910945

                             ****ORCA TERMINATED NORMALLY****
TOTAL RUN TIME: 0 days 0 hours 1 minutes 9 seconds 486 msec
