                         Program Version 4.1.2  - RELEASE  -
|  1> #Run DFT-D3 single point of the dimer
|  2> ! wB97X-D3 def2-TZVP TIGHTSCF CHELPG PMODEL PAL8
|  3>
|  4> %base "18-54_DFT_AB"
|  5>
|  6> %scf
|  7> MaxIter 1000
|  8> end
|  9>
| 10> * xyz 0 1
| 11>   C                      1.360282             -4.777872            -0.154041
| 12>   O                      0.112124             -4.454516            0.466890
| 13>   H                      0.255263             -3.645348            0.929075
| 14>   H                      1.579164             -4.006664            -0.829384
| 15>   H                      2.089112             -4.804114            0.602860
| 16>   H                      1.466500             -5.741228            -0.685839
| 17>   C                      -2.315231            -6.857830            0.307560
| 18>   O                      -2.542945            -5.554965            -0.144974
| 19>   H                      -1.707298            -5.106445            -0.070544
| 20>   H                      -1.393169            -7.004785            0.903639
| 21>   H                      -3.215109            -7.202972            0.945529
| 22>   H                      -2.260062            -7.423079            -0.631188
| 23> *
| 24>
| 25> #Run DFT-D3 single point of the molecule with dimer basis set
| 26> $new_job
| 27> %base "18-54_DFT_A"
| 28> ! wB97X-D3 def2-TZVP TIGHTSCF CHELPG PMODEL
| 29>
| 30> %scf
| 31> MaxIter 1000
| 32> end
| 33>
| 34> * xyz 0 1
| 35>   C                      1.360282             -4.777872            -0.154041
| 36>   O                      0.112124             -4.454516            0.466890
| 37>   H                      0.255263             -3.645348            0.929075
| 38>   H                      1.579164             -4.006664            -0.829384
| 39>   H                      2.089112             -4.804114            0.602860
| 40>   H                      1.466500             -5.741228            -0.685839
| 41>   C                    : -2.315231            -6.857830            0.307560
| 42>   O                    : -2.542945            -5.554965            -0.144974
| 43>   H                    : -1.707298            -5.106445            -0.070544
| 44>   H                    : -1.393169            -7.004785            0.903639
| 45>   H                    : -3.215109            -7.202972            0.945529
| 46>   H                    : -2.260062            -7.423079            -0.631188
| 47> *
| 48>
| 49> #Run DFT-D3 single point of the particle with dimer basis set
| 50> $new_job
| 51> %base "18-54_DFT_B"
| 52> ! wB97X-D3 def2-TZVP TIGHTSCF CHELPG PMODEL
| 53>
| 54> %scf
| 55> MaxIter 1000
| 56> end
| 57>
| 58> * xyz 0 1
| 59>   C                    : 1.360282             -4.777872            -0.154041
| 60>   O                    : 0.112124             -4.454516            0.466890
| 61>   H                    : 0.255263             -3.645348            0.929075
| 62>   H                    : 1.579164             -4.006664            -0.829384
| 63>   H                    : 2.089112             -4.804114            0.602860
| 64>   H                    : 1.466500             -5.741228            -0.685839
| 65>   C                      -2.315231            -6.857830            0.307560
| 66>   O                      -2.542945            -5.554965            -0.144974
| 67>   H                      -1.707298            -5.106445            -0.070544
| 68>   H                      -1.393169            -7.004785            0.903639
| 69>   H                      -3.215109            -7.202972            0.945529
| 70>   H                      -2.260062            -7.423079            -0.631188
| 71> *
| 72>
| 73>                          ****END OF INPUT****
 Total Charge           Charge          ....    0
 Multiplicity           Mult            ....    1
 Number of Electrons    NEL             ....   36
Dispersion correction           -0.001767512
FINAL SINGLE POINT ENERGY      -231.468552159245
Dispersion correction           -0.000217386
FINAL SINGLE POINT ENERGY      -115.728836920573

CARTESIAN COORDINATES (ANGSTROEM)
---------------------------------
  C      1.360282   -4.777872   -0.154041
  O      0.112124   -4.454516    0.466890
  H      0.255263   -3.645348    0.929075
  H      1.579164   -4.006664   -0.829384
  H      2.089112   -4.804114    0.602860
  H      1.466500   -5.741228   -0.685839
  C     -2.315231   -6.857830    0.307560
  O     -2.542945   -5.554965   -0.144974
  H     -1.707298   -5.106445   -0.070544
  H     -1.393169   -7.004785    0.903639
  H     -3.215109   -7.202972    0.945529
  H     -2.260062   -7.423079   -0.631188

 Multiplicity           Mult            ....    1
 Number of Electrons    NEL             ....   18
 Basis Dimension        Dim             ....  172

ORBITAL ENERGIES
----------------

  NO   OCC          E(Eh)            E(eV)
   0   2.0000     -19.228642      -523.2379
   1   2.0000     -10.318920      -280.7921
   2   2.0000      -1.145154       -31.1612
   3   2.0000      -0.787108       -21.4183
   4   2.0000      -0.615269       -16.7423
   5   2.0000      -0.544768       -14.8239
   6   2.0000      -0.519111       -14.1257
   7   2.0000      -0.436747       -11.8845
   8   2.0000      -0.368714       -10.0332
   9   0.0000       0.066329         1.8049
  10   0.0000       0.133479         3.6321
  11   0.0000       0.143314         3.8998
  12   0.0000       0.170297         4.6340
  13   0.0000       0.182506         4.9662

MULLIKEN ATOMIC CHARGES
-----------------------
   0 C :   -0.001829
   1 O :   -0.004575
   2 H :   -0.000461
   3 H :    0.000229
   4 H :   -0.000038
   5 H :    0.000090
   6 C :   -0.176377
   7 O :   -0.460097
   8 H :    0.313723
   9 H :    0.107931
  10 H :    0.111656
  11 H :    0.109749
Sum of atomic charges:    0.0000000

LOEWDIN ATOMIC CHARGES
----------------------
   0 C :   -0.002608
   1 O :   -0.016770
   2 H :   -0.001068
   3 H :   -0.000042
   4 H :   -0.000069
   5 H :   -0.000163
   6 C :   -0.405773
   7 O :   -0.055983
   8 H :    0.170703
   9 H :    0.097228
  10 H :    0.114262
  11 H :    0.100280

  Mayer bond orders larger than 0.1
B(  6-C ,  7-O ) :   0.9827 B(  6-C ,  9-H ) :   0.9718 B(  6-C , 10-H ) :   0.9700
B(  6-C , 11-H ) :   0.9855 B(  7-O ,  8-H ) :   0.9112

Dispersion correction           -0.000234103
FINAL SINGLE POINT ENERGY      -115.730353799862

DIPOLE MOMENT
-------------
                                X             Y             Z
Electronic contribution:     -0.35011       1.67207      -0.55769
Nuclear contribution   :      0.98670      -1.86276       0.77673
                        -----------------------------------------
Total Dipole Moment    :      0.63659      -0.19069       0.21903
                        -----------------------------------------
Magnitude (a.u.)       :      0.69970
Magnitude (Debye)      :      1.77849

Rotational constants in cm-1:     4.072630     0.851868     0.820454
Rotational constants in MHz : 122094.376000 25538.370666 24596.583340

                             ****ORCA TERMINATED NORMALLY****
TOTAL RUN TIME: 0 days 0 hours 0 minutes 56 seconds 831 msec
