                         Program Version 4.1.2  - RELEASE  -
|  1> #Run DFT-D3 single point of the dimer
|  2> ! wB97X-D3 def2-TZVP TIGHTSCF CHELPG PMODEL PAL8
|  3>
|  4> %base "18-73_DFT_AB"
|  5>
|  6> %scf
|  7> MaxIter 1000
|  8> end
|  9>
| 10> * xyz 0 1
| 11>   C                      1.357016             -4.144993            -10.981236
| 12>   O                      0.027472             -4.230226            -11.449429
| 13>   H                      -0.609732            -4.116617            -10.744449
| 14>   H                      1.503885             -3.179850            -10.444601
| 15>   H                      1.556631             -4.875398            -10.229939
| 16>   H                      2.132881             -4.103547            -11.830028
| 17>   C                      5.008507             -2.931150            -6.739641
| 18>   O                      3.743547             -2.944197            -6.202089
| 19>   H                      3.206737             -3.256923            -6.888569
| 20>   H                      5.137489             -3.022514            -7.878077
| 21>   H                      5.425506             -1.937246            -6.564943
| 22>   H                      5.645578             -3.705248            -6.302389
| 23> *
| 24>
| 25> #Run DFT-D3 single point of the molecule with dimer basis set
| 26> $new_job
| 27> %base "18-73_DFT_A"
| 28> ! wB97X-D3 def2-TZVP TIGHTSCF CHELPG PMODEL
| 29>
| 30> %scf
| 31> MaxIter 1000
| 32> end
| 33>
| 34> * xyz 0 1
| 35>   C                      1.357016             -4.144993            -10.981236
| 36>   O                      0.027472             -4.230226            -11.449429
| 37>   H                      -0.609732            -4.116617            -10.744449
| 38>   H                      1.503885             -3.179850            -10.444601
| 39>   H                      1.556631             -4.875398            -10.229939
| 40>   H                      2.132881             -4.103547            -11.830028
| 41>   C                    : 5.008507             -2.931150            -6.739641
| 42>   O                    : 3.743547             -2.944197            -6.202089
| 43>   H                    : 3.206737             -3.256923            -6.888569
| 44>   H                    : 5.137489             -3.022514            -7.878077
| 45>   H                    : 5.425506             -1.937246            -6.564943
| 46>   H                    : 5.645578             -3.705248            -6.302389
| 47> *
| 48>
| 49> #Run DFT-D3 single point of the particle with dimer basis set
| 50> $new_job
| 51> %base "18-73_DFT_B"
| 52> ! wB97X-D3 def2-TZVP TIGHTSCF CHELPG PMODEL
| 53>
| 54> %scf
| 55> MaxIter 1000
| 56> end
| 57>
| 58> * xyz 0 1
| 59>   C                    : 1.357016             -4.144993            -10.981236
| 60>   O                    : 0.027472             -4.230226            -11.449429
| 61>   H                    : -0.609732            -4.116617            -10.744449
| 62>   H                    : 1.503885             -3.179850            -10.444601
| 63>   H                    : 1.556631             -4.875398            -10.229939
| 64>   H                    : 2.132881             -4.103547            -11.830028
| 65>   C                      5.008507             -2.931150            -6.739641
| 66>   O                      3.743547             -2.944197            -6.202089
| 67>   H                      3.206737             -3.256923            -6.888569
| 68>   H                      5.137489             -3.022514            -7.878077
| 69>   H                      5.425506             -1.937246            -6.564943
| 70>   H                      5.645578             -3.705248            -6.302389
| 71> *
| 72>
| 73>                          ****END OF INPUT****
 Total Charge           Charge          ....    0
 Multiplicity           Mult            ....    1
 Number of Electrons    NEL             ....   36
Dispersion correction           -0.000700305
FINAL SINGLE POINT ENERGY      -231.459608217958
Dispersion correction           -0.000247279
FINAL SINGLE POINT ENERGY      -115.730846142398

CARTESIAN COORDINATES (ANGSTROEM)
---------------------------------
  C      1.357016   -4.144993  -10.981236
  O      0.027472   -4.230226  -11.449429
  H     -0.609732   -4.116617  -10.744449
  H      1.503885   -3.179850  -10.444601
  H      1.556631   -4.875398  -10.229939
  H      2.132881   -4.103547  -11.830028
  C      5.008507   -2.931150   -6.739641
  O      3.743547   -2.944197   -6.202089
  H      3.206737   -3.256923   -6.888569
  H      5.137489   -3.022514   -7.878077
  H      5.425506   -1.937246   -6.564943
  H      5.645578   -3.705248   -6.302389

 Multiplicity           Mult            ....    1
 Number of Electrons    NEL             ....   18
 Basis Dimension        Dim             ....  172

ORBITAL ENERGIES
----------------

  NO   OCC          E(Eh)            E(eV)
   0   2.0000     -19.231251      -523.3089
   1   2.0000     -10.314642      -280.6757
   2   2.0000      -1.160734       -31.5852
   3   2.0000      -0.793220       -21.5846
   4   2.0000      -0.622818       -16.9477
   5   2.0000      -0.551154       -14.9977
   6   2.0000      -0.525312       -14.2945
   7   2.0000      -0.431208       -11.7338
   8   2.0000      -0.375661       -10.2223
   9   0.0000       0.073860         2.0098
  10   0.0000       0.115461         3.1419
  11   0.0000       0.153999         4.1905
  12   0.0000       0.161525         4.3953
  13   0.0000       0.184644         5.0244

MULLIKEN ATOMIC CHARGES
-----------------------
   0 C :    0.000038
   1 O :   -0.000000
   2 H :   -0.000000
   3 H :   -0.000091
   4 H :   -0.000043
   5 H :   -0.000001
   6 C :   -0.177685
   7 O :   -0.447547
   8 H :    0.313394
   9 H :    0.098508
  10 H :    0.108961
  11 H :    0.104467
Sum of atomic charges:    0.0000000

LOEWDIN ATOMIC CHARGES
----------------------
   0 C :   -0.000040
   1 O :   -0.000001
   2 H :   -0.000000
   3 H :   -0.000042
   4 H :   -0.000023
   5 H :   -0.000002
   6 C :   -0.427295
   7 O :   -0.027267
   8 H :    0.153761
   9 H :    0.103842
  10 H :    0.101258
  11 H :    0.095809

  Mayer bond orders larger than 0.1
B(  6-C ,  7-O ) :   1.0108 B(  6-C ,  9-H ) :   0.9778 B(  6-C , 10-H ) :   0.9782
B(  6-C , 11-H ) :   0.9732 B(  7-O ,  8-H ) :   0.9078

Dispersion correction           -0.000241710
FINAL SINGLE POINT ENERGY      -115.728854782281

DIPOLE MOMENT
-------------
                                X             Y             Z
Electronic contribution:     -1.76255      -0.05049       0.90893
Nuclear contribution   :      1.85375      -0.13739      -1.55688
                        -----------------------------------------
Total Dipole Moment    :      0.09120      -0.18788      -0.64795
                        -----------------------------------------
Magnitude (a.u.)       :      0.68078
Magnitude (Debye)      :      1.73039

Rotational constants in cm-1:     4.316296     0.861361     0.835885
Rotational constants in MHz : 129399.294649 25822.940484 25059.208773

                             ****ORCA TERMINATED NORMALLY****
TOTAL RUN TIME: 0 days 0 hours 0 minutes 57 seconds 563 msec
