                         Program Version 4.1.2  - RELEASE  -
|  1> #Run DFT-D3 single point of the dimer
|  2> ! wB97X-D3 def2-TZVP TIGHTSCF CHELPG PMODEL PAL8
|  3>
|  4> %base "18-20_DFT_AB"
|  5>
|  6> %scf
|  7> MaxIter 1000
|  8> end
|  9>
| 10> * xyz 0 1
| 11>   C                      -5.176520            -0.642955            5.468790
| 12>   O                      -4.038877            -1.295501            5.945422
| 13>   H                      -4.126203            -2.205438            5.650035
| 14>   H                      -5.286508            -0.774904            4.375683
| 15>   H                      -6.105946            -0.911018            5.899308
| 16>   H                      -5.090722            0.414521             5.747167
| 17>   C                      -5.489523            -3.813304            8.215315
| 18>   O                      -6.739284            -4.407885            8.109298
| 19>   H                      -7.413917            -3.714608            8.024810
| 20>   H                      -4.976029            -3.686453            7.194270
| 21>   H                      -5.521442            -2.886207            8.754006
| 22>   H                      -4.844538            -4.540704            8.737894
| 23> *
| 24>
| 25> #Run DFT-D3 single point of the molecule with dimer basis set
| 26> $new_job
| 27> %base "18-20_DFT_A"
| 28> ! wB97X-D3 def2-TZVP TIGHTSCF CHELPG PMODEL
| 29>
| 30> %scf
| 31> MaxIter 1000
| 32> end
| 33>
| 34> * xyz 0 1
| 35>   C                      -5.176520            -0.642955            5.468790
| 36>   O                      -4.038877            -1.295501            5.945422
| 37>   H                      -4.126203            -2.205438            5.650035
| 38>   H                      -5.286508            -0.774904            4.375683
| 39>   H                      -6.105946            -0.911018            5.899308
| 40>   H                      -5.090722            0.414521             5.747167
| 41>   C                    : -5.489523            -3.813304            8.215315
| 42>   O                    : -6.739284            -4.407885            8.109298
| 43>   H                    : -7.413917            -3.714608            8.024810
| 44>   H                    : -4.976029            -3.686453            7.194270
| 45>   H                    : -5.521442            -2.886207            8.754006
| 46>   H                    : -4.844538            -4.540704            8.737894
| 47> *
| 48>
| 49> #Run DFT-D3 single point of the particle with dimer basis set
| 50> $new_job
| 51> %base "18-20_DFT_B"
| 52> ! wB97X-D3 def2-TZVP TIGHTSCF CHELPG PMODEL
| 53>
| 54> %scf
| 55> MaxIter 1000
| 56> end
| 57>
| 58> * xyz 0 1
| 59>   C                    : -5.176520            -0.642955            5.468790
| 60>   O                    : -4.038877            -1.295501            5.945422
| 61>   H                    : -4.126203            -2.205438            5.650035
| 62>   H                    : -5.286508            -0.774904            4.375683
| 63>   H                    : -6.105946            -0.911018            5.899308
| 64>   H                    : -5.090722            0.414521             5.747167
| 65>   C                      -5.489523            -3.813304            8.215315
| 66>   O                      -6.739284            -4.407885            8.109298
| 67>   H                      -7.413917            -3.714608            8.024810
| 68>   H                      -4.976029            -3.686453            7.194270
| 69>   H                      -5.521442            -2.886207            8.754006
| 70>   H                      -4.844538            -4.540704            8.737894
| 71> *
| 72>
| 73>                          ****END OF INPUT****
 Total Charge           Charge          ....    0
 Multiplicity           Mult            ....    1
 Number of Electrons    NEL             ....   36
Dispersion correction           -0.001611401
FINAL SINGLE POINT ENERGY      -231.469214744662
Dispersion correction           -0.000229559
FINAL SINGLE POINT ENERGY      -115.734624007322

CARTESIAN COORDINATES (ANGSTROEM)
---------------------------------
  C     -5.176520   -0.642955    5.468790
  O     -4.038877   -1.295501    5.945422
  H     -4.126203   -2.205438    5.650035
  H     -5.286508   -0.774904    4.375683
  H     -6.105946   -0.911018    5.899308
  H     -5.090722    0.414521    5.747167
  C     -5.489523   -3.813304    8.215315
  O     -6.739284   -4.407885    8.109298
  H     -7.413917   -3.714608    8.024810
  H     -4.976029   -3.686453    7.194270
  H     -5.521442   -2.886207    8.754006
  H     -4.844538   -4.540704    8.737894

 Multiplicity           Mult            ....    1
 Number of Electrons    NEL             ....   18
 Basis Dimension        Dim             ....  172

ORBITAL ENERGIES
----------------

  NO   OCC          E(Eh)            E(eV)
   0   2.0000     -19.231198      -523.3075
   1   2.0000     -10.314767      -280.6791
   2   2.0000      -1.142518       -31.0895
   3   2.0000      -0.790505       -21.5107
   4   2.0000      -0.616332       -16.7713
   5   2.0000      -0.539578       -14.6827
   6   2.0000      -0.527864       -14.3639
   7   2.0000      -0.433300       -11.7907
   8   2.0000      -0.369113       -10.0441
   9   0.0000       0.080310         2.1853
  10   0.0000       0.117687         3.2024
  11   0.0000       0.147994         4.0271
  12   0.0000       0.174593         4.7509
  13   0.0000       0.188929         5.1410

MULLIKEN ATOMIC CHARGES
-----------------------
   0 C :   -0.000768
   1 O :   -0.000775
   2 H :   -0.001394
   3 H :   -0.000019
   4 H :    0.000731
   5 H :    0.000148
   6 C :   -0.161091
   7 O :   -0.466122
   8 H :    0.315129
   9 H :    0.093587
  10 H :    0.106844
  11 H :    0.113731
Sum of atomic charges:   -0.0000000

LOEWDIN ATOMIC CHARGES
----------------------
   0 C :   -0.001440
   1 O :   -0.002035
   2 H :   -0.007079
   3 H :   -0.000013
   4 H :   -0.000267
   5 H :   -0.000011
   6 C :   -0.409724
   7 O :   -0.062017
   8 H :    0.176363
   9 H :    0.106426
  10 H :    0.090960
  11 H :    0.108838

  Mayer bond orders larger than 0.1
B(  6-C ,  7-O ) :   1.0108 B(  6-C ,  9-H ) :   0.9724 B(  6-C , 10-H ) :   0.9788
B(  6-C , 11-H ) :   0.9732 B(  7-O ,  8-H ) :   0.8978

Dispersion correction           -0.000244476
FINAL SINGLE POINT ENERGY      -115.733814376057

DIPOLE MOMENT
-------------
                                X             Y             Z
Electronic contribution:     -1.65375      -0.79516      -0.05016
Nuclear contribution   :      1.67857       1.45826       0.07469
                        -----------------------------------------
Total Dipole Moment    :      0.02482       0.66311       0.02453
                        -----------------------------------------
Magnitude (a.u.)       :      0.66402
Magnitude (Debye)      :      1.68781

Rotational constants in cm-1:     4.189186     0.853071     0.822391
Rotational constants in MHz : 125588.635049 25574.432128 24654.676472

                             ****ORCA TERMINATED NORMALLY****
TOTAL RUN TIME: 0 days 0 hours 1 minutes 4 seconds 523 msec
