                         Program Version 4.1.2  - RELEASE  -
|  1> #Run DFT-D3 single point of the dimer
|  2> ! wB97X-D3 def2-TZVP TIGHTSCF CHELPG PMODEL PAL8
|  3>
|  4> %base "9-159_DFT_AB"
|  5>
|  6> %scf
|  7> MaxIter 1000
|  8> end
|  9>
| 10> * xyz 0 1
| 11>   C                      -2.998582            9.133272             -1.790097
| 12>   O                      -4.163758            8.383739             -1.734354
| 13>   H                      -4.391098            8.568409             -2.645364
| 14>   H                      -2.714693            9.333360             -2.837383
| 15>   H                      -3.005740            10.087952            -1.249025
| 16>   H                      -2.180196            8.576818             -1.433633
| 17>   C                      -3.561589            5.623391             -3.331351
| 18>   O                      -3.120860            5.579767             -2.011548
| 19>   H                      -3.818249            5.950726             -1.462350
| 20>   H                      -3.094282            4.848925             -3.971790
| 21>   H                      -4.606795            5.456275             -3.438757
| 22>   H                      -3.368484            6.524600             -3.853765
| 23> *
| 24>
| 25> #Run DFT-D3 single point of the molecule with dimer basis set
| 26> $new_job
| 27> %base "9-159_DFT_A"
| 28> ! wB97X-D3 def2-TZVP TIGHTSCF CHELPG PMODEL
| 29>
| 30> %scf
| 31> MaxIter 1000
| 32> end
| 33>
| 34> * xyz 0 1
| 35>   C                      -2.998582            9.133272             -1.790097
| 36>   O                      -4.163758            8.383739             -1.734354
| 37>   H                      -4.391098            8.568409             -2.645364
| 38>   H                      -2.714693            9.333360             -2.837383
| 39>   H                      -3.005740            10.087952            -1.249025
| 40>   H                      -2.180196            8.576818             -1.433633
| 41>   C                    : -3.561589            5.623391             -3.331351
| 42>   O                    : -3.120860            5.579767             -2.011548
| 43>   H                    : -3.818249            5.950726             -1.462350
| 44>   H                    : -3.094282            4.848925             -3.971790
| 45>   H                    : -4.606795            5.456275             -3.438757
| 46>   H                    : -3.368484            6.524600             -3.853765
| 47> *
| 48>
| 49> #Run DFT-D3 single point of the particle with dimer basis set
| 50> $new_job
| 51> %base "9-159_DFT_B"
| 52> ! wB97X-D3 def2-TZVP TIGHTSCF CHELPG PMODEL
| 53>
| 54> %scf
| 55> MaxIter 1000
| 56> end
| 57>
| 58> * xyz 0 1
| 59>   C                    : -2.998582            9.133272             -1.790097
| 60>   O                    : -4.163758            8.383739             -1.734354
| 61>   H                    : -4.391098            8.568409             -2.645364
| 62>   H                    : -2.714693            9.333360             -2.837383
| 63>   H                    : -3.005740            10.087952            -1.249025
| 64>   H                    : -2.180196            8.576818             -1.433633
| 65>   C                      -3.561589            5.623391             -3.331351
| 66>   O                      -3.120860            5.579767             -2.011548
| 67>   H                      -3.818249            5.950726             -1.462350
| 68>   H                      -3.094282            4.848925             -3.971790
| 69>   H                      -4.606795            5.456275             -3.438757
| 70>   H                      -3.368484            6.524600             -3.853765
| 71> *
| 72>
| 73>                          ****END OF INPUT****
 Total Charge           Charge          ....    0
 Multiplicity           Mult            ....    1
 Number of Electrons    NEL             ....   36
Dispersion correction           -0.002335760
FINAL SINGLE POINT ENERGY      -231.463125924207
Dispersion correction           -0.000205505
FINAL SINGLE POINT ENERGY      -115.725141210065

CARTESIAN COORDINATES (ANGSTROEM)
---------------------------------
  C     -2.998582    9.133272   -1.790097
  O     -4.163758    8.383739   -1.734354
  H     -4.391098    8.568409   -2.645364
  H     -2.714693    9.333360   -2.837383
  H     -3.005740   10.087952   -1.249025
  H     -2.180196    8.576818   -1.433633
  C     -3.561589    5.623391   -3.331351
  O     -3.120860    5.579767   -2.011548
  H     -3.818249    5.950726   -1.462350
  H     -3.094282    4.848925   -3.971790
  H     -4.606795    5.456275   -3.438757
  H     -3.368484    6.524600   -3.853765

 Multiplicity           Mult            ....    1
 Number of Electrons    NEL             ....   18
 Basis Dimension        Dim             ....  172

ORBITAL ENERGIES
----------------

  NO   OCC          E(Eh)            E(eV)
   0   2.0000     -19.234686      -523.4024
   1   2.0000     -10.305498      -280.4269
   2   2.0000      -1.144870       -31.1535
   3   2.0000      -0.801007       -21.7965
   4   2.0000      -0.621178       -16.9031
   5   2.0000      -0.544571       -14.8185
   6   2.0000      -0.530578       -14.4377
   7   2.0000      -0.433512       -11.7965
   8   2.0000      -0.375856       -10.2276
   9   0.0000       0.081872         2.2278
  10   0.0000       0.129916         3.5352
  11   0.0000       0.148510         4.0412
  12   0.0000       0.180037         4.8991
  13   0.0000       0.190159         5.1745

MULLIKEN ATOMIC CHARGES
-----------------------
   0 C :    0.000219
   1 O :   -0.003098
   2 H :   -0.000536
   3 H :   -0.000488
   4 H :   -0.000111
   5 H :   -0.003571
   6 C :   -0.175484
   7 O :   -0.464863
   8 H :    0.319609
   9 H :    0.116138
  10 H :    0.107978
  11 H :    0.104207
Sum of atomic charges:   -0.0000000

LOEWDIN ATOMIC CHARGES
----------------------
   0 C :   -0.005586
   1 O :   -0.007766
   2 H :   -0.002430
   3 H :   -0.000426
   4 H :   -0.000062
   5 H :   -0.002539
   6 C :   -0.401056
   7 O :   -0.046408
   8 H :    0.175512
   9 H :    0.111305
  10 H :    0.090875
  11 H :    0.088582

  Mayer bond orders larger than 0.1
B(  6-C ,  7-O ) :   1.0092 B(  6-C ,  9-H ) :   0.9755 B(  6-C , 10-H ) :   0.9863
B(  6-C , 11-H ) :   0.9749 B(  7-O ,  8-H ) :   0.8974

Dispersion correction           -0.000240042
FINAL SINGLE POINT ENERGY      -115.733561788218

DIPOLE MOMENT
-------------
                                X             Y             Z
Electronic contribution:      0.71821      -0.08001       1.80627
Nuclear contribution   :     -1.34834       0.31663      -1.97248
                        -----------------------------------------
Total Dipole Moment    :     -0.63013       0.23662      -0.16621
                        -----------------------------------------
Magnitude (a.u.)       :      0.69331
Magnitude (Debye)      :      1.76224

Rotational constants in cm-1:     4.572842     0.844866     0.811597
Rotational constants in MHz : 137090.347688 25328.443783 24331.051004

                             ****ORCA TERMINATED NORMALLY****
TOTAL RUN TIME: 0 days 0 hours 0 minutes 49 seconds 426 msec
