                         Program Version 4.1.2  - RELEASE  -
|  1> #Run DFT-D3 single point of the dimer
|  2> ! wB97X-D3 def2-TZVP TIGHTSCF CHELPG PMODEL PAL8
|  3>
|  4> %base "4-34_DFT_AB"
|  5>
|  6> %scf
|  7> MaxIter 1000
|  8> end
|  9>
| 10> * xyz 0 1
| 11>   C                      -5.192736            -2.225288            6.637700
| 12>   O                      -5.408181            -1.507434            5.386835
| 13>   H                      -4.517370            -1.420161            5.041826
| 14>   H                      -4.838058            -1.544956            7.408872
| 15>   H                      -6.004383            -2.688830            7.117625
| 16>   H                      -4.338427            -2.918640            6.592779
| 17>   C                      -10.124635           -1.578057            7.919502
| 18>   O                      -10.879954           -0.939472            8.906649
| 19>   H                      -10.560020           -1.285727            9.750235
| 20>   H                      -10.631960           -1.522368            6.942224
| 21>   H                      -9.127039            -1.203579            7.867189
| 22>   H                      -10.069790           -2.645726            8.152109
| 23> *
| 24>
| 25> #Run DFT-D3 single point of the molecule with dimer basis set
| 26> $new_job
| 27> %base "4-34_DFT_A"
| 28> ! wB97X-D3 def2-TZVP TIGHTSCF CHELPG PMODEL
| 29>
| 30> %scf
| 31> MaxIter 1000
| 32> end
| 33>
| 34> * xyz 0 1
| 35>   C                      -5.192736            -2.225288            6.637700
| 36>   O                      -5.408181            -1.507434            5.386835
| 37>   H                      -4.517370            -1.420161            5.041826
| 38>   H                      -4.838058            -1.544956            7.408872
| 39>   H                      -6.004383            -2.688830            7.117625
| 40>   H                      -4.338427            -2.918640            6.592779
| 41>   C                    : -10.124635           -1.578057            7.919502
| 42>   O                    : -10.879954           -0.939472            8.906649
| 43>   H                    : -10.560020           -1.285727            9.750235
| 44>   H                    : -10.631960           -1.522368            6.942224
| 45>   H                    : -9.127039            -1.203579            7.867189
| 46>   H                    : -10.069790           -2.645726            8.152109
| 47> *
| 48>
| 49> #Run DFT-D3 single point of the particle with dimer basis set
| 50> $new_job
| 51> %base "4-34_DFT_B"
| 52> ! wB97X-D3 def2-TZVP TIGHTSCF CHELPG PMODEL
| 53>
| 54> %scf
| 55> MaxIter 1000
| 56> end
| 57>
| 58> * xyz 0 1
| 59>   C                    : -5.192736            -2.225288            6.637700
| 60>   O                    : -5.408181            -1.507434            5.386835
| 61>   H                    : -4.517370            -1.420161            5.041826
| 62>   H                    : -4.838058            -1.544956            7.408872
| 63>   H                    : -6.004383            -2.688830            7.117625
| 64>   H                    : -4.338427            -2.918640            6.592779
| 65>   C                      -10.124635           -1.578057            7.919502
| 66>   O                      -10.879954           -0.939472            8.906649
| 67>   H                      -10.560020           -1.285727            9.750235
| 68>   H                      -10.631960           -1.522368            6.942224
| 69>   H                      -9.127039            -1.203579            7.867189
| 70>   H                      -10.069790           -2.645726            8.152109
| 71> *
| 72>
| 73>                          ****END OF INPUT****
 Total Charge           Charge          ....    0
 Multiplicity           Mult            ....    1
 Number of Electrons    NEL             ....   36
Dispersion correction           -0.000753020
FINAL SINGLE POINT ENERGY      -231.462242726633
Dispersion correction           -0.000252548
FINAL SINGLE POINT ENERGY      -115.726887561213

CARTESIAN COORDINATES (ANGSTROEM)
---------------------------------
  C     -5.192736   -2.225288    6.637700
  O     -5.408181   -1.507434    5.386835
  H     -4.517370   -1.420161    5.041826
  H     -4.838058   -1.544956    7.408872
  H     -6.004383   -2.688830    7.117625
  H     -4.338427   -2.918640    6.592779
  C    -10.124635   -1.578057    7.919502
  O    -10.879954   -0.939472    8.906649
  H    -10.560020   -1.285727    9.750235
  H    -10.631960   -1.522368    6.942224
  H     -9.127039   -1.203579    7.867189
  H    -10.069790   -2.645726    8.152109

 Multiplicity           Mult            ....    1
 Number of Electrons    NEL             ....   18
 Basis Dimension        Dim             ....  172

ORBITAL ENERGIES
----------------

  NO   OCC          E(Eh)            E(eV)
   0   2.0000     -19.229499      -523.2613
   1   2.0000     -10.308925      -280.5201
   2   2.0000      -1.141039       -31.0492
   3   2.0000      -0.793658       -21.5965
   4   2.0000      -0.613152       -16.6847
   5   2.0000      -0.549087       -14.9414
   6   2.0000      -0.527676       -14.3588
   7   2.0000      -0.431962       -11.7543
   8   2.0000      -0.372991       -10.1496
   9   0.0000       0.081857         2.2274
  10   0.0000       0.113778         3.0961
  11   0.0000       0.144839         3.9413
  12   0.0000       0.169376         4.6090
  13   0.0000       0.186442         5.0733

MULLIKEN ATOMIC CHARGES
-----------------------
   0 C :    0.000107
   1 O :    0.000009
   2 H :    0.000001
   3 H :   -0.000023
   4 H :   -0.000415
   5 H :   -0.000016
   6 C :   -0.163986
   7 O :   -0.471686
   8 H :    0.316115
   9 H :    0.117426
  10 H :    0.102644
  11 H :    0.099825
Sum of atomic charges:   -0.0000000

LOEWDIN ATOMIC CHARGES
----------------------
   0 C :   -0.000259
   1 O :   -0.000004
   2 H :   -0.000000
   3 H :   -0.000012
   4 H :   -0.000249
   5 H :   -0.000005
   6 C :   -0.397469
   7 O :   -0.070460
   8 H :    0.175265
   9 H :    0.110484
  10 H :    0.087747
  11 H :    0.094962

  Mayer bond orders larger than 0.1
B(  6-C ,  7-O ) :   0.9978 B(  6-C ,  9-H ) :   0.9711 B(  6-C , 10-H ) :   0.9733
B(  6-C , 11-H ) :   0.9873 B(  7-O ,  8-H ) :   0.8984

Dispersion correction           -0.000218236
FINAL SINGLE POINT ENERGY      -115.735108658932

DIPOLE MOMENT
-------------
                                X             Y             Z
Electronic contribution:     -1.01114       0.99566       1.14367
Nuclear contribution   :      1.49965      -1.47476      -0.99506
                        -----------------------------------------
Total Dipole Moment    :      0.48850      -0.47909       0.14861
                        -----------------------------------------
Magnitude (a.u.)       :      0.70018
Magnitude (Debye)      :      1.77972

Rotational constants in cm-1:     4.294473     0.853085     0.820385
Rotational constants in MHz : 128745.064584 25574.838444 24594.515707

                             ****ORCA TERMINATED NORMALLY****
TOTAL RUN TIME: 0 days 0 hours 1 minutes 34 seconds 532 msec
