                         Program Version 4.1.2  - RELEASE  -
|  1> #Run DFT-D3 single point of the dimer
|  2> ! wB97X-D3 def2-TZVP TIGHTSCF CHELPG PMODEL PAL8
|  3>
|  4> %base "15-79_DFT_AB"
|  5>
|  6> %scf
|  7> MaxIter 1000
|  8> end
|  9>
| 10> * xyz 0 1
| 11>   C                      3.160590             5.904719             1.409526
| 12>   O                      1.952229             6.513314             1.905539
| 13>   H                      2.203480             7.011722             2.707374
| 14>   H                      3.131705             5.037513             0.685736
| 15>   H                      3.800379             6.728786             1.090960
| 16>   H                      3.782874             5.542182             2.299754
| 17>   C                      2.602925             9.182474             4.994307
| 18>   O                      2.671112             7.829710             4.564984
| 19>   H                      3.211640             7.419230             5.241456
| 20>   H                      1.881376             9.347039             5.826246
| 21>   H                      3.617656             9.540769             5.392612
| 22>   H                      2.227002             9.782943             4.191151
| 23> *
| 24>
| 25> #Run DFT-D3 single point of the molecule with dimer basis set
| 26> $new_job
| 27> %base "15-79_DFT_A"
| 28> ! wB97X-D3 def2-TZVP TIGHTSCF CHELPG PMODEL
| 29>
| 30> %scf
| 31> MaxIter 1000
| 32> end
| 33>
| 34> * xyz 0 1
| 35>   C                      3.160590             5.904719             1.409526
| 36>   O                      1.952229             6.513314             1.905539
| 37>   H                      2.203480             7.011722             2.707374
| 38>   H                      3.131705             5.037513             0.685736
| 39>   H                      3.800379             6.728786             1.090960
| 40>   H                      3.782874             5.542182             2.299754
| 41>   C                    : 2.602925             9.182474             4.994307
| 42>   O                    : 2.671112             7.829710             4.564984
| 43>   H                    : 3.211640             7.419230             5.241456
| 44>   H                    : 1.881376             9.347039             5.826246
| 45>   H                    : 3.617656             9.540769             5.392612
| 46>   H                    : 2.227002             9.782943             4.191151
| 47> *
| 48>
| 49> #Run DFT-D3 single point of the particle with dimer basis set
| 50> $new_job
| 51> %base "15-79_DFT_B"
| 52> ! wB97X-D3 def2-TZVP TIGHTSCF CHELPG PMODEL
| 53>
| 54> %scf
| 55> MaxIter 1000
| 56> end
| 57>
| 58> * xyz 0 1
| 59>   C                    : 3.160590             5.904719             1.409526
| 60>   O                    : 1.952229             6.513314             1.905539
| 61>   H                    : 2.203480             7.011722             2.707374
| 62>   H                    : 3.131705             5.037513             0.685736
| 63>   H                    : 3.800379             6.728786             1.090960
| 64>   H                    : 3.782874             5.542182             2.299754
| 65>   C                      2.602925             9.182474             4.994307
| 66>   O                      2.671112             7.829710             4.564984
| 67>   H                      3.211640             7.419230             5.241456
| 68>   H                      1.881376             9.347039             5.826246
| 69>   H                      3.617656             9.540769             5.392612
| 70>   H                      2.227002             9.782943             4.191151
| 71> *
| 72>
| 73>                          ****END OF INPUT****
 Total Charge           Charge          ....    0
 Multiplicity           Mult            ....    1
 Number of Electrons    NEL             ....   36
Dispersion correction           -0.001546661
FINAL SINGLE POINT ENERGY      -231.465542414262
Dispersion correction           -0.000248475
FINAL SINGLE POINT ENERGY      -115.723793041931

CARTESIAN COORDINATES (ANGSTROEM)
---------------------------------
  C      3.160590    5.904719    1.409526
  O      1.952229    6.513314    1.905539
  H      2.203480    7.011722    2.707374
  H      3.131705    5.037513    0.685736
  H      3.800379    6.728786    1.090960
  H      3.782874    5.542182    2.299754
  C      2.602925    9.182474    4.994307
  O      2.671112    7.829710    4.564984
  H      3.211640    7.419230    5.241456
  H      1.881376    9.347039    5.826246
  H      3.617656    9.540769    5.392612
  H      2.227002    9.782943    4.191151

 Multiplicity           Mult            ....    1
 Number of Electrons    NEL             ....   18
 Basis Dimension        Dim             ....  172

ORBITAL ENERGIES
----------------

  NO   OCC          E(Eh)            E(eV)
   0   2.0000     -19.234558      -523.3989
   1   2.0000     -10.320159      -280.8258
   2   2.0000      -1.139908       -31.0185
   3   2.0000      -0.791620       -21.5411
   4   2.0000      -0.610253       -16.6058
   5   2.0000      -0.535429       -14.5698
   6   2.0000      -0.527489       -14.3537
   7   2.0000      -0.444530       -12.0963
   8   2.0000      -0.373098       -10.1525
   9   0.0000       0.097519         2.6536
  10   0.0000       0.120719         3.2849
  11   0.0000       0.153525         4.1776
  12   0.0000       0.182369         4.9625
  13   0.0000       0.198478         5.4009

MULLIKEN ATOMIC CHARGES
-----------------------
   0 C :    0.002010
   1 O :    0.000492
   2 H :   -0.010343
   3 H :   -0.000165
   4 H :   -0.000867
   5 H :   -0.002122
   6 C :   -0.171802
   7 O :   -0.450080
   8 H :    0.311341
   9 H :    0.098334
  10 H :    0.097219
  11 H :    0.125983
Sum of atomic charges:   -0.0000000

LOEWDIN ATOMIC CHARGES
----------------------
   0 C :   -0.002460
   1 O :   -0.002674
   2 H :   -0.030298
   3 H :   -0.000035
   4 H :   -0.000233
   5 H :   -0.000849
   6 C :   -0.387015
   7 O :   -0.048905
   8 H :    0.170075
   9 H :    0.096047
  10 H :    0.103735
  11 H :    0.102613

  Mayer bond orders larger than 0.1
B(  6-C ,  7-O ) :   1.0007 B(  6-C ,  9-H ) :   0.9666 B(  6-C , 10-H ) :   0.9761
B(  6-C , 11-H ) :   0.9779 B(  7-O ,  8-H ) :   0.9010

Dispersion correction           -0.000241334
FINAL SINGLE POINT ENERGY      -115.733674519139

DIPOLE MOMENT
-------------
                                X             Y             Z
Electronic contribution:     -0.00936      -1.72949      -0.77450
Nuclear contribution   :      0.30386       2.00025       1.35392
                        -----------------------------------------
Total Dipole Moment    :      0.29450       0.27076       0.57942
                        -----------------------------------------
Magnitude (a.u.)       :      0.70411
Magnitude (Debye)      :      1.78969

Rotational constants in cm-1:     4.154297     0.830129     0.792190
Rotational constants in MHz : 124542.694313 24886.633895 23749.253171

                             ****ORCA TERMINATED NORMALLY****
TOTAL RUN TIME: 0 days 0 hours 1 minutes 6 seconds 336 msec
