                         Program Version 4.1.2  - RELEASE  -
|  1> #Run DFT-D3 single point of the dimer
|  2> ! wB97X-D3 def2-TZVP TIGHTSCF CHELPG PMODEL PAL8
|  3>
|  4> %base "6-207_DFT_AB"
|  5>
|  6> %scf
|  7> MaxIter 1000
|  8> end
|  9>
| 10> * xyz 0 1
| 11>   C                      11.075448            7.740027             -1.530898
| 12>   O                      9.691084             7.385987             -1.478256
| 13>   H                      9.346065             7.036753             -2.299962
| 14>   H                      11.511421            8.219477             -0.667872
| 15>   H                      11.698489            6.897840             -1.774028
| 16>   H                      11.210044            8.405456             -2.364584
| 17>   C                      7.313492             5.352219             -3.875000
| 18>   O                      8.583517             5.934951             -3.688472
| 19>   H                      8.912932             5.914960             -4.629453
| 20>   H                      6.701947             5.408958             -2.954834
| 21>   H                      6.815108             5.840686             -4.748789
| 22>   H                      7.336305             4.377788             -4.229219
| 23> *
| 24>
| 25> #Run DFT-D3 single point of the molecule with dimer basis set
| 26> $new_job
| 27> %base "6-207_DFT_A"
| 28> ! wB97X-D3 def2-TZVP TIGHTSCF CHELPG PMODEL
| 29>
| 30> %scf
| 31> MaxIter 1000
| 32> end
| 33>
| 34> * xyz 0 1
| 35>   C                      11.075448            7.740027             -1.530898
| 36>   O                      9.691084             7.385987             -1.478256
| 37>   H                      9.346065             7.036753             -2.299962
| 38>   H                      11.511421            8.219477             -0.667872
| 39>   H                      11.698489            6.897840             -1.774028
| 40>   H                      11.210044            8.405456             -2.364584
| 41>   C                    : 7.313492             5.352219             -3.875000
| 42>   O                    : 8.583517             5.934951             -3.688472
| 43>   H                    : 8.912932             5.914960             -4.629453
| 44>   H                    : 6.701947             5.408958             -2.954834
| 45>   H                    : 6.815108             5.840686             -4.748789
| 46>   H                    : 7.336305             4.377788             -4.229219
| 47> *
| 48>
| 49> #Run DFT-D3 single point of the particle with dimer basis set
| 50> $new_job
| 51> %base "6-207_DFT_B"
| 52> ! wB97X-D3 def2-TZVP TIGHTSCF CHELPG PMODEL
| 53>
| 54> %scf
| 55> MaxIter 1000
| 56> end
| 57>
| 58> * xyz 0 1
| 59>   C                    : 11.075448            7.740027             -1.530898
| 60>   O                    : 9.691084             7.385987             -1.478256
| 61>   H                    : 9.346065             7.036753             -2.299962
| 62>   H                    : 11.511421            8.219477             -0.667872
| 63>   H                    : 11.698489            6.897840             -1.774028
| 64>   H                    : 11.210044            8.405456             -2.364584
| 65>   C                      7.313492             5.352219             -3.875000
| 66>   O                      8.583517             5.934951             -3.688472
| 67>   H                      8.912932             5.914960             -4.629453
| 68>   H                      6.701947             5.408958             -2.954834
| 69>   H                      6.815108             5.840686             -4.748789
| 70>   H                      7.336305             4.377788             -4.229219
| 71> *
| 72>
| 73>                          ****END OF INPUT****
 Total Charge           Charge          ....    0
 Multiplicity           Mult            ....    1
 Number of Electrons    NEL             ....   36
Dispersion correction           -0.001431873
FINAL SINGLE POINT ENERGY      -231.465649903772
Dispersion correction           -0.000249780
FINAL SINGLE POINT ENERGY      -115.730789852042

CARTESIAN COORDINATES (ANGSTROEM)
---------------------------------
  C     11.075448    7.740027   -1.530898
  O      9.691084    7.385987   -1.478256
  H      9.346065    7.036753   -2.299962
  H     11.511421    8.219477   -0.667872
  H     11.698489    6.897840   -1.774028
  H     11.210044    8.405456   -2.364584
  C      7.313492    5.352219   -3.875000
  O      8.583517    5.934951   -3.688472
  H      8.912932    5.914960   -4.629453
  H      6.701947    5.408958   -2.954834
  H      6.815108    5.840686   -4.748789
  H      7.336305    4.377788   -4.229219

 Multiplicity           Mult            ....    1
 Number of Electrons    NEL             ....   18
 Basis Dimension        Dim             ....  172

ORBITAL ENERGIES
----------------

  NO   OCC          E(Eh)            E(eV)
   0   2.0000     -19.237204      -523.4709
   1   2.0000     -10.310817      -280.5716
   2   2.0000      -1.137838       -30.9621
   3   2.0000      -0.792291       -21.5593
   4   2.0000      -0.615320       -16.7437
   5   2.0000      -0.535914       -14.5830
   6   2.0000      -0.526404       -14.3242
   7   2.0000      -0.448269       -12.1980
   8   2.0000      -0.369855       -10.0643
   9   0.0000       0.096180         2.6172
  10   0.0000       0.116103         3.1593
  11   0.0000       0.155888         4.2419
  12   0.0000       0.184481         5.0200
  13   0.0000       0.205010         5.5786

MULLIKEN ATOMIC CHARGES
-----------------------
   0 C :    0.001632
   1 O :    0.001200
   2 H :   -0.013757
   3 H :   -0.000071
   4 H :   -0.000710
   5 H :   -0.000538
   6 C :   -0.181761
   7 O :   -0.448145
   8 H :    0.314310
   9 H :    0.123456
  10 H :    0.094679
  11 H :    0.109704
Sum of atomic charges:   -0.0000000

LOEWDIN ATOMIC CHARGES
----------------------
   0 C :   -0.001400
   1 O :   -0.005098
   2 H :   -0.042633
   3 H :   -0.000018
   4 H :   -0.000211
   5 H :   -0.000105
   6 C :   -0.394595
   7 O :   -0.045726
   8 H :    0.197042
   9 H :    0.112469
  10 H :    0.099052
  11 H :    0.081221

  Mayer bond orders larger than 0.1
B(  6-C ,  7-O ) :   0.9903 B(  6-C ,  9-H ) :   0.9764 B(  6-C , 10-H ) :   0.9858
B(  6-C , 11-H ) :   0.9648 B(  7-O ,  8-H ) :   0.8947

Dispersion correction           -0.000210276
FINAL SINGLE POINT ENERGY      -115.727531600655

DIPOLE MOMENT
-------------
                                X             Y             Z
Electronic contribution:      1.66636       0.71381       0.57018
Nuclear contribution   :     -1.95041      -0.97816      -1.21885
                        -----------------------------------------
Total Dipole Moment    :     -0.28405      -0.26434      -0.64867
                        -----------------------------------------
Magnitude (a.u.)       :      0.75586
Magnitude (Debye)      :      1.92125

Rotational constants in cm-1:     4.218058     0.854593     0.800480
Rotational constants in MHz : 126454.202737 25620.052762 23997.787893

                             ****ORCA TERMINATED NORMALLY****
TOTAL RUN TIME: 0 days 0 hours 1 minutes 4 seconds 635 msec
