                         Program Version 4.1.2  - RELEASE  -
|  1> #Run DFT-D3 single point of the dimer
|  2> ! wB97X-D3 def2-TZVP TIGHTSCF CHELPG PMODEL PAL8
|  3>
|  4> %base "15-119_DFT_AB"
|  5>
|  6> %scf
|  7> MaxIter 1000
|  8> end
|  9>
| 10> * xyz 0 1
| 11>   C                      4.368537             5.393558             -2.809895
| 12>   O                      3.561577             5.915263             -3.882099
| 13>   H                      2.747769             6.147654             -3.483270
| 14>   H                      4.522148             6.098134             -2.062670
| 15>   H                      3.985404             4.497609             -2.348490
| 16>   H                      5.365098             5.152908             -3.121065
| 17>   C                      0.577342             8.286108             -6.879825
| 18>   O                      -0.082059            7.315492             -6.092842
| 19>   H                      -0.200547            6.592440             -6.761152
| 20>   H                      1.445892             7.839362             -7.293645
| 21>   H                      0.031159             8.724131             -7.716760
| 22>   H                      0.959594             9.097686             -6.252328
| 23> *
| 24>
| 25> #Run DFT-D3 single point of the molecule with dimer basis set
| 26> $new_job
| 27> %base "15-119_DFT_A"
| 28> ! wB97X-D3 def2-TZVP TIGHTSCF CHELPG PMODEL
| 29>
| 30> %scf
| 31> MaxIter 1000
| 32> end
| 33>
| 34> * xyz 0 1
| 35>   C                      4.368537             5.393558             -2.809895
| 36>   O                      3.561577             5.915263             -3.882099
| 37>   H                      2.747769             6.147654             -3.483270
| 38>   H                      4.522148             6.098134             -2.062670
| 39>   H                      3.985404             4.497609             -2.348490
| 40>   H                      5.365098             5.152908             -3.121065
| 41>   C                    : 0.577342             8.286108             -6.879825
| 42>   O                    : -0.082059            7.315492             -6.092842
| 43>   H                    : -0.200547            6.592440             -6.761152
| 44>   H                    : 1.445892             7.839362             -7.293645
| 45>   H                    : 0.031159             8.724131             -7.716760
| 46>   H                    : 0.959594             9.097686             -6.252328
| 47> *
| 48>
| 49> #Run DFT-D3 single point of the particle with dimer basis set
| 50> $new_job
| 51> %base "15-119_DFT_B"
| 52> ! wB97X-D3 def2-TZVP TIGHTSCF CHELPG PMODEL
| 53>
| 54> %scf
| 55> MaxIter 1000
| 56> end
| 57>
| 58> * xyz 0 1
| 59>   C                    : 4.368537             5.393558             -2.809895
| 60>   O                    : 3.561577             5.915263             -3.882099
| 61>   H                    : 2.747769             6.147654             -3.483270
| 62>   H                    : 4.522148             6.098134             -2.062670
| 63>   H                    : 3.985404             4.497609             -2.348490
| 64>   H                    : 5.365098             5.152908             -3.121065
| 65>   C                      0.577342             8.286108             -6.879825
| 66>   O                      -0.082059            7.315492             -6.092842
| 67>   H                      -0.200547            6.592440             -6.761152
| 68>   H                      1.445892             7.839362             -7.293645
| 69>   H                      0.031159             8.724131             -7.716760
| 70>   H                      0.959594             9.097686             -6.252328
| 71> *
| 72>
| 73>                          ****END OF INPUT****
 Total Charge           Charge          ....    0
 Multiplicity           Mult            ....    1
 Number of Electrons    NEL             ....   36
Dispersion correction           -0.000716574
FINAL SINGLE POINT ENERGY      -231.464739881694
Dispersion correction           -0.000239997
FINAL SINGLE POINT ENERGY      -115.731814812224

CARTESIAN COORDINATES (ANGSTROEM)
---------------------------------
  C      4.368537    5.393558   -2.809895
  O      3.561577    5.915263   -3.882099
  H      2.747769    6.147654   -3.483270
  H      4.522148    6.098134   -2.062670
  H      3.985404    4.497609   -2.348490
  H      5.365098    5.152908   -3.121065
  C      0.577342    8.286108   -6.879825
  O     -0.082059    7.315492   -6.092842
  H     -0.200547    6.592440   -6.761152
  H      1.445892    7.839362   -7.293645
  H      0.031159    8.724131   -7.716760
  H      0.959594    9.097686   -6.252328

 Multiplicity           Mult            ....    1
 Number of Electrons    NEL             ....   18
 Basis Dimension        Dim             ....  172

ORBITAL ENERGIES
----------------

  NO   OCC          E(Eh)            E(eV)
   0   2.0000     -19.236662      -523.4562
   1   2.0000     -10.308178      -280.4998
   2   2.0000      -1.136694       -30.9310
   3   2.0000      -0.793689       -21.5974
   4   2.0000      -0.609410       -16.5829
   5   2.0000      -0.543713       -14.7952
   6   2.0000      -0.525371       -14.2961
   7   2.0000      -0.440911       -11.9978
   8   2.0000      -0.374643       -10.1946
   9   0.0000       0.090310         2.4575
  10   0.0000       0.110248         3.0000
  11   0.0000       0.154071         4.1925
  12   0.0000       0.170979         4.6526
  13   0.0000       0.200206         5.4479

MULLIKEN ATOMIC CHARGES
-----------------------
   0 C :    0.000083
   1 O :    0.000020
   2 H :   -0.001055
   3 H :   -0.000006
   4 H :   -0.000008
   5 H :    0.000004
   6 C :   -0.176331
   7 O :   -0.461661
   8 H :    0.315472
   9 H :    0.104361
  10 H :    0.101232
  11 H :    0.117891
Sum of atomic charges:   -0.0000000

LOEWDIN ATOMIC CHARGES
----------------------
   0 C :   -0.000009
   1 O :   -0.000081
   2 H :   -0.000627
   3 H :   -0.000000
   4 H :   -0.000000
   5 H :   -0.000001
   6 C :   -0.396689
   7 O :   -0.085721
   8 H :    0.192334
   9 H :    0.088497
  10 H :    0.093029
  11 H :    0.109268

  Mayer bond orders larger than 0.1
B(  6-C ,  7-O ) :   1.0022 B(  6-C ,  9-H ) :   0.9874 B(  6-C , 10-H ) :   0.9660
B(  6-C , 11-H ) :   0.9753 B(  7-O ,  8-H ) :   0.8988

Dispersion correction           -0.000224171
FINAL SINGLE POINT ENERGY      -115.731732839579

DIPOLE MOMENT
-------------
                                X             Y             Z
Electronic contribution:     -0.96376      -1.15030       1.17426
Nuclear contribution   :      1.17063       1.08137      -1.88239
                        -----------------------------------------
Total Dipole Moment    :      0.20687      -0.06893      -0.70813
                        -----------------------------------------
Magnitude (a.u.)       :      0.74094
Magnitude (Debye)      :      1.88332

Rotational constants in cm-1:     4.321455     0.839178     0.802613
Rotational constants in MHz : 129553.957627 25157.916117 24061.720576

                             ****ORCA TERMINATED NORMALLY****
TOTAL RUN TIME: 0 days 0 hours 0 minutes 57 seconds 40 msec
