                         Program Version 4.1.2  - RELEASE  -
|  1> #Run DFT-D3 single point of the dimer
|  2> ! wB97X-D3 def2-TZVP TIGHTSCF CHELPG PMODEL PAL8
|  3>
|  4> %base "11-125_DFT_AB"
|  5>
|  6> %scf
|  7> MaxIter 1000
|  8> end
|  9>
| 10> * xyz 0 1
| 11>   C                      0.044626             7.336796             -2.000568
| 12>   O                      0.666804             8.379387             -2.767885
| 13>   H                      1.634866             8.354970             -2.635268
| 14>   H                      0.688306             6.433786             -1.904531
| 15>   H                      -0.210121            7.772745             -1.070785
| 16>   H                      -0.934877            7.018362             -2.489453
| 17>   C                      -1.928228            6.069338             -5.295415
| 18>   O                      -1.367924            5.245284             -4.308797
| 19>   H                      -0.973861            4.501413             -4.742806
| 20>   H                      -2.416954            6.939451             -4.797898
| 21>   H                      -1.215777            6.465010             -5.988270
| 22>   H                      -2.679642            5.518803             -5.874378
| 23> *
| 24>
| 25> #Run DFT-D3 single point of the molecule with dimer basis set
| 26> $new_job
| 27> %base "11-125_DFT_A"
| 28> ! wB97X-D3 def2-TZVP TIGHTSCF CHELPG PMODEL
| 29>
| 30> %scf
| 31> MaxIter 1000
| 32> end
| 33>
| 34> * xyz 0 1
| 35>   C                      0.044626             7.336796             -2.000568
| 36>   O                      0.666804             8.379387             -2.767885
| 37>   H                      1.634866             8.354970             -2.635268
| 38>   H                      0.688306             6.433786             -1.904531
| 39>   H                      -0.210121            7.772745             -1.070785
| 40>   H                      -0.934877            7.018362             -2.489453
| 41>   C                    : -1.928228            6.069338             -5.295415
| 42>   O                    : -1.367924            5.245284             -4.308797
| 43>   H                    : -0.973861            4.501413             -4.742806
| 44>   H                    : -2.416954            6.939451             -4.797898
| 45>   H                    : -1.215777            6.465010             -5.988270
| 46>   H                    : -2.679642            5.518803             -5.874378
| 47> *
| 48>
| 49> #Run DFT-D3 single point of the particle with dimer basis set
| 50> $new_job
| 51> %base "11-125_DFT_B"
| 52> ! wB97X-D3 def2-TZVP TIGHTSCF CHELPG PMODEL
| 53>
| 54> %scf
| 55> MaxIter 1000
| 56> end
| 57>
| 58> * xyz 0 1
| 59>   C                    : 0.044626             7.336796             -2.000568
| 60>   O                    : 0.666804             8.379387             -2.767885
| 61>   H                    : 1.634866             8.354970             -2.635268
| 62>   H                    : 0.688306             6.433786             -1.904531
| 63>   H                    : -0.210121            7.772745             -1.070785
| 64>   H                    : -0.934877            7.018362             -2.489453
| 65>   C                      -1.928228            6.069338             -5.295415
| 66>   O                      -1.367924            5.245284             -4.308797
| 67>   H                      -0.973861            4.501413             -4.742806
| 68>   H                      -2.416954            6.939451             -4.797898
| 69>   H                      -1.215777            6.465010             -5.988270
| 70>   H                      -2.679642            5.518803             -5.874378
| 71> *
| 72>
| 73>                          ****END OF INPUT****
 Total Charge           Charge          ....    0
 Multiplicity           Mult            ....    1
 Number of Electrons    NEL             ....   36
Dispersion correction           -0.001680808
FINAL SINGLE POINT ENERGY      -231.470443852869
Dispersion correction           -0.000254087
FINAL SINGLE POINT ENERGY      -115.732253528837

CARTESIAN COORDINATES (ANGSTROEM)
---------------------------------
  C      0.044626    7.336796   -2.000568
  O      0.666804    8.379387   -2.767885
  H      1.634866    8.354970   -2.635268
  H      0.688306    6.433786   -1.904531
  H     -0.210121    7.772745   -1.070785
  H     -0.934877    7.018362   -2.489453
  C     -1.928228    6.069338   -5.295415
  O     -1.367924    5.245284   -4.308797
  H     -0.973861    4.501413   -4.742806
  H     -2.416954    6.939451   -4.797898
  H     -1.215777    6.465010   -5.988270
  H     -2.679642    5.518803   -5.874378

 Multiplicity           Mult            ....    1
 Number of Electrons    NEL             ....   18
 Basis Dimension        Dim             ....  172

ORBITAL ENERGIES
----------------

  NO   OCC          E(Eh)            E(eV)
   0   2.0000     -19.229644      -523.2652
   1   2.0000     -10.311879      -280.6005
   2   2.0000      -1.143027       -31.1033
   3   2.0000      -0.796179       -21.6651
   4   2.0000      -0.616602       -16.7786
   5   2.0000      -0.544524       -14.8172
   6   2.0000      -0.526442       -14.3252
   7   2.0000      -0.434583       -11.8256
   8   2.0000      -0.374313       -10.1856
   9   0.0000       0.096681         2.6308
  10   0.0000       0.123677         3.3654
  11   0.0000       0.153007         4.1635
  12   0.0000       0.175712         4.7814
  13   0.0000       0.196885         5.3575

MULLIKEN ATOMIC CHARGES
-----------------------
   0 C :    0.000549
   1 O :   -0.000213
   2 H :   -0.000033
   3 H :   -0.002214
   4 H :   -0.000306
   5 H :   -0.002181
   6 C :   -0.160028
   7 O :   -0.465853
   8 H :    0.309189
   9 H :    0.117330
  10 H :    0.104361
  11 H :    0.099398
Sum of atomic charges:   -0.0000000

LOEWDIN ATOMIC CHARGES
----------------------
   0 C :   -0.008060
   1 O :   -0.000046
   2 H :   -0.000010
   3 H :   -0.001248
   4 H :   -0.000082
   5 H :   -0.007034
   6 C :   -0.392225
   7 O :   -0.050132
   8 H :    0.160966
   9 H :    0.114889
  10 H :    0.088011
  11 H :    0.094972

  Mayer bond orders larger than 0.1
B(  6-C ,  7-O ) :   0.9942 B(  6-C ,  9-H ) :   0.9757 B(  6-C , 10-H ) :   0.9736
B(  6-C , 11-H ) :   0.9769 B(  7-O ,  8-H ) :   0.9012

Dispersion correction           -0.000230389
FINAL SINGLE POINT ENERGY      -115.736650673487

DIPOLE MOMENT
-------------
                                X             Y             Z
Electronic contribution:      0.72905      -0.99229       1.35149
Nuclear contribution   :     -0.69601       0.83909      -2.02311
                        -----------------------------------------
Total Dipole Moment    :      0.03304      -0.15320      -0.67162
                        -----------------------------------------
Magnitude (a.u.)       :      0.68966
Magnitude (Debye)      :      1.75299

Rotational constants in cm-1:     4.325395     0.844908     0.811057
Rotational constants in MHz : 129672.083969 25329.714080 24314.876218

                             ****ORCA TERMINATED NORMALLY****
TOTAL RUN TIME: 0 days 0 hours 1 minutes 3 seconds 383 msec
