                         Program Version 4.1.2  - RELEASE  -
|  1> #Run DFT-D3 single point of the dimer
|  2> ! wB97X-D3 def2-TZVP TIGHTSCF CHELPG PMODEL PAL8
|  3>
|  4> %base "15-23_DFT_AB"
|  5>
|  6> %scf
|  7> MaxIter 1000
|  8> end
|  9>
| 10> * xyz 0 1
| 11>   C                      4.420336             -3.631376            1.742753
| 12>   O                      3.162538             -4.207617            1.389367
| 13>   H                      2.908502             -4.657569            2.203867
| 14>   H                      4.810058             -2.966194            0.971924
| 15>   H                      4.419981             -3.156620            2.638260
| 16>   H                      5.257324             -4.385752            1.882703
| 17>   C                      0.670655             -3.364613            3.881287
| 18>   O                      1.611052             -4.392072            3.681750
| 19>   H                      1.133974             -5.221009            3.843205
| 20>   H                      1.203016             -2.432358            4.074149
| 21>   H                      -0.108688            -3.330389            3.112099
| 22>   H                      0.043285             -3.570151            4.731426
| 23> *
| 24>
| 25> #Run DFT-D3 single point of the molecule with dimer basis set
| 26> $new_job
| 27> %base "15-23_DFT_A"
| 28> ! wB97X-D3 def2-TZVP TIGHTSCF CHELPG PMODEL
| 29>
| 30> %scf
| 31> MaxIter 1000
| 32> end
| 33>
| 34> * xyz 0 1
| 35>   C                      4.420336             -3.631376            1.742753
| 36>   O                      3.162538             -4.207617            1.389367
| 37>   H                      2.908502             -4.657569            2.203867
| 38>   H                      4.810058             -2.966194            0.971924
| 39>   H                      4.419981             -3.156620            2.638260
| 40>   H                      5.257324             -4.385752            1.882703
| 41>   C                    : 0.670655             -3.364613            3.881287
| 42>   O                    : 1.611052             -4.392072            3.681750
| 43>   H                    : 1.133974             -5.221009            3.843205
| 44>   H                    : 1.203016             -2.432358            4.074149
| 45>   H                    : -0.108688            -3.330389            3.112099
| 46>   H                    : 0.043285             -3.570151            4.731426
| 47> *
| 48>
| 49> #Run DFT-D3 single point of the particle with dimer basis set
| 50> $new_job
| 51> %base "15-23_DFT_B"
| 52> ! wB97X-D3 def2-TZVP TIGHTSCF CHELPG PMODEL
| 53>
| 54> %scf
| 55> MaxIter 1000
| 56> end
| 57>
| 58> * xyz 0 1
| 59>   C                    : 4.420336             -3.631376            1.742753
| 60>   O                    : 3.162538             -4.207617            1.389367
| 61>   H                    : 2.908502             -4.657569            2.203867
| 62>   H                    : 4.810058             -2.966194            0.971924
| 63>   H                    : 4.419981             -3.156620            2.638260
| 64>   H                    : 5.257324             -4.385752            1.882703
| 65>   C                      0.670655             -3.364613            3.881287
| 66>   O                      1.611052             -4.392072            3.681750
| 67>   H                      1.133974             -5.221009            3.843205
| 68>   H                      1.203016             -2.432358            4.074149
| 69>   H                      -0.108688            -3.330389            3.112099
| 70>   H                      0.043285             -3.570151            4.731426
| 71> *
| 72>
| 73>                          ****END OF INPUT****
 Total Charge           Charge          ....    0
 Multiplicity           Mult            ....    1
 Number of Electrons    NEL             ....   36
Dispersion correction           -0.001736156
FINAL SINGLE POINT ENERGY      -231.467040953741
Dispersion correction           -0.000239924
FINAL SINGLE POINT ENERGY      -115.728949949083

CARTESIAN COORDINATES (ANGSTROEM)
---------------------------------
  C      4.420336   -3.631376    1.742753
  O      3.162538   -4.207617    1.389367
  H      2.908502   -4.657569    2.203867
  H      4.810058   -2.966194    0.971924
  H      4.419981   -3.156620    2.638260
  H      5.257324   -4.385752    1.882703
  C      0.670655   -3.364613    3.881287
  O      1.611052   -4.392072    3.681750
  H      1.133974   -5.221009    3.843205
  H      1.203016   -2.432358    4.074149
  H     -0.108688   -3.330389    3.112099
  H      0.043285   -3.570151    4.731426

 Multiplicity           Mult            ....    1
 Number of Electrons    NEL             ....   18
 Basis Dimension        Dim             ....  172

ORBITAL ENERGIES
----------------

  NO   OCC          E(Eh)            E(eV)
   0   2.0000     -19.232818      -523.3516
   1   2.0000     -10.310645      -280.5669
   2   2.0000      -1.138936       -30.9920
   3   2.0000      -0.795723       -21.6527
   4   2.0000      -0.619344       -16.8532
   5   2.0000      -0.539811       -14.6890
   6   2.0000      -0.523367       -14.2415
   7   2.0000      -0.442269       -12.0348
   8   2.0000      -0.370844       -10.0912
   9   0.0000       0.099192         2.6992
  10   0.0000       0.121444         3.3047
  11   0.0000       0.154586         4.2065
  12   0.0000       0.189338         5.1522
  13   0.0000       0.196298         5.3415

MULLIKEN ATOMIC CHARGES
-----------------------
   0 C :    0.003353
   1 O :    0.001379
   2 H :   -0.013556
   3 H :   -0.000019
   4 H :   -0.002799
   5 H :   -0.000341
   6 C :   -0.162294
   7 O :   -0.459803
   8 H :    0.313188
   9 H :    0.124769
  10 H :    0.096184
  11 H :    0.099940
Sum of atomic charges:    0.0000000

LOEWDIN ATOMIC CHARGES
----------------------
   0 C :   -0.003414
   1 O :   -0.009143
   2 H :   -0.039302
   3 H :   -0.000034
   4 H :   -0.000900
   5 H :   -0.000042
   6 C :   -0.390496
   7 O :   -0.031394
   8 H :    0.177571
   9 H :    0.110461
  10 H :    0.094067
  11 H :    0.092625

  Mayer bond orders larger than 0.1
B(  6-C ,  7-O ) :   0.9903 B(  6-C ,  9-H ) :   0.9757 B(  6-C , 10-H ) :   0.9718
B(  6-C , 11-H ) :   0.9783 B(  7-O ,  8-H ) :   0.8978

Dispersion correction           -0.000225718
FINAL SINGLE POINT ENERGY      -115.733038678005

DIPOLE MOMENT
-------------
                                X             Y             Z
Electronic contribution:      1.40912      -1.14829      -0.34305
Nuclear contribution   :     -2.09204       1.01972       0.56563
                        -----------------------------------------
Total Dipole Moment    :     -0.68292      -0.12857       0.22258
                        -----------------------------------------
Magnitude (a.u.)       :      0.72969
Magnitude (Debye)      :      1.85472

Rotational constants in cm-1:     4.301921     0.847783     0.803917
Rotational constants in MHz : 128968.352535 25415.898153 24100.837411

                             ****ORCA TERMINATED NORMALLY****
TOTAL RUN TIME: 0 days 0 hours 1 minutes 5 seconds 69 msec
