                         Program Version 4.1.2  - RELEASE  -
|  1> #Run DFT-D3 single point of the dimer
|  2> ! wB97X-D3 def2-TZVP TIGHTSCF CHELPG PMODEL PAL8
|  3>
|  4> %base "15-11_DFT_AB"
|  5>
|  6> %scf
|  7> MaxIter 1000
|  8> end
|  9>
| 10> * xyz 0 1
| 11>   C                      -9.116109            5.828608             -3.149760
| 12>   O                      -8.666366            7.180685             -3.469790
| 13>   H                      -8.814491            7.394887             -4.363041
| 14>   H                      -9.459913            5.864401             -2.148955
| 15>   H                      -9.944737            5.470337             -3.807818
| 16>   H                      -8.309017            5.140862             -3.188582
| 17>   C                      -6.215711            8.702306             -1.753921
| 18>   O                      -6.204522            7.278721             -1.947713
| 19>   H                      -7.104918            7.064609             -2.073756
| 20>   H                      -5.527617            9.106006             -0.946702
| 21>   H                      -5.940116            9.260479             -2.642426
| 22>   H                      -7.167443            9.114555             -1.494518
| 23> *
| 24>
| 25> #Run DFT-D3 single point of the molecule with dimer basis set
| 26> $new_job
| 27> %base "15-11_DFT_A"
| 28> ! wB97X-D3 def2-TZVP TIGHTSCF CHELPG PMODEL
| 29>
| 30> %scf
| 31> MaxIter 1000
| 32> end
| 33>
| 34> * xyz 0 1
| 35>   C                      -9.116109            5.828608             -3.149760
| 36>   O                      -8.666366            7.180685             -3.469790
| 37>   H                      -8.814491            7.394887             -4.363041
| 38>   H                      -9.459913            5.864401             -2.148955
| 39>   H                      -9.944737            5.470337             -3.807818
| 40>   H                      -8.309017            5.140862             -3.188582
| 41>   C                    : -6.215711            8.702306             -1.753921
| 42>   O                    : -6.204522            7.278721             -1.947713
| 43>   H                    : -7.104918            7.064609             -2.073756
| 44>   H                    : -5.527617            9.106006             -0.946702
| 45>   H                    : -5.940116            9.260479             -2.642426
| 46>   H                    : -7.167443            9.114555             -1.494518
| 47> *
| 48>
| 49> #Run DFT-D3 single point of the particle with dimer basis set
| 50> $new_job
| 51> %base "15-11_DFT_B"
| 52> ! wB97X-D3 def2-TZVP TIGHTSCF CHELPG PMODEL
| 53>
| 54> %scf
| 55> MaxIter 1000
| 56> end
| 57>
| 58> * xyz 0 1
| 59>   C                    : -9.116109            5.828608             -3.149760
| 60>   O                    : -8.666366            7.180685             -3.469790
| 61>   H                    : -8.814491            7.394887             -4.363041
| 62>   H                    : -9.459913            5.864401             -2.148955
| 63>   H                    : -9.944737            5.470337             -3.807818
| 64>   H                    : -8.309017            5.140862             -3.188582
| 65>   C                      -6.215711            8.702306             -1.753921
| 66>   O                      -6.204522            7.278721             -1.947713
| 67>   H                      -7.104918            7.064609             -2.073756
| 68>   H                      -5.527617            9.106006             -0.946702
| 69>   H                      -5.940116            9.260479             -2.642426
| 70>   H                      -7.167443            9.114555             -1.494518
| 71> *
| 72>
| 73>                          ****END OF INPUT****
 Total Charge           Charge          ....    0
 Multiplicity           Mult            ....    1
 Number of Electrons    NEL             ....   36
Dispersion correction           -0.001980122
FINAL SINGLE POINT ENERGY      -231.468129488108
Dispersion correction           -0.000266839
FINAL SINGLE POINT ENERGY      -115.732934339065

CARTESIAN COORDINATES (ANGSTROEM)
---------------------------------
  C     -9.116109    5.828608   -3.149760
  O     -8.666366    7.180685   -3.469790
  H     -8.814491    7.394887   -4.363041
  H     -9.459913    5.864401   -2.148955
  H     -9.944737    5.470337   -3.807818
  H     -8.309017    5.140862   -3.188582
  C     -6.215711    8.702306   -1.753921
  O     -6.204522    7.278721   -1.947713
  H     -7.104918    7.064609   -2.073756
  H     -5.527617    9.106006   -0.946702
  H     -5.940116    9.260479   -2.642426
  H     -7.167443    9.114555   -1.494518

 Multiplicity           Mult            ....    1
 Number of Electrons    NEL             ....   18
 Basis Dimension        Dim             ....  172

ORBITAL ENERGIES
----------------

  NO   OCC          E(Eh)            E(eV)
   0   2.0000     -19.235384      -523.4214
   1   2.0000     -10.316553      -280.7277
   2   2.0000      -1.140567       -31.0364
   3   2.0000      -0.800127       -21.7726
   4   2.0000      -0.616229       -16.7684
   5   2.0000      -0.533650       -14.5213
   6   2.0000      -0.525156       -14.2902
   7   2.0000      -0.442456       -12.0398
   8   2.0000      -0.378636       -10.3032
   9   0.0000       0.070962         1.9310
  10   0.0000       0.131701         3.5838
  11   0.0000       0.150290         4.0896
  12   0.0000       0.162276         4.4158
  13   0.0000       0.189409         5.1541

MULLIKEN ATOMIC CHARGES
-----------------------
   0 C :   -0.000281
   1 O :   -0.005436
   2 H :   -0.000542
   3 H :   -0.000625
   4 H :    0.000041
   5 H :   -0.000689
   6 C :   -0.190568
   7 O :   -0.450703
   8 H :    0.308478
   9 H :    0.117335
  10 H :    0.112010
  11 H :    0.110981
Sum of atomic charges:   -0.0000000

LOEWDIN ATOMIC CHARGES
----------------------
   0 C :   -0.008311
   1 O :   -0.013403
   2 H :   -0.000829
   3 H :   -0.000773
   4 H :   -0.000100
   5 H :   -0.001174
   6 C :   -0.376881
   7 O :   -0.059191
   8 H :    0.159216
   9 H :    0.113102
  10 H :    0.096306
  11 H :    0.092039

  Mayer bond orders larger than 0.1
B(  6-C ,  7-O ) :   1.0008 B(  6-C ,  9-H ) :   0.9745 B(  6-C , 10-H ) :   0.9748
B(  6-C , 11-H ) :   0.9819 B(  7-O ,  8-H ) :   0.9144

Dispersion correction           -0.000266581
FINAL SINGLE POINT ENERGY      -115.730408347271

DIPOLE MOMENT
-------------
                                X             Y             Z
Electronic contribution:      0.14083      -1.99413      -0.24634
Nuclear contribution   :     -0.73993       2.44090       0.24553
                        -----------------------------------------
Total Dipole Moment    :     -0.59910       0.44677      -0.00082
                        -----------------------------------------
Magnitude (a.u.)       :      0.74734
Magnitude (Debye)      :      1.89960

Rotational constants in cm-1:     4.500915     0.798494     0.771511
Rotational constants in MHz : 134934.039637 23938.262190 23129.328753

                             ****ORCA TERMINATED NORMALLY****
TOTAL RUN TIME: 0 days 0 hours 0 minutes 55 seconds 726 msec
