                         Program Version 4.1.2  - RELEASE  -
|  1> #Run DFT-D3 single point of the dimer
|  2> ! wB97X-D3 def2-TZVP TIGHTSCF CHELPG PMODEL PAL8
|  3>
|  4> %base "5-58_DFT_AB"
|  5>
|  6> %scf
|  7> MaxIter 1000
|  8> end
|  9>
| 10> * xyz 0 1
| 11>   C                      -9.804069            7.900826             8.547474
| 12>   O                      -9.071154            7.709983             9.761684
| 13>   H                      -8.392500            7.044270             9.630347
| 14>   H                      -10.682411           8.493206             8.766984
| 15>   H                      -9.235418            8.590576             7.867122
| 16>   H                      -10.142781           7.030390             7.977538
| 17>   C                      -7.505194            7.541481             4.500835
| 18>   O                      -6.632811            7.020013             5.434250
| 19>   H                      -7.180246            6.554392             6.088019
| 20>   H                      -8.024270            6.736811             3.953969
| 21>   H                      -8.208302            8.283994             4.966535
| 22>   H                      -6.959809            8.151111             3.786449
| 23> *
| 24>
| 25> #Run DFT-D3 single point of the molecule with dimer basis set
| 26> $new_job
| 27> %base "5-58_DFT_A"
| 28> ! wB97X-D3 def2-TZVP TIGHTSCF CHELPG PMODEL
| 29>
| 30> %scf
| 31> MaxIter 1000
| 32> end
| 33>
| 34> * xyz 0 1
| 35>   C                      -9.804069            7.900826             8.547474
| 36>   O                      -9.071154            7.709983             9.761684
| 37>   H                      -8.392500            7.044270             9.630347
| 38>   H                      -10.682411           8.493206             8.766984
| 39>   H                      -9.235418            8.590576             7.867122
| 40>   H                      -10.142781           7.030390             7.977538
| 41>   C                    : -7.505194            7.541481             4.500835
| 42>   O                    : -6.632811            7.020013             5.434250
| 43>   H                    : -7.180246            6.554392             6.088019
| 44>   H                    : -8.024270            6.736811             3.953969
| 45>   H                    : -8.208302            8.283994             4.966535
| 46>   H                    : -6.959809            8.151111             3.786449
| 47> *
| 48>
| 49> #Run DFT-D3 single point of the particle with dimer basis set
| 50> $new_job
| 51> %base "5-58_DFT_B"
| 52> ! wB97X-D3 def2-TZVP TIGHTSCF CHELPG PMODEL
| 53>
| 54> %scf
| 55> MaxIter 1000
| 56> end
| 57>
| 58> * xyz 0 1
| 59>   C                    : -9.804069            7.900826             8.547474
| 60>   O                    : -9.071154            7.709983             9.761684
| 61>   H                    : -8.392500            7.044270             9.630347
| 62>   H                    : -10.682411           8.493206             8.766984
| 63>   H                    : -9.235418            8.590576             7.867122
| 64>   H                    : -10.142781           7.030390             7.977538
| 65>   C                      -7.505194            7.541481             4.500835
| 66>   O                      -6.632811            7.020013             5.434250
| 67>   H                      -7.180246            6.554392             6.088019
| 68>   H                      -8.024270            6.736811             3.953969
| 69>   H                      -8.208302            8.283994             4.966535
| 70>   H                      -6.959809            8.151111             3.786449
| 71> *
| 72>
| 73>                          ****END OF INPUT****
 Total Charge           Charge          ....    0
 Multiplicity           Mult            ....    1
 Number of Electrons    NEL             ....   36
Dispersion correction           -0.001212623
FINAL SINGLE POINT ENERGY      -231.468981908631
Dispersion correction           -0.000275749
FINAL SINGLE POINT ENERGY      -115.733769097308

CARTESIAN COORDINATES (ANGSTROEM)
---------------------------------
  C     -9.804069    7.900826    8.547474
  O     -9.071154    7.709983    9.761684
  H     -8.392500    7.044270    9.630347
  H    -10.682411    8.493206    8.766984
  H     -9.235418    8.590576    7.867122
  H    -10.142781    7.030390    7.977538
  C     -7.505194    7.541481    4.500835
  O     -6.632811    7.020013    5.434250
  H     -7.180246    6.554392    6.088019
  H     -8.024270    6.736811    3.953969
  H     -8.208302    8.283994    4.966535
  H     -6.959809    8.151111    3.786449

 Multiplicity           Mult            ....    1
 Number of Electrons    NEL             ....   18
 Basis Dimension        Dim             ....  172

ORBITAL ENERGIES
----------------

  NO   OCC          E(Eh)            E(eV)
   0   2.0000     -19.231797      -523.3238
   1   2.0000     -10.312814      -280.6259
   2   2.0000      -1.146755       -31.2048
   3   2.0000      -0.790250       -21.5038
   4   2.0000      -0.611351       -16.6357
   5   2.0000      -0.550550       -14.9812
   6   2.0000      -0.530704       -14.4412
   7   2.0000      -0.427829       -11.6418
   8   2.0000      -0.373000       -10.1499
   9   0.0000       0.071359         1.9418
  10   0.0000       0.127486         3.4691
  11   0.0000       0.144932         3.9438
  12   0.0000       0.169290         4.6066
  13   0.0000       0.182416         4.9638

MULLIKEN ATOMIC CHARGES
-----------------------
   0 C :   -0.000864
   1 O :    0.000091
   2 H :   -0.000047
   3 H :    0.000061
   4 H :    0.000314
   5 H :   -0.000018
   6 C :   -0.160021
   7 O :   -0.464960
   8 H :    0.317673
   9 H :    0.099129
  10 H :    0.093709
  11 H :    0.114935
Sum of atomic charges:   -0.0000000

LOEWDIN ATOMIC CHARGES
----------------------
   0 C :   -0.000772
   1 O :   -0.000014
   2 H :   -0.000066
   3 H :   -0.000019
   4 H :   -0.000508
   5 H :   -0.000097
   6 C :   -0.419199
   7 O :   -0.057006
   8 H :    0.179383
   9 H :    0.095109
  10 H :    0.097510
  11 H :    0.105678

  Mayer bond orders larger than 0.1
B(  6-C ,  7-O ) :   1.0068 B(  6-C ,  9-H ) :   0.9796 B(  6-C , 10-H ) :   0.9749
B(  6-C , 11-H ) :   0.9730 B(  7-O ,  8-H ) :   0.8969

Dispersion correction           -0.000224958
FINAL SINGLE POINT ENERGY      -115.735036310100

DIPOLE MOMENT
-------------
                                X             Y             Z
Electronic contribution:      1.27565      -0.70077       1.14848
Nuclear contribution   :     -1.91659       0.61292      -1.09323
                        -----------------------------------------
Total Dipole Moment    :     -0.64094      -0.08785       0.05525
                        -----------------------------------------
Magnitude (a.u.)       :      0.64929
Magnitude (Debye)      :      1.65036

Rotational constants in cm-1:     4.195069     0.860192     0.837393
Rotational constants in MHz : 125765.006175 25787.904371 25104.395906

                             ****ORCA TERMINATED NORMALLY****
TOTAL RUN TIME: 0 days 0 hours 0 minutes 49 seconds 891 msec
