                         Program Version 4.1.2  - RELEASE  -
|  1> #Run DFT-D3 single point of the dimer
|  2> ! wB97X-D3 def2-TZVP TIGHTSCF CHELPG PMODEL PAL8
|  3>
|  4> %base "22-148_DFT_AB"
|  5>
|  6> %scf
|  7> MaxIter 1000
|  8> end
|  9>
| 10> * xyz 0 1
| 11>   C                      4.711376             -9.401158            3.653627
| 12>   O                      4.517502             -8.654134            4.790164
| 13>   H                      4.547553             -9.274433            5.562109
| 14>   H                      4.063894             -10.339325           3.744388
| 15>   H                      4.302707             -8.863721            2.769714
| 16>   H                      5.778902             -9.594835            3.437364
| 17>   C                      1.290066             -7.410364            4.128499
| 18>   O                      2.493319             -6.689525            4.556099
| 19>   H                      3.045168             -7.275594            5.105146
| 20>   H                      1.490086             -8.446307            4.137986
| 21>   H                      0.552805             -7.292973            4.896232
| 22>   H                      0.879620             -7.148192            3.076627
| 23> *
| 24>
| 25> #Run DFT-D3 single point of the molecule with dimer basis set
| 26> $new_job
| 27> %base "22-148_DFT_A"
| 28> ! wB97X-D3 def2-TZVP TIGHTSCF CHELPG PMODEL
| 29>
| 30> %scf
| 31> MaxIter 1000
| 32> end
| 33>
| 34> * xyz 0 1
| 35>   C                      4.711376             -9.401158            3.653627
| 36>   O                      4.517502             -8.654134            4.790164
| 37>   H                      4.547553             -9.274433            5.562109
| 38>   H                      4.063894             -10.339325           3.744388
| 39>   H                      4.302707             -8.863721            2.769714
| 40>   H                      5.778902             -9.594835            3.437364
| 41>   C                    : 1.290066             -7.410364            4.128499
| 42>   O                    : 2.493319             -6.689525            4.556099
| 43>   H                    : 3.045168             -7.275594            5.105146
| 44>   H                    : 1.490086             -8.446307            4.137986
| 45>   H                    : 0.552805             -7.292973            4.896232
| 46>   H                    : 0.879620             -7.148192            3.076627
| 47> *
| 48>
| 49> #Run DFT-D3 single point of the particle with dimer basis set
| 50> $new_job
| 51> %base "22-148_DFT_B"
| 52> ! wB97X-D3 def2-TZVP TIGHTSCF CHELPG PMODEL
| 53>
| 54> %scf
| 55> MaxIter 1000
| 56> end
| 57>
| 58> * xyz 0 1
| 59>   C                    : 4.711376             -9.401158            3.653627
| 60>   O                    : 4.517502             -8.654134            4.790164
| 61>   H                    : 4.547553             -9.274433            5.562109
| 62>   H                    : 4.063894             -10.339325           3.744388
| 63>   H                    : 4.302707             -8.863721            2.769714
| 64>   H                    : 5.778902             -9.594835            3.437364
| 65>   C                      1.290066             -7.410364            4.128499
| 66>   O                      2.493319             -6.689525            4.556099
| 67>   H                      3.045168             -7.275594            5.105146
| 68>   H                      1.490086             -8.446307            4.137986
| 69>   H                      0.552805             -7.292973            4.896232
| 70>   H                      0.879620             -7.148192            3.076627
| 71> *
| 72>
| 73>                          ****END OF INPUT****
 Total Charge           Charge          ....    0
 Multiplicity           Mult            ....    1
 Number of Electrons    NEL             ....   36
Dispersion correction           -0.002074239
FINAL SINGLE POINT ENERGY      -231.463947839367
Dispersion correction           -0.000232962
FINAL SINGLE POINT ENERGY      -115.731985933424

CARTESIAN COORDINATES (ANGSTROEM)
---------------------------------
  C      4.711376   -9.401158    3.653627
  O      4.517502   -8.654134    4.790164
  H      4.547553   -9.274433    5.562109
  H      4.063894  -10.339325    3.744388
  H      4.302707   -8.863721    2.769714
  H      5.778902   -9.594835    3.437364
  C      1.290066   -7.410364    4.128499
  O      2.493319   -6.689525    4.556099
  H      3.045168   -7.275594    5.105146
  H      1.490086   -8.446307    4.137986
  H      0.552805   -7.292973    4.896232
  H      0.879620   -7.148192    3.076627

 Multiplicity           Mult            ....    1
 Number of Electrons    NEL             ....   18
 Basis Dimension        Dim             ....  172

ORBITAL ENERGIES
----------------

  NO   OCC          E(Eh)            E(eV)
   0   2.0000     -19.230700      -523.2940
   1   2.0000     -10.319008      -280.7945
   2   2.0000      -1.117596       -30.4113
   3   2.0000      -0.798119       -21.7179
   4   2.0000      -0.603098       -16.4111
   5   2.0000      -0.537785       -14.6339
   6   2.0000      -0.520110       -14.1529
   7   2.0000      -0.432504       -11.7690
   8   2.0000      -0.374620       -10.1939
   9   0.0000       0.071410         1.9432
  10   0.0000       0.133266         3.6263
  11   0.0000       0.141198         3.8422
  12   0.0000       0.169579         4.6145
  13   0.0000       0.181963         4.9515

MULLIKEN ATOMIC CHARGES
-----------------------
   0 C :   -0.003088
   1 O :   -0.005653
   2 H :   -0.000416
   3 H :   -0.000060
   4 H :   -0.001131
   5 H :    0.000009
   6 C :   -0.183049
   7 O :   -0.483814
   8 H :    0.316941
   9 H :    0.117492
  10 H :    0.120278
  11 H :    0.122489
Sum of atomic charges:   -0.0000000

LOEWDIN ATOMIC CHARGES
----------------------
   0 C :   -0.005613
   1 O :   -0.018707
   2 H :   -0.001452
   3 H :   -0.000289
   4 H :   -0.001440
   5 H :   -0.000077
   6 C :   -0.346959
   7 O :   -0.109168
   8 H :    0.179291
   9 H :    0.089114
  10 H :    0.094080
  11 H :    0.121221

  Mayer bond orders larger than 0.1
B(  6-C ,  7-O ) :   0.9794 B(  6-C ,  9-H ) :   0.9799 B(  6-C , 10-H ) :   0.9823
B(  6-C , 11-H ) :   0.9655 B(  7-O ,  8-H ) :   0.8982

Dispersion correction           -0.000262692
FINAL SINGLE POINT ENERGY      -115.727135145373

DIPOLE MOMENT
-------------
                                X             Y             Z
Electronic contribution:      1.40764       1.05885       0.39582
Nuclear contribution   :     -1.58391      -1.77289      -0.22267
                        -----------------------------------------
Total Dipole Moment    :     -0.17627      -0.71405       0.17315
                        -----------------------------------------
Magnitude (a.u.)       :      0.75559
Magnitude (Debye)      :      1.92055

Rotational constants in cm-1:     4.319787     0.779848     0.750167
Rotational constants in MHz : 129503.953884 23379.258602 22489.432807

                             ****ORCA TERMINATED NORMALLY****
TOTAL RUN TIME: 0 days 0 hours 1 minutes 5 seconds 313 msec
