                         Program Version 4.1.2  - RELEASE  -
|  1> #Run DFT-D3 single point of the dimer
|  2> ! wB97X-D3 def2-TZVP TIGHTSCF CHELPG PMODEL PAL8
|  3>
|  4> %base "18-165_DFT_AB"
|  5>
|  6> %scf
|  7> MaxIter 1000
|  8> end
|  9>
| 10> * xyz 0 1
| 11>   C                      -1.267022            2.911247             -8.681025
| 12>   O                      -0.268756            3.705032             -8.117566
| 13>   H                      0.171322             4.219488             -8.783694
| 14>   H                      -1.871073            2.471587             -7.931495
| 15>   H                      -1.980089            3.506477             -9.290469
| 16>   H                      -0.813840            2.129485             -9.302339
| 17>   C                      2.837346             2.913917             -6.106676
| 18>   O                      1.786846             3.860540             -6.142830
| 19>   H                      1.204440             3.769959             -6.903453
| 20>   H                      3.319303             2.733692             -7.068589
| 21>   H                      3.660161             3.286006             -5.438717
| 22>   H                      2.431404             1.980087             -5.759508
| 23> *
| 24>
| 25> #Run DFT-D3 single point of the molecule with dimer basis set
| 26> $new_job
| 27> %base "18-165_DFT_A"
| 28> ! wB97X-D3 def2-TZVP TIGHTSCF CHELPG PMODEL
| 29>
| 30> %scf
| 31> MaxIter 1000
| 32> end
| 33>
| 34> * xyz 0 1
| 35>   C                      -1.267022            2.911247             -8.681025
| 36>   O                      -0.268756            3.705032             -8.117566
| 37>   H                      0.171322             4.219488             -8.783694
| 38>   H                      -1.871073            2.471587             -7.931495
| 39>   H                      -1.980089            3.506477             -9.290469
| 40>   H                      -0.813840            2.129485             -9.302339
| 41>   C                    : 2.837346             2.913917             -6.106676
| 42>   O                    : 1.786846             3.860540             -6.142830
| 43>   H                    : 1.204440             3.769959             -6.903453
| 44>   H                    : 3.319303             2.733692             -7.068589
| 45>   H                    : 3.660161             3.286006             -5.438717
| 46>   H                    : 2.431404             1.980087             -5.759508
| 47> *
| 48>
| 49> #Run DFT-D3 single point of the particle with dimer basis set
| 50> $new_job
| 51> %base "18-165_DFT_B"
| 52> ! wB97X-D3 def2-TZVP TIGHTSCF CHELPG PMODEL
| 53>
| 54> %scf
| 55> MaxIter 1000
| 56> end
| 57>
| 58> * xyz 0 1
| 59>   C                    : -1.267022            2.911247             -8.681025
| 60>   O                    : -0.268756            3.705032             -8.117566
| 61>   H                    : 0.171322             4.219488             -8.783694
| 62>   H                    : -1.871073            2.471587             -7.931495
| 63>   H                    : -1.980089            3.506477             -9.290469
| 64>   H                    : -0.813840            2.129485             -9.302339
| 65>   C                      2.837346             2.913917             -6.106676
| 66>   O                      1.786846             3.860540             -6.142830
| 67>   H                      1.204440             3.769959             -6.903453
| 68>   H                      3.319303             2.733692             -7.068589
| 69>   H                      3.660161             3.286006             -5.438717
| 70>   H                      2.431404             1.980087             -5.759508
| 71> *
| 72>
| 73>                          ****END OF INPUT****
 Total Charge           Charge          ....    0
 Multiplicity           Mult            ....    1
 Number of Electrons    NEL             ....   36
Dispersion correction           -0.001455457
FINAL SINGLE POINT ENERGY      -231.476689295152
Dispersion correction           -0.000233162
FINAL SINGLE POINT ENERGY      -115.736006576260

CARTESIAN COORDINATES (ANGSTROEM)
---------------------------------
  C     -1.267022    2.911247   -8.681025
  O     -0.268756    3.705032   -8.117566
  H      0.171322    4.219488   -8.783694
  H     -1.871073    2.471587   -7.931495
  H     -1.980089    3.506477   -9.290469
  H     -0.813840    2.129485   -9.302339
  C      2.837346    2.913917   -6.106676
  O      1.786846    3.860540   -6.142830
  H      1.204440    3.769959   -6.903453
  H      3.319303    2.733692   -7.068589
  H      3.660161    3.286006   -5.438717
  H      2.431404    1.980087   -5.759508

 Multiplicity           Mult            ....    1
 Number of Electrons    NEL             ....   18
 Basis Dimension        Dim             ....  172

ORBITAL ENERGIES
----------------

  NO   OCC          E(Eh)            E(eV)
   0   2.0000     -19.227357      -523.2030
   1   2.0000     -10.313964      -280.6572
   2   2.0000      -1.131127       -30.7795
   3   2.0000      -0.796844       -21.6832
   4   2.0000      -0.612156       -16.6576
   5   2.0000      -0.545855       -14.8535
   6   2.0000      -0.521313       -14.1856
   7   2.0000      -0.425681       -11.5834
   8   2.0000      -0.372815       -10.1448
   9   0.0000       0.071144         1.9359
  10   0.0000       0.129917         3.5352
  11   0.0000       0.149065         4.0563
  12   0.0000       0.173813         4.7297
  13   0.0000       0.194526         5.2933

MULLIKEN ATOMIC CHARGES
-----------------------
   0 C :   -0.001017
   1 O :   -0.002456
   2 H :   -0.001094
   3 H :    0.000093
   4 H :   -0.000018
   5 H :    0.000093
   6 C :   -0.149733
   7 O :   -0.482149
   8 H :    0.313937
   9 H :    0.100803
  10 H :    0.119013
  11 H :    0.102528
Sum of atomic charges:    0.0000000

LOEWDIN ATOMIC CHARGES
----------------------
   0 C :   -0.002031
   1 O :   -0.021410
   2 H :   -0.003366
   3 H :   -0.000100
   4 H :   -0.000060
   5 H :   -0.000056
   6 C :   -0.381318
   7 O :   -0.070804
   8 H :    0.178790
   9 H :    0.093287
  10 H :    0.115718
  11 H :    0.091350

  Mayer bond orders larger than 0.1
B(  6-C ,  7-O ) :   0.9875 B(  6-C ,  9-H ) :   0.9742 B(  6-C , 10-H ) :   0.9713
B(  6-C , 11-H ) :   0.9803 B(  7-O ,  8-H ) :   0.8999

Dispersion correction           -0.000253881
FINAL SINGLE POINT ENERGY      -115.734709523933

DIPOLE MOMENT
-------------
                                X             Y             Z
Electronic contribution:     -1.29540       1.22748       0.05047
Nuclear contribution   :      1.35893      -1.67325      -0.54199
                        -----------------------------------------
Total Dipole Moment    :      0.06353      -0.44577      -0.49152
                        -----------------------------------------
Magnitude (a.u.)       :      0.66658
Magnitude (Debye)      :      1.69432

Rotational constants in cm-1:     4.351559     0.822539     0.795060
Rotational constants in MHz : 130456.457293 24659.099202 23835.297306

                             ****ORCA TERMINATED NORMALLY****
TOTAL RUN TIME: 0 days 0 hours 1 minutes 6 seconds 246 msec
