                         Program Version 4.1.2  - RELEASE  -
|  1> #Run DFT-D3 single point of the dimer
|  2> ! wB97X-D3 def2-TZVP TIGHTSCF CHELPG PMODEL PAL8
|  3>
|  4> %base "11-147_DFT_AB"
|  5>
|  6> %scf
|  7> MaxIter 1000
|  8> end
|  9>
| 10> * xyz 0 1
| 11>   C                      3.035354             -3.809666            -2.544556
| 12>   O                      1.766696             -4.109608            -3.176374
| 13>   H                      1.607045             -3.612000            -3.997328
| 14>   H                      3.106638             -4.114295            -1.499011
| 15>   H                      3.808947             -4.262466            -3.092819
| 16>   H                      3.163127             -2.658329            -2.601287
| 17>   C                      -0.128275            -6.062535            -0.900614
| 18>   O                      -0.606964            -5.157985            -1.973514
| 19>   H                      0.108074             -4.792227            -2.433733
| 20>   H                      0.831254             -5.700204            -0.480660
| 21>   H                      -0.786581            -5.973585            -0.031520
| 22>   H                      -0.009943            -7.163101            -1.222889
| 23> *
| 24>
| 25> #Run DFT-D3 single point of the molecule with dimer basis set
| 26> $new_job
| 27> %base "11-147_DFT_A"
| 28> ! wB97X-D3 def2-TZVP TIGHTSCF CHELPG PMODEL
| 29>
| 30> %scf
| 31> MaxIter 1000
| 32> end
| 33>
| 34> * xyz 0 1
| 35>   C                      3.035354             -3.809666            -2.544556
| 36>   O                      1.766696             -4.109608            -3.176374
| 37>   H                      1.607045             -3.612000            -3.997328
| 38>   H                      3.106638             -4.114295            -1.499011
| 39>   H                      3.808947             -4.262466            -3.092819
| 40>   H                      3.163127             -2.658329            -2.601287
| 41>   C                    : -0.128275            -6.062535            -0.900614
| 42>   O                    : -0.606964            -5.157985            -1.973514
| 43>   H                    : 0.108074             -4.792227            -2.433733
| 44>   H                    : 0.831254             -5.700204            -0.480660
| 45>   H                    : -0.786581            -5.973585            -0.031520
| 46>   H                    : -0.009943            -7.163101            -1.222889
| 47> *
| 48>
| 49> #Run DFT-D3 single point of the particle with dimer basis set
| 50> $new_job
| 51> %base "11-147_DFT_B"
| 52> ! wB97X-D3 def2-TZVP TIGHTSCF CHELPG PMODEL
| 53>
| 54> %scf
| 55> MaxIter 1000
| 56> end
| 57>
| 58> * xyz 0 1
| 59>   C                    : 3.035354             -3.809666            -2.544556
| 60>   O                    : 1.766696             -4.109608            -3.176374
| 61>   H                    : 1.607045             -3.612000            -3.997328
| 62>   H                    : 3.106638             -4.114295            -1.499011
| 63>   H                    : 3.808947             -4.262466            -3.092819
| 64>   H                    : 3.163127             -2.658329            -2.601287
| 65>   C                      -0.128275            -6.062535            -0.900614
| 66>   O                      -0.606964            -5.157985            -1.973514
| 67>   H                      0.108074             -4.792227            -2.433733
| 68>   H                      0.831254             -5.700204            -0.480660
| 69>   H                      -0.786581            -5.973585            -0.031520
| 70>   H                      -0.009943            -7.163101            -1.222889
| 71> *
| 72>
| 73>                          ****END OF INPUT****
 Total Charge           Charge          ....    0
 Multiplicity           Mult            ....    1
 Number of Electrons    NEL             ....   36
Dispersion correction           -0.001852714
FINAL SINGLE POINT ENERGY      -231.465965630938
Dispersion correction           -0.000258950
FINAL SINGLE POINT ENERGY      -115.729166303653

CARTESIAN COORDINATES (ANGSTROEM)
---------------------------------
  C      3.035354   -3.809666   -2.544556
  O      1.766696   -4.109608   -3.176374
  H      1.607045   -3.612000   -3.997328
  H      3.106638   -4.114295   -1.499011
  H      3.808947   -4.262466   -3.092819
  H      3.163127   -2.658329   -2.601287
  C     -0.128275   -6.062535   -0.900614
  O     -0.606964   -5.157985   -1.973514
  H      0.108074   -4.792227   -2.433733
  H      0.831254   -5.700204   -0.480660
  H     -0.786581   -5.973585   -0.031520
  H     -0.009943   -7.163101   -1.222889

 Multiplicity           Mult            ....    1
 Number of Electrons    NEL             ....   18
 Basis Dimension        Dim             ....  172

ORBITAL ENERGIES
----------------

  NO   OCC          E(Eh)            E(eV)
   0   2.0000     -19.228312      -523.2290
   1   2.0000     -10.328786      -281.0606
   2   2.0000      -1.123472       -30.5712
   3   2.0000      -0.798050       -21.7161
   4   2.0000      -0.602963       -16.4074
   5   2.0000      -0.533992       -14.5307
   6   2.0000      -0.516531       -14.0555
   7   2.0000      -0.432180       -11.7602
   8   2.0000      -0.379882       -10.3371
   9   0.0000       0.070626         1.9218
  10   0.0000       0.133851         3.6423
  11   0.0000       0.137175         3.7327
  12   0.0000       0.166950         4.5430
  13   0.0000       0.190110         5.1732

MULLIKEN ATOMIC CHARGES
-----------------------
   0 C :   -0.001651
   1 O :   -0.004835
   2 H :   -0.000487
   3 H :    0.000016
   4 H :   -0.000000
   5 H :    0.000138
   6 C :   -0.175483
   7 O :   -0.478125
   8 H :    0.310728
   9 H :    0.107529
  10 H :    0.129118
  11 H :    0.113051
Sum of atomic charges:    0.0000000

LOEWDIN ATOMIC CHARGES
----------------------
   0 C :   -0.002897
   1 O :   -0.019866
   2 H :   -0.001487
   3 H :   -0.000811
   4 H :   -0.000060
   5 H :   -0.000036
   6 C :   -0.343082
   7 O :   -0.094262
   8 H :    0.146345
   9 H :    0.099893
  10 H :    0.106813
  11 H :    0.109450

  Mayer bond orders larger than 0.1
B(  6-C ,  7-O ) :   0.9862 B(  6-C ,  9-H ) :   0.9759 B(  6-C , 10-H ) :   0.9730
B(  6-C , 11-H ) :   0.9660 B(  7-O ,  8-H ) :   0.9147

Dispersion correction           -0.000298571
FINAL SINGLE POINT ENERGY      -115.728831581119

DIPOLE MOMENT
-------------
                                X             Y             Z
Electronic contribution:     -0.74874       1.05620      -1.34303
Nuclear contribution   :      1.43103      -1.17920       1.53822
                        -----------------------------------------
Total Dipole Moment    :      0.68229      -0.12300       0.19519
                        -----------------------------------------
Magnitude (a.u.)       :      0.72024
Magnitude (Debye)      :      1.83070

Rotational constants in cm-1:     4.258863     0.752542     0.741299
Rotational constants in MHz : 127677.493386 22560.654599 22223.574625

                             ****ORCA TERMINATED NORMALLY****
TOTAL RUN TIME: 0 days 0 hours 1 minutes 10 seconds 377 msec
