                         Program Version 4.1.2  - RELEASE  -
|  1> #Run DFT-D3 single point of the dimer
|  2> ! wB97X-D3 def2-TZVP TIGHTSCF CHELPG PMODEL PAL8
|  3>
|  4> %base "20-173_DFT_AB"
|  5>
|  6> %scf
|  7> MaxIter 1000
|  8> end
|  9>
| 10> * xyz 0 1
| 11>   C                      3.723239             -6.692821            -8.760477
| 12>   O                      3.185939             -5.527655            -9.330181
| 13>   H                      3.744187             -4.915721            -8.978648
| 14>   H                      3.260517             -7.605005            -9.008750
| 15>   H                      4.674823             -6.827684            -9.229260
| 16>   H                      3.823359             -6.584099            -7.650644
| 17>   C                      3.348387             -2.735047            -8.391585
| 18>   O                      4.469801             -2.867406            -9.318728
| 19>   H                      4.182017             -2.536709            -10.168734
| 20>   H                      3.291161             -1.687075            -8.150673
| 21>   H                      2.369609             -3.170755            -8.804045
| 22>   H                      3.660491             -3.318010            -7.410014
| 23> *
| 24>
| 25> #Run DFT-D3 single point of the molecule with dimer basis set
| 26> $new_job
| 27> %base "20-173_DFT_A"
| 28> ! wB97X-D3 def2-TZVP TIGHTSCF CHELPG PMODEL
| 29>
| 30> %scf
| 31> MaxIter 1000
| 32> end
| 33>
| 34> * xyz 0 1
| 35>   C                      3.723239             -6.692821            -8.760477
| 36>   O                      3.185939             -5.527655            -9.330181
| 37>   H                      3.744187             -4.915721            -8.978648
| 38>   H                      3.260517             -7.605005            -9.008750
| 39>   H                      4.674823             -6.827684            -9.229260
| 40>   H                      3.823359             -6.584099            -7.650644
| 41>   C                    : 3.348387             -2.735047            -8.391585
| 42>   O                    : 4.469801             -2.867406            -9.318728
| 43>   H                    : 4.182017             -2.536709            -10.168734
| 44>   H                    : 3.291161             -1.687075            -8.150673
| 45>   H                    : 2.369609             -3.170755            -8.804045
| 46>   H                    : 3.660491             -3.318010            -7.410014
| 47> *
| 48>
| 49> #Run DFT-D3 single point of the particle with dimer basis set
| 50> $new_job
| 51> %base "20-173_DFT_B"
| 52> ! wB97X-D3 def2-TZVP TIGHTSCF CHELPG PMODEL
| 53>
| 54> %scf
| 55> MaxIter 1000
| 56> end
| 57>
| 58> * xyz 0 1
| 59>   C                    : 3.723239             -6.692821            -8.760477
| 60>   O                    : 3.185939             -5.527655            -9.330181
| 61>   H                    : 3.744187             -4.915721            -8.978648
| 62>   H                    : 3.260517             -7.605005            -9.008750
| 63>   H                    : 4.674823             -6.827684            -9.229260
| 64>   H                    : 3.823359             -6.584099            -7.650644
| 65>   C                      3.348387             -2.735047            -8.391585
| 66>   O                      4.469801             -2.867406            -9.318728
| 67>   H                      4.182017             -2.536709            -10.168734
| 68>   H                      3.291161             -1.687075            -8.150673
| 69>   H                      2.369609             -3.170755            -8.804045
| 70>   H                      3.660491             -3.318010            -7.410014
| 71> *
| 72>
| 73>                          ****END OF INPUT****
 Total Charge           Charge          ....    0
 Multiplicity           Mult            ....    1
 Number of Electrons    NEL             ....   36
Dispersion correction           -0.001923044
FINAL SINGLE POINT ENERGY      -231.456773147565
Dispersion correction           -0.000198796
FINAL SINGLE POINT ENERGY      -115.724544484717

CARTESIAN COORDINATES (ANGSTROEM)
---------------------------------
  C      3.723239   -6.692821   -8.760477
  O      3.185939   -5.527655   -9.330181
  H      3.744187   -4.915721   -8.978648
  H      3.260517   -7.605005   -9.008750
  H      4.674823   -6.827684   -9.229260
  H      3.823359   -6.584099   -7.650644
  C      3.348387   -2.735047   -8.391585
  O      4.469801   -2.867406   -9.318728
  H      4.182017   -2.536709  -10.168734
  H      3.291161   -1.687075   -8.150673
  H      2.369609   -3.170755   -8.804045
  H      3.660491   -3.318010   -7.410014

 Multiplicity           Mult            ....    1
 Number of Electrons    NEL             ....   18
 Basis Dimension        Dim             ....  172

ORBITAL ENERGIES
----------------

  NO   OCC          E(Eh)            E(eV)
   0   2.0000     -19.228900      -523.2450
   1   2.0000     -10.330456      -281.1060
   2   2.0000      -1.123507       -30.5722
   3   2.0000      -0.787001       -21.4154
   4   2.0000      -0.597754       -16.2657
   5   2.0000      -0.542735       -14.7686
   6   2.0000      -0.510307       -13.8862
   7   2.0000      -0.431753       -11.7486
   8   2.0000      -0.375398       -10.2151
   9   0.0000       0.092695         2.5224
  10   0.0000       0.122914         3.3447
  11   0.0000       0.148082         4.0295
  12   0.0000       0.173212         4.7133
  13   0.0000       0.196871         5.3571

MULLIKEN ATOMIC CHARGES
-----------------------
   0 C :   -0.002188
   1 O :   -0.002417
   2 H :    0.008872
   3 H :   -0.000119
   4 H :   -0.000386
   5 H :   -0.000021
   6 C :   -0.201946
   7 O :   -0.484502
   8 H :    0.311894
   9 H :    0.132230
  10 H :    0.114139
  11 H :    0.124444
Sum of atomic charges:   -0.0000000

LOEWDIN ATOMIC CHARGES
----------------------
   0 C :   -0.001386
   1 O :   -0.009772
   2 H :   -0.026162
   3 H :   -0.000014
   4 H :   -0.000152
   5 H :   -0.000234
   6 C :   -0.356984
   7 O :   -0.098059
   8 H :    0.160807
   9 H :    0.093500
  10 H :    0.109211
  11 H :    0.129245

  Mayer bond orders larger than 0.1
B(  6-C ,  7-O ) :   0.9727 B(  6-C ,  9-H ) :   0.9746 B(  6-C , 10-H ) :   0.9691
B(  6-C , 11-H ) :   0.9741 B(  7-O ,  8-H ) :   0.9010

Dispersion correction           -0.000266264
FINAL SINGLE POINT ENERGY      -115.728675252946

DIPOLE MOMENT
-------------
                                X             Y             Z
Electronic contribution:      1.36714      -0.14519      -1.08427
Nuclear contribution   :     -2.00303       0.43362       0.93768
                        -----------------------------------------
Total Dipole Moment    :     -0.63590       0.28843      -0.14658
                        -----------------------------------------
Magnitude (a.u.)       :      0.71347
Magnitude (Debye)      :      1.81350

Rotational constants in cm-1:     3.951858     0.789924     0.759237
Rotational constants in MHz : 118473.730202 23681.335874 22761.360301

                             ****ORCA TERMINATED NORMALLY****
TOTAL RUN TIME: 0 days 0 hours 1 minutes 10 seconds 968 msec
