                         Program Version 4.1.2  - RELEASE  -
|  1> #Run DFT-D3 single point of the dimer
|  2> ! wB97X-D3 def2-TZVP TIGHTSCF CHELPG PMODEL PAL8
|  3>
|  4> %base "15-15_DFT_AB"
|  5>
|  6> %scf
|  7> MaxIter 1000
|  8> end
|  9>
| 10> * xyz 0 1
| 11>   C                      -9.116109            5.828608             -3.149760
| 12>   O                      -8.666366            7.180685             -3.469790
| 13>   H                      -8.814491            7.394887             -4.363041
| 14>   H                      -9.459913            5.864401             -2.148955
| 15>   H                      -9.944737            5.470337             -3.807818
| 16>   H                      -8.309017            5.140862             -3.188582
| 17>   C                      -5.584144            4.216774             -2.974492
| 18>   O                      -5.488972            2.817848             -2.786760
| 19>   H                      -4.762711            2.523080             -2.276914
| 20>   H                      -4.592497            4.686853             -2.957562
| 21>   H                      -6.122841            4.609606             -3.841734
| 22>   H                      -6.019252            4.673570             -2.114456
| 23> *
| 24>
| 25> #Run DFT-D3 single point of the molecule with dimer basis set
| 26> $new_job
| 27> %base "15-15_DFT_A"
| 28> ! wB97X-D3 def2-TZVP TIGHTSCF CHELPG PMODEL
| 29>
| 30> %scf
| 31> MaxIter 1000
| 32> end
| 33>
| 34> * xyz 0 1
| 35>   C                      -9.116109            5.828608             -3.149760
| 36>   O                      -8.666366            7.180685             -3.469790
| 37>   H                      -8.814491            7.394887             -4.363041
| 38>   H                      -9.459913            5.864401             -2.148955
| 39>   H                      -9.944737            5.470337             -3.807818
| 40>   H                      -8.309017            5.140862             -3.188582
| 41>   C                    : -5.584144            4.216774             -2.974492
| 42>   O                    : -5.488972            2.817848             -2.786760
| 43>   H                    : -4.762711            2.523080             -2.276914
| 44>   H                    : -4.592497            4.686853             -2.957562
| 45>   H                    : -6.122841            4.609606             -3.841734
| 46>   H                    : -6.019252            4.673570             -2.114456
| 47> *
| 48>
| 49> #Run DFT-D3 single point of the particle with dimer basis set
| 50> $new_job
| 51> %base "15-15_DFT_B"
| 52> ! wB97X-D3 def2-TZVP TIGHTSCF CHELPG PMODEL
| 53>
| 54> %scf
| 55> MaxIter 1000
| 56> end
| 57>
| 58> * xyz 0 1
| 59>   C                    : -9.116109            5.828608             -3.149760
| 60>   O                    : -8.666366            7.180685             -3.469790
| 61>   H                    : -8.814491            7.394887             -4.363041
| 62>   H                    : -9.459913            5.864401             -2.148955
| 63>   H                    : -9.944737            5.470337             -3.807818
| 64>   H                    : -8.309017            5.140862             -3.188582
| 65>   C                      -5.584144            4.216774             -2.974492
| 66>   O                      -5.488972            2.817848             -2.786760
| 67>   H                      -4.762711            2.523080             -2.276914
| 68>   H                      -4.592497            4.686853             -2.957562
| 69>   H                      -6.122841            4.609606             -3.841734
| 70>   H                      -6.019252            4.673570             -2.114456
| 71> *
| 72>
| 73>                          ****END OF INPUT****
 Total Charge           Charge          ....    0
 Multiplicity           Mult            ....    1
 Number of Electrons    NEL             ....   36
Dispersion correction           -0.001489112
FINAL SINGLE POINT ENERGY      -231.461969668368
Dispersion correction           -0.000266839
FINAL SINGLE POINT ENERGY      -115.732713743321

CARTESIAN COORDINATES (ANGSTROEM)
---------------------------------
  C     -9.116109    5.828608   -3.149760
  O     -8.666366    7.180685   -3.469790
  H     -8.814491    7.394887   -4.363041
  H     -9.459913    5.864401   -2.148955
  H     -9.944737    5.470337   -3.807818
  H     -8.309017    5.140862   -3.188582
  C     -5.584144    4.216774   -2.974492
  O     -5.488972    2.817848   -2.786760
  H     -4.762711    2.523080   -2.276914
  H     -4.592497    4.686853   -2.957562
  H     -6.122841    4.609606   -3.841734
  H     -6.019252    4.673570   -2.114456

 Multiplicity           Mult            ....    1
 Number of Electrons    NEL             ....   18
 Basis Dimension        Dim             ....  172

ORBITAL ENERGIES
----------------

  NO   OCC          E(Eh)            E(eV)
   0   2.0000     -19.225310      -523.1473
   1   2.0000     -10.312199      -280.6092
   2   2.0000      -1.135642       -30.9024
   3   2.0000      -0.805030       -21.9060
   4   2.0000      -0.620386       -16.8816
   5   2.0000      -0.538750       -14.6601
   6   2.0000      -0.530931       -14.4474
   7   2.0000      -0.425203       -11.5703
   8   2.0000      -0.370563       -10.0835
   9   0.0000       0.088049         2.3959
  10   0.0000       0.118827         3.2335
  11   0.0000       0.155204         4.2233
  12   0.0000       0.163592         4.4516
  13   0.0000       0.187379         5.0988

MULLIKEN ATOMIC CHARGES
-----------------------
   0 C :   -0.001003
   1 O :    0.000228
   2 H :    0.000014
   3 H :   -0.000050
   4 H :   -0.000080
   5 H :    0.000238
   6 C :   -0.160116
   7 O :   -0.486036
   8 H :    0.317495
   9 H :    0.101581
  10 H :    0.124884
  11 H :    0.102844
Sum of atomic charges:   -0.0000000

LOEWDIN ATOMIC CHARGES
----------------------
   0 C :   -0.003344
   1 O :   -0.000024
   2 H :   -0.000016
   3 H :   -0.000084
   4 H :   -0.000023
   5 H :   -0.005851
   6 C :   -0.375831
   7 O :   -0.066970
   8 H :    0.152555
   9 H :    0.097259
  10 H :    0.110714
  11 H :    0.091613

  Mayer bond orders larger than 0.1
B(  6-C ,  7-O ) :   0.9941 B(  6-C ,  9-H ) :   0.9805 B(  6-C , 10-H ) :   0.9681
B(  6-C , 11-H ) :   0.9806 B(  7-O ,  8-H ) :   0.8965

Dispersion correction           -0.000256573
FINAL SINGLE POINT ENERGY      -115.728208703492

DIPOLE MOMENT
-------------
                                X             Y             Z
Electronic contribution:     -0.04944      -1.90209       0.04685
Nuclear contribution   :      0.51029       2.30437       0.22937
                        -----------------------------------------
Total Dipole Moment    :      0.46085       0.40228       0.27621
                        -----------------------------------------
Magnitude (a.u.)       :      0.67120
Magnitude (Debye)      :      1.70605

Rotational constants in cm-1:     4.660790     0.816429     0.784446
Rotational constants in MHz : 139726.967151 24475.929819 23517.085270

                             ****ORCA TERMINATED NORMALLY****
TOTAL RUN TIME: 0 days 0 hours 1 minutes 5 seconds 54 msec
