                         Program Version 4.1.2  - RELEASE  -
|  1> #Run DFT-D3 single point of the dimer
|  2> ! wB97X-D3 def2-TZVP TIGHTSCF CHELPG PMODEL PAL8
|  3>
|  4> %base "21-162_DFT_AB"
|  5>
|  6> %scf
|  7> MaxIter 1000
|  8> end
|  9>
| 10> * xyz 0 1
| 11>   C                      5.849089             5.190941             8.767723
| 12>   O                      4.550791             5.140373             9.206326
| 13>   H                      4.169133             6.010848             9.327686
| 14>   H                      6.534993             5.393492             9.597090
| 15>   H                      6.229892             4.328461             8.286398
| 16>   H                      6.007129             6.055441             8.094881
| 17>   C                      3.235561             4.551749             5.934133
| 18>   O                      2.594535             4.358241             7.218356
| 19>   H                      3.030707             4.934264             7.863506
| 20>   H                      4.267933             4.089265             5.970276
| 21>   H                      2.610780             4.061850             5.130225
| 22>   H                      3.285283             5.611217             5.737462
| 23> *
| 24>
| 25> #Run DFT-D3 single point of the molecule with dimer basis set
| 26> $new_job
| 27> %base "21-162_DFT_A"
| 28> ! wB97X-D3 def2-TZVP TIGHTSCF CHELPG PMODEL
| 29>
| 30> %scf
| 31> MaxIter 1000
| 32> end
| 33>
| 34> * xyz 0 1
| 35>   C                      5.849089             5.190941             8.767723
| 36>   O                      4.550791             5.140373             9.206326
| 37>   H                      4.169133             6.010848             9.327686
| 38>   H                      6.534993             5.393492             9.597090
| 39>   H                      6.229892             4.328461             8.286398
| 40>   H                      6.007129             6.055441             8.094881
| 41>   C                    : 3.235561             4.551749             5.934133
| 42>   O                    : 2.594535             4.358241             7.218356
| 43>   H                    : 3.030707             4.934264             7.863506
| 44>   H                    : 4.267933             4.089265             5.970276
| 45>   H                    : 2.610780             4.061850             5.130225
| 46>   H                    : 3.285283             5.611217             5.737462
| 47> *
| 48>
| 49> #Run DFT-D3 single point of the particle with dimer basis set
| 50> $new_job
| 51> %base "21-162_DFT_B"
| 52> ! wB97X-D3 def2-TZVP TIGHTSCF CHELPG PMODEL
| 53>
| 54> %scf
| 55> MaxIter 1000
| 56> end
| 57>
| 58> * xyz 0 1
| 59>   C                    : 5.849089             5.190941             8.767723
| 60>   O                    : 4.550791             5.140373             9.206326
| 61>   H                    : 4.169133             6.010848             9.327686
| 62>   H                    : 6.534993             5.393492             9.597090
| 63>   H                    : 6.229892             4.328461             8.286398
| 64>   H                    : 6.007129             6.055441             8.094881
| 65>   C                      3.235561             4.551749             5.934133
| 66>   O                      2.594535             4.358241             7.218356
| 67>   H                      3.030707             4.934264             7.863506
| 68>   H                      4.267933             4.089265             5.970276
| 69>   H                      2.610780             4.061850             5.130225
| 70>   H                      3.285283             5.611217             5.737462
| 71> *
| 72>
| 73>                          ****END OF INPUT****
 Total Charge           Charge          ....    0
 Multiplicity           Mult            ....    1
 Number of Electrons    NEL             ....   36
Dispersion correction           -0.002063476
FINAL SINGLE POINT ENERGY      -231.469272520965
Dispersion correction           -0.000231622
FINAL SINGLE POINT ENERGY      -115.732393790700

CARTESIAN COORDINATES (ANGSTROEM)
---------------------------------
  C      5.849089    5.190941    8.767723
  O      4.550791    5.140373    9.206326
  H      4.169133    6.010848    9.327686
  H      6.534993    5.393492    9.597090
  H      6.229892    4.328461    8.286398
  H      6.007129    6.055441    8.094881
  C      3.235561    4.551749    5.934133
  O      2.594535    4.358241    7.218356
  H      3.030707    4.934264    7.863506
  H      4.267933    4.089265    5.970276
  H      2.610780    4.061850    5.130225
  H      3.285283    5.611217    5.737462

 Multiplicity           Mult            ....    1
 Number of Electrons    NEL             ....   18
 Basis Dimension        Dim             ....  172

ORBITAL ENERGIES
----------------

  NO   OCC          E(Eh)            E(eV)
   0   2.0000     -19.228906      -523.2451
   1   2.0000     -10.322519      -280.8900
   2   2.0000      -1.123701       -30.5774
   3   2.0000      -0.790213       -21.5028
   4   2.0000      -0.600783       -16.3481
   5   2.0000      -0.540188       -14.6993
   6   2.0000      -0.520989       -14.1768
   7   2.0000      -0.432444       -11.7674
   8   2.0000      -0.373296       -10.1579
   9   0.0000       0.069332         1.8866
  10   0.0000       0.133174         3.6238
  11   0.0000       0.141292         3.8447
  12   0.0000       0.168571         4.5870
  13   0.0000       0.195689         5.3250

MULLIKEN ATOMIC CHARGES
-----------------------
   0 C :   -0.001345
   1 O :   -0.004547
   2 H :   -0.000953
   3 H :   -0.000044
   4 H :   -0.000136
   5 H :   -0.000204
   6 C :   -0.174872
   7 O :   -0.479247
   8 H :    0.314533
   9 H :    0.106431
  10 H :    0.127018
  11 H :    0.113366
Sum of atomic charges:   -0.0000000

LOEWDIN ATOMIC CHARGES
----------------------
   0 C :   -0.004998
   1 O :   -0.016934
   2 H :   -0.003815
   3 H :   -0.000084
   4 H :   -0.000516
   5 H :   -0.000243
   6 C :   -0.363598
   7 O :   -0.098608
   8 H :    0.176234
   9 H :    0.103333
  10 H :    0.116472
  11 H :    0.092757

  Mayer bond orders larger than 0.1
B(  6-C ,  7-O ) :   0.9884 B(  6-C ,  9-H ) :   0.9719 B(  6-C , 10-H ) :   0.9704
B(  6-C , 11-H ) :   0.9793 B(  7-O ,  8-H ) :   0.9019

Dispersion correction           -0.000248175
FINAL SINGLE POINT ENERGY      -115.734341658102

DIPOLE MOMENT
-------------
                                X             Y             Z
Electronic contribution:     -0.88382      -0.30915       1.46496
Nuclear contribution   :      1.40332       0.76246      -1.60592
                        -----------------------------------------
Total Dipole Moment    :      0.51950       0.45331      -0.14096
                        -----------------------------------------
Magnitude (a.u.)       :      0.70373
Magnitude (Debye)      :      1.78875

Rotational constants in cm-1:     4.077972     0.801430     0.774470
Rotational constants in MHz : 122254.522191 24026.260739 23218.036167

                             ****ORCA TERMINATED NORMALLY****
TOTAL RUN TIME: 0 days 0 hours 1 minutes 9 seconds 317 msec
