                         Program Version 4.1.2  - RELEASE  -
|  1> #Run DFT-D3 single point of the dimer
|  2> ! wB97X-D3 def2-TZVP TIGHTSCF CHELPG PMODEL PAL8
|  3>
|  4> %base "6-22_DFT_AB"
|  5>
|  6> %scf
|  7> MaxIter 1000
|  8> end
|  9>
| 10> * xyz 0 1
| 11>   C                      -0.715228            1.050743             2.453242
| 12>   O                      -1.854007            0.340821             2.144338
| 13>   H                      -2.633239            0.803480             2.639829
| 14>   H                      -0.871798            2.130612             2.284487
| 15>   H                      -0.449429            0.971583             3.539397
| 16>   H                      0.102194             0.804007             1.757111
| 17>   C                      3.690297             0.549827             2.921323
| 18>   O                      2.607705             0.302662             2.086672
| 19>   H                      2.541345             1.107319             1.602346
| 20>   H                      4.694533             0.374116             2.463775
| 21>   H                      3.695042             1.642360             3.273149
| 22>   H                      3.590307             -0.085466            3.793748
| 23> *
| 24>
| 25> #Run DFT-D3 single point of the molecule with dimer basis set
| 26> $new_job
| 27> %base "6-22_DFT_A"
| 28> ! wB97X-D3 def2-TZVP TIGHTSCF CHELPG PMODEL
| 29>
| 30> %scf
| 31> MaxIter 1000
| 32> end
| 33>
| 34> * xyz 0 1
| 35>   C                      -0.715228            1.050743             2.453242
| 36>   O                      -1.854007            0.340821             2.144338
| 37>   H                      -2.633239            0.803480             2.639829
| 38>   H                      -0.871798            2.130612             2.284487
| 39>   H                      -0.449429            0.971583             3.539397
| 40>   H                      0.102194             0.804007             1.757111
| 41>   C                    : 3.690297             0.549827             2.921323
| 42>   O                    : 2.607705             0.302662             2.086672
| 43>   H                    : 2.541345             1.107319             1.602346
| 44>   H                    : 4.694533             0.374116             2.463775
| 45>   H                    : 3.695042             1.642360             3.273149
| 46>   H                    : 3.590307             -0.085466            3.793748
| 47> *
| 48>
| 49> #Run DFT-D3 single point of the particle with dimer basis set
| 50> $new_job
| 51> %base "6-22_DFT_B"
| 52> ! wB97X-D3 def2-TZVP TIGHTSCF CHELPG PMODEL
| 53>
| 54> %scf
| 55> MaxIter 1000
| 56> end
| 57>
| 58> * xyz 0 1
| 59>   C                    : -0.715228            1.050743             2.453242
| 60>   O                    : -1.854007            0.340821             2.144338
| 61>   H                    : -2.633239            0.803480             2.639829
| 62>   H                    : -0.871798            2.130612             2.284487
| 63>   H                    : -0.449429            0.971583             3.539397
| 64>   H                    : 0.102194             0.804007             1.757111
| 65>   C                      3.690297             0.549827             2.921323
| 66>   O                      2.607705             0.302662             2.086672
| 67>   H                      2.541345             1.107319             1.602346
| 68>   H                      4.694533             0.374116             2.463775
| 69>   H                      3.695042             1.642360             3.273149
| 70>   H                      3.590307             -0.085466            3.793748
| 71> *
| 72>
| 73>                          ****END OF INPUT****
 Total Charge           Charge          ....    0
 Multiplicity           Mult            ....    1
 Number of Electrons    NEL             ....   36
Dispersion correction           -0.001412773
FINAL SINGLE POINT ENERGY      -231.462018956657
Dispersion correction           -0.000228270
FINAL SINGLE POINT ENERGY      -115.729085131558

CARTESIAN COORDINATES (ANGSTROEM)
---------------------------------
  C     -0.715228    1.050743    2.453242
  O     -1.854007    0.340821    2.144338
  H     -2.633239    0.803480    2.639829
  H     -0.871798    2.130612    2.284487
  H     -0.449429    0.971583    3.539397
  H      0.102194    0.804007    1.757111
  C      3.690297    0.549827    2.921323
  O      2.607705    0.302662    2.086672
  H      2.541345    1.107319    1.602346
  H      4.694533    0.374116    2.463775
  H      3.695042    1.642360    3.273149
  H      3.590307   -0.085466    3.793748

 Multiplicity           Mult            ....    1
 Number of Electrons    NEL             ....   18
 Basis Dimension        Dim             ....  172

ORBITAL ENERGIES
----------------

  NO   OCC          E(Eh)            E(eV)
   0   2.0000     -19.233803      -523.3784
   1   2.0000     -10.318860      -280.7905
   2   2.0000      -1.154721       -31.4216
   3   2.0000      -0.789668       -21.4880
   4   2.0000      -0.618373       -16.8268
   5   2.0000      -0.540250       -14.7010
   6   2.0000      -0.531802       -14.4711
   7   2.0000      -0.439405       -11.9568
   8   2.0000      -0.374406       -10.1881
   9   0.0000       0.089299         2.4299
  10   0.0000       0.120334         3.2745
  11   0.0000       0.153457         4.1758
  12   0.0000       0.188072         5.1177
  13   0.0000       0.189304         5.1512

MULLIKEN ATOMIC CHARGES
-----------------------
   0 C :   -0.002643
   1 O :   -0.000268
   2 H :   -0.000039
   3 H :    0.000093
   4 H :   -0.000619
   5 H :   -0.005406
   6 C :   -0.175868
   7 O :   -0.442516
   8 H :    0.316326
   9 H :    0.097371
  10 H :    0.093457
  11 H :    0.120111
Sum of atomic charges:   -0.0000000

LOEWDIN ATOMIC CHARGES
----------------------
   0 C :   -0.008833
   1 O :   -0.000038
   2 H :   -0.000027
   3 H :   -0.000110
   4 H :   -0.000910
   5 H :   -0.008541
   6 C :   -0.414318
   7 O :   -0.034132
   8 H :    0.164916
   9 H :    0.096124
  10 H :    0.101974
  11 H :    0.103895

  Mayer bond orders larger than 0.1
B(  6-C ,  7-O ) :   1.0066 B(  6-C ,  9-H ) :   0.9630 B(  6-C , 10-H ) :   0.9840
B(  6-C , 11-H ) :   0.9783 B(  7-O ,  8-H ) :   0.9024

Dispersion correction           -0.000230090
FINAL SINGLE POINT ENERGY      -115.733199256016

DIPOLE MOMENT
-------------
                                X             Y             Z
Electronic contribution:     -1.47451      -0.56457      -1.09576
Nuclear contribution   :      1.82383       1.14901       1.10509
                        -----------------------------------------
Total Dipole Moment    :      0.34932       0.58444       0.00933
                        -----------------------------------------
Magnitude (a.u.)       :      0.68094
Magnitude (Debye)      :      1.73081

Rotational constants in cm-1:     4.158209     0.858206     0.824138
Rotational constants in MHz : 124659.976847 25728.371183 24707.048134

                             ****ORCA TERMINATED NORMALLY****
TOTAL RUN TIME: 0 days 0 hours 1 minutes 7 seconds 359 msec
