                         Program Version 4.1.2  - RELEASE  -
|  1> #Run DFT-D3 single point of the dimer
|  2> ! wB97X-D3 def2-TZVP TIGHTSCF CHELPG PMODEL PAL8
|  3>
|  4> %base "4-188_DFT_AB"
|  5>
|  6> %scf
|  7> MaxIter 1000
|  8> end
|  9>
| 10> * xyz 0 1
| 11>   C                      -9.177588            7.064033             11.243617
| 12>   O                      -9.852172            6.363215             10.263590
| 13>   H                      -10.769782           6.667442             10.336183
| 14>   H                      -9.870230            7.576965             11.905152
| 15>   H                      -8.560566            6.460654             11.984640
| 16>   H                      -8.556942            7.798235             10.810643
| 17>   C                      -10.668553           5.846311             6.775762
| 18>   O                      -10.467269           7.097197             7.366388
| 19>   H                      -9.709536            7.121471             7.858145
| 20>   H                      -10.981334           5.182083             7.597588
| 21>   H                      -11.601982           5.977819             6.168948
| 22>   H                      -9.815174            5.457039             6.135254
| 23> *
| 24>
| 25> #Run DFT-D3 single point of the molecule with dimer basis set
| 26> $new_job
| 27> %base "4-188_DFT_A"
| 28> ! wB97X-D3 def2-TZVP TIGHTSCF CHELPG PMODEL
| 29>
| 30> %scf
| 31> MaxIter 1000
| 32> end
| 33>
| 34> * xyz 0 1
| 35>   C                      -9.177588            7.064033             11.243617
| 36>   O                      -9.852172            6.363215             10.263590
| 37>   H                      -10.769782           6.667442             10.336183
| 38>   H                      -9.870230            7.576965             11.905152
| 39>   H                      -8.560566            6.460654             11.984640
| 40>   H                      -8.556942            7.798235             10.810643
| 41>   C                    : -10.668553           5.846311             6.775762
| 42>   O                    : -10.467269           7.097197             7.366388
| 43>   H                    : -9.709536            7.121471             7.858145
| 44>   H                    : -10.981334           5.182083             7.597588
| 45>   H                    : -11.601982           5.977819             6.168948
| 46>   H                    : -9.815174            5.457039             6.135254
| 47> *
| 48>
| 49> #Run DFT-D3 single point of the particle with dimer basis set
| 50> $new_job
| 51> %base "4-188_DFT_B"
| 52> ! wB97X-D3 def2-TZVP TIGHTSCF CHELPG PMODEL
| 53>
| 54> %scf
| 55> MaxIter 1000
| 56> end
| 57>
| 58> * xyz 0 1
| 59>   C                    : -9.177588            7.064033             11.243617
| 60>   O                    : -9.852172            6.363215             10.263590
| 61>   H                    : -10.769782           6.667442             10.336183
| 62>   H                    : -9.870230            7.576965             11.905152
| 63>   H                    : -8.560566            6.460654             11.984640
| 64>   H                    : -8.556942            7.798235             10.810643
| 65>   C                      -10.668553           5.846311             6.775762
| 66>   O                      -10.467269           7.097197             7.366388
| 67>   H                      -9.709536            7.121471             7.858145
| 68>   H                      -10.981334           5.182083             7.597588
| 69>   H                      -11.601982           5.977819             6.168948
| 70>   H                      -9.815174            5.457039             6.135254
| 71> *
| 72>
| 73>                          ****END OF INPUT****
 Total Charge           Charge          ....    0
 Multiplicity           Mult            ....    1
 Number of Electrons    NEL             ....   36
Dispersion correction           -0.001713121
FINAL SINGLE POINT ENERGY      -231.464156184944
Dispersion correction           -0.000232358
FINAL SINGLE POINT ENERGY      -115.730199541710

CARTESIAN COORDINATES (ANGSTROEM)
---------------------------------
  C     -9.177588    7.064033   11.243617
  O     -9.852172    6.363215   10.263590
  H    -10.769782    6.667442   10.336183
  H     -9.870230    7.576965   11.905152
  H     -8.560566    6.460654   11.984640
  H     -8.556942    7.798235   10.810643
  C    -10.668553    5.846311    6.775762
  O    -10.467269    7.097197    7.366388
  H     -9.709536    7.121471    7.858145
  H    -10.981334    5.182083    7.597588
  H    -11.601982    5.977819    6.168948
  H     -9.815174    5.457039    6.135254

 Multiplicity           Mult            ....    1
 Number of Electrons    NEL             ....   18
 Basis Dimension        Dim             ....  172

ORBITAL ENERGIES
----------------

  NO   OCC          E(Eh)            E(eV)
   0   2.0000     -19.223076      -523.0865
   1   2.0000     -10.319869      -280.8179
   2   2.0000      -1.150877       -31.3169
   3   2.0000      -0.797472       -21.7003
   4   2.0000      -0.614737       -16.7278
   5   2.0000      -0.548065       -14.9136
   6   2.0000      -0.525453       -14.2983
   7   2.0000      -0.426933       -11.6174
   8   2.0000      -0.373905       -10.1745
   9   0.0000       0.079105         2.1525
  10   0.0000       0.128504         3.4968
  11   0.0000       0.154925         4.2157
  12   0.0000       0.169160         4.6031
  13   0.0000       0.192838         5.2474

MULLIKEN ATOMIC CHARGES
-----------------------
   0 C :   -0.001664
   1 O :   -0.003412
   2 H :   -0.002451
   3 H :    0.000166
   4 H :    0.000013
   5 H :   -0.000059
   6 C :   -0.165176
   7 O :   -0.459566
   8 H :    0.301867
   9 H :    0.106152
  10 H :    0.118823
  11 H :    0.105306
Sum of atomic charges:   -0.0000000

LOEWDIN ATOMIC CHARGES
----------------------
   0 C :   -0.001307
   1 O :   -0.006789
   2 H :   -0.003551
   3 H :   -0.000015
   4 H :   -0.000021
   5 H :   -0.000191
   6 C :   -0.399820
   7 O :   -0.030985
   8 H :    0.126736
   9 H :    0.097597
  10 H :    0.116108
  11 H :    0.102238

  Mayer bond orders larger than 0.1
B(  6-C ,  7-O ) :   0.9980 B(  6-C ,  9-H ) :   0.9794 B(  6-C , 10-H ) :   0.9745
B(  6-C , 11-H ) :   0.9672 B(  7-O ,  8-H ) :   0.9140

Dispersion correction           -0.000241994
FINAL SINGLE POINT ENERGY      -115.729418470556

DIPOLE MOMENT
-------------
                                X             Y             Z
Electronic contribution:      0.31418       1.58405       0.65357
Nuclear contribution   :      0.08841      -2.04514      -0.56391
                        -----------------------------------------
Total Dipole Moment    :      0.40258      -0.46109       0.08967
                        -----------------------------------------
Magnitude (a.u.)       :      0.61864
Magnitude (Debye)      :      1.57246

Rotational constants in cm-1:     4.191021     0.846542     0.822664
Rotational constants in MHz : 125643.662582 25378.701486 24662.840602

                             ****ORCA TERMINATED NORMALLY****
TOTAL RUN TIME: 0 days 0 hours 1 minutes 36 seconds 260 msec
