                         Program Version 4.1.2  - RELEASE  -
|  1> #Run DFT-D3 single point of the dimer
|  2> ! wB97X-D3 def2-TZVP TIGHTSCF CHELPG PMODEL PAL8
|  3>
|  4> %base "19-115_DFT_AB"
|  5>
|  6> %scf
|  7> MaxIter 1000
|  8> end
|  9>
| 10> * xyz 0 1
| 11>   C                      6.485865             6.830318             0.457606
| 12>   O                      6.958456             6.355031             -0.794069
| 13>   H                      7.907226             6.370384             -0.741623
| 14>   H                      6.882538             7.854793             0.749982
| 15>   H                      5.409756             6.912721             0.368214
| 16>   H                      6.865832             6.186334             1.267891
| 17>   C                      8.513817             3.675508             -0.383568
| 18>   O                      9.143687             3.578404             0.864481
| 19>   H                      9.463190             2.722025             0.901324
| 20>   H                      8.877662             2.865182             -1.066605
| 21>   H                      7.428917             3.486082             -0.322136
| 22>   H                      8.817236             4.613234             -0.872877
| 23> *
| 24>
| 25> #Run DFT-D3 single point of the molecule with dimer basis set
| 26> $new_job
| 27> %base "19-115_DFT_A"
| 28> ! wB97X-D3 def2-TZVP TIGHTSCF CHELPG PMODEL
| 29>
| 30> %scf
| 31> MaxIter 1000
| 32> end
| 33>
| 34> * xyz 0 1
| 35>   C                      6.485865             6.830318             0.457606
| 36>   O                      6.958456             6.355031             -0.794069
| 37>   H                      7.907226             6.370384             -0.741623
| 38>   H                      6.882538             7.854793             0.749982
| 39>   H                      5.409756             6.912721             0.368214
| 40>   H                      6.865832             6.186334             1.267891
| 41>   C                    : 8.513817             3.675508             -0.383568
| 42>   O                    : 9.143687             3.578404             0.864481
| 43>   H                    : 9.463190             2.722025             0.901324
| 44>   H                    : 8.877662             2.865182             -1.066605
| 45>   H                    : 7.428917             3.486082             -0.322136
| 46>   H                    : 8.817236             4.613234             -0.872877
| 47> *
| 48>
| 49> #Run DFT-D3 single point of the particle with dimer basis set
| 50> $new_job
| 51> %base "19-115_DFT_B"
| 52> ! wB97X-D3 def2-TZVP TIGHTSCF CHELPG PMODEL
| 53>
| 54> %scf
| 55> MaxIter 1000
| 56> end
| 57>
| 58> * xyz 0 1
| 59>   C                    : 6.485865             6.830318             0.457606
| 60>   O                    : 6.958456             6.355031             -0.794069
| 61>   H                    : 7.907226             6.370384             -0.741623
| 62>   H                    : 6.882538             7.854793             0.749982
| 63>   H                    : 5.409756             6.912721             0.368214
| 64>   H                    : 6.865832             6.186334             1.267891
| 65>   C                      8.513817             3.675508             -0.383568
| 66>   O                      9.143687             3.578404             0.864481
| 67>   H                      9.463190             2.722025             0.901324
| 68>   H                      8.877662             2.865182             -1.066605
| 69>   H                      7.428917             3.486082             -0.322136
| 70>   H                      8.817236             4.613234             -0.872877
| 71> *
| 72>
| 73>                          ****END OF INPUT****
 Total Charge           Charge          ....    0
 Multiplicity           Mult            ....    1
 Number of Electrons    NEL             ....   36
Dispersion correction           -0.001942676
FINAL SINGLE POINT ENERGY      -231.465630848842
Dispersion correction           -0.000238402
FINAL SINGLE POINT ENERGY      -115.734785732710

CARTESIAN COORDINATES (ANGSTROEM)
---------------------------------
  C      6.485865    6.830318    0.457606
  O      6.958456    6.355031   -0.794069
  H      7.907226    6.370384   -0.741623
  H      6.882538    7.854793    0.749982
  H      5.409756    6.912721    0.368214
  H      6.865832    6.186334    1.267891
  C      8.513817    3.675508   -0.383568
  O      9.143687    3.578404    0.864481
  H      9.463190    2.722025    0.901324
  H      8.877662    2.865182   -1.066605
  H      7.428917    3.486082   -0.322136
  H      8.817236    4.613234   -0.872877

 Multiplicity           Mult            ....    1
 Number of Electrons    NEL             ....   18
 Basis Dimension        Dim             ....  172

ORBITAL ENERGIES
----------------

  NO   OCC          E(Eh)            E(eV)
   0   2.0000     -19.226766      -523.1869
   1   2.0000     -10.317170      -280.7445
   2   2.0000      -1.152446       -31.3596
   3   2.0000      -0.794218       -21.6118
   4   2.0000      -0.619760       -16.8645
   5   2.0000      -0.549648       -14.9567
   6   2.0000      -0.522880       -14.2283
   7   2.0000      -0.432532       -11.7698
   8   2.0000      -0.376968       -10.2578
   9   0.0000       0.092891         2.5277
  10   0.0000       0.121372         3.3027
  11   0.0000       0.155480         4.2308
  12   0.0000       0.175176         4.7668
  13   0.0000       0.190766         5.1910

MULLIKEN ATOMIC CHARGES
-----------------------
   0 C :    0.000456
   1 O :   -0.002095
   2 H :    0.001663
   3 H :   -0.000011
   4 H :    0.000072
   5 H :   -0.000369
   6 C :   -0.180765
   7 O :   -0.452914
   8 H :    0.306710
   9 H :    0.104812
  10 H :    0.104131
  11 H :    0.118311
Sum of atomic charges:    0.0000000

LOEWDIN ATOMIC CHARGES
----------------------
   0 C :   -0.002026
   1 O :   -0.006257
   2 H :   -0.011585
   3 H :   -0.000016
   4 H :   -0.000032
   5 H :   -0.000620
   6 C :   -0.389362
   7 O :   -0.044621
   8 H :    0.141524
   9 H :    0.099998
  10 H :    0.099589
  11 H :    0.113409

  Mayer bond orders larger than 0.1
B(  6-C ,  7-O ) :   1.0035 B(  6-C ,  9-H ) :   0.9839 B(  6-C , 10-H ) :   0.9708
B(  6-C , 11-H ) :   0.9717 B(  7-O ,  8-H ) :   0.9123

Dispersion correction           -0.000230192
FINAL SINGLE POINT ENERGY      -115.731229354671

DIPOLE MOMENT
-------------
                                X             Y             Z
Electronic contribution:      0.73305       0.10804       1.72692
Nuclear contribution   :     -0.73973      -0.65114      -2.18672
                        -----------------------------------------
Total Dipole Moment    :     -0.00668      -0.54309      -0.45980
                        -----------------------------------------
Magnitude (a.u.)       :      0.71163
Magnitude (Debye)      :      1.80882

Rotational constants in cm-1:     4.238855     0.844484     0.821091
Rotational constants in MHz : 127077.689174 25316.979499 24615.693291

                             ****ORCA TERMINATED NORMALLY****
TOTAL RUN TIME: 0 days 0 hours 0 minutes 51 seconds 945 msec
