                         Program Version 4.1.2  - RELEASE  -
|  1> #Run DFT-D3 single point of the dimer
|  2> ! wB97X-D3 def2-TZVP TIGHTSCF CHELPG PMODEL PAL8
|  3>
|  4> %base "5-80_DFT_AB"
|  5>
|  6> %scf
|  7> MaxIter 1000
|  8> end
|  9>
| 10> * xyz 0 1
| 11>   C                      -1.179900            -8.638037            -6.948018
| 12>   O                      -1.535437            -7.599694            -7.826611
| 13>   H                      -1.999492            -7.996814            -8.546439
| 14>   H                      -1.140443            -8.346784            -5.893805
| 15>   H                      -1.993029            -9.398908            -7.027883
| 16>   H                      -0.248926            -9.165004            -7.282007
| 17>   C                      -4.350654            -7.487115            -4.809428
| 18>   O                      -3.860675            -8.269056            -3.732070
| 19>   H                      -2.962024            -7.911483            -3.592213
| 20>   H                      -3.912617            -7.782667            -5.798155
| 21>   H                      -5.418089            -7.570817            -4.968837
| 22>   H                      -4.153602            -6.416138            -4.726686
| 23> *
| 24>
| 25> #Run DFT-D3 single point of the molecule with dimer basis set
| 26> $new_job
| 27> %base "5-80_DFT_A"
| 28> ! wB97X-D3 def2-TZVP TIGHTSCF CHELPG PMODEL
| 29>
| 30> %scf
| 31> MaxIter 1000
| 32> end
| 33>
| 34> * xyz 0 1
| 35>   C                      -1.179900            -8.638037            -6.948018
| 36>   O                      -1.535437            -7.599694            -7.826611
| 37>   H                      -1.999492            -7.996814            -8.546439
| 38>   H                      -1.140443            -8.346784            -5.893805
| 39>   H                      -1.993029            -9.398908            -7.027883
| 40>   H                      -0.248926            -9.165004            -7.282007
| 41>   C                    : -4.350654            -7.487115            -4.809428
| 42>   O                    : -3.860675            -8.269056            -3.732070
| 43>   H                    : -2.962024            -7.911483            -3.592213
| 44>   H                    : -3.912617            -7.782667            -5.798155
| 45>   H                    : -5.418089            -7.570817            -4.968837
| 46>   H                    : -4.153602            -6.416138            -4.726686
| 47> *
| 48>
| 49> #Run DFT-D3 single point of the particle with dimer basis set
| 50> $new_job
| 51> %base "5-80_DFT_B"
| 52> ! wB97X-D3 def2-TZVP TIGHTSCF CHELPG PMODEL
| 53>
| 54> %scf
| 55> MaxIter 1000
| 56> end
| 57>
| 58> * xyz 0 1
| 59>   C                    : -1.179900            -8.638037            -6.948018
| 60>   O                    : -1.535437            -7.599694            -7.826611
| 61>   H                    : -1.999492            -7.996814            -8.546439
| 62>   H                    : -1.140443            -8.346784            -5.893805
| 63>   H                    : -1.993029            -9.398908            -7.027883
| 64>   H                    : -0.248926            -9.165004            -7.282007
| 65>   C                      -4.350654            -7.487115            -4.809428
| 66>   O                      -3.860675            -8.269056            -3.732070
| 67>   H                      -2.962024            -7.911483            -3.592213
| 68>   H                      -3.912617            -7.782667            -5.798155
| 69>   H                      -5.418089            -7.570817            -4.968837
| 70>   H                      -4.153602            -6.416138            -4.726686
| 71> *
| 72>
| 73>                          ****END OF INPUT****
 Total Charge           Charge          ....    0
 Multiplicity           Mult            ....    1
 Number of Electrons    NEL             ....   36
Dispersion correction           -0.001731822
FINAL SINGLE POINT ENERGY      -231.468325804622
Dispersion correction           -0.000232871
FINAL SINGLE POINT ENERGY      -115.732832149190

CARTESIAN COORDINATES (ANGSTROEM)
---------------------------------
  C     -1.179900   -8.638037   -6.948018
  O     -1.535437   -7.599694   -7.826611
  H     -1.999492   -7.996814   -8.546439
  H     -1.140443   -8.346784   -5.893805
  H     -1.993029   -9.398908   -7.027883
  H     -0.248926   -9.165004   -7.282007
  C     -4.350654   -7.487115   -4.809428
  O     -3.860675   -8.269056   -3.732070
  H     -2.962024   -7.911483   -3.592213
  H     -3.912617   -7.782667   -5.798155
  H     -5.418089   -7.570817   -4.968837
  H     -4.153602   -6.416138   -4.726686

 Multiplicity           Mult            ....    1
 Number of Electrons    NEL             ....   18
 Basis Dimension        Dim             ....  172

ORBITAL ENERGIES
----------------

  NO   OCC          E(Eh)            E(eV)
   0   2.0000     -19.238194      -523.4979
   1   2.0000     -10.315276      -280.6929
   2   2.0000      -1.137109       -30.9423
   3   2.0000      -0.794223       -21.6119
   4   2.0000      -0.610206       -16.6046
   5   2.0000      -0.533947       -14.5294
   6   2.0000      -0.530377       -14.4323
   7   2.0000      -0.440938       -11.9985
   8   2.0000      -0.374752       -10.1975
   9   0.0000       0.078724         2.1422
  10   0.0000       0.118969         3.2373
  11   0.0000       0.147882         4.0241
  12   0.0000       0.177634         4.8337
  13   0.0000       0.185673         5.0524

MULLIKEN ATOMIC CHARGES
-----------------------
   0 C :    0.003240
   1 O :   -0.000368
   2 H :   -0.000311
   3 H :   -0.002153
   4 H :    0.000074
   5 H :    0.000183
   6 C :   -0.185427
   7 O :   -0.461734
   8 H :    0.319128
   9 H :    0.089449
  10 H :    0.127268
  11 H :    0.110652
Sum of atomic charges:    0.0000000

LOEWDIN ATOMIC CHARGES
----------------------
   0 C :   -0.004762
   1 O :   -0.000717
   2 H :   -0.000314
   3 H :   -0.001454
   4 H :   -0.000989
   5 H :   -0.000027
   6 C :   -0.394570
   7 O :   -0.080742
   8 H :    0.183671
   9 H :    0.099644
  10 H :    0.105161
  11 H :    0.095099

  Mayer bond orders larger than 0.1
B(  6-C ,  7-O ) :   1.0069 B(  6-C ,  9-H ) :   0.9748 B(  6-C , 10-H ) :   0.9758
B(  6-C , 11-H ) :   0.9776 B(  7-O ,  8-H ) :   0.8978

Dispersion correction           -0.000249578
FINAL SINGLE POINT ENERGY      -115.733897319633

DIPOLE MOMENT
-------------
                                X             Y             Z
Electronic contribution:      0.47886      -1.14785       1.56881
Nuclear contribution   :     -0.13066       1.67853      -1.88631
                        -----------------------------------------
Total Dipole Moment    :      0.34821       0.53068      -0.31750
                        -----------------------------------------
Magnitude (a.u.)       :      0.70970
Magnitude (Debye)      :      1.80392

Rotational constants in cm-1:     4.337895     0.818666     0.788400
Rotational constants in MHz : 130046.819067 24542.992261 23635.627287

                             ****ORCA TERMINATED NORMALLY****
TOTAL RUN TIME: 0 days 0 hours 1 minutes 3 seconds 68 msec
