                         Program Version 4.1.2  - RELEASE  -
|  1> #Run DFT-D3 single point of the dimer
|  2> ! wB97X-D3 def2-TZVP TIGHTSCF CHELPG PMODEL PAL8
|  3>
|  4> %base "7-16_DFT_AB"
|  5>
|  6> %scf
|  7> MaxIter 1000
|  8> end
|  9>
| 10> * xyz 0 1
| 11>   C                      -1.043704            -4.234054            3.067058
| 12>   O                      -0.967894            -4.898226            4.364749
| 13>   H                      -1.811567            -5.220936            4.592340
| 14>   H                      -1.580061            -3.307889            3.073810
| 15>   H                      -0.006759            -3.989458            2.723288
| 16>   H                      -1.542091            -4.895781            2.312860
| 17>   C                      -4.463582            -1.354472            0.559463
| 18>   O                      -5.340438            -2.213762            -0.128602
| 19>   H                      -6.211150            -1.951602            -0.000589
| 20>   H                      -4.627158            -1.465617            1.596524
| 21>   H                      -3.468846            -1.728514            0.454134
| 22>   H                      -4.436178            -0.307758            0.291256
| 23> *
| 24>
| 25> #Run DFT-D3 single point of the molecule with dimer basis set
| 26> $new_job
| 27> %base "7-16_DFT_A"
| 28> ! wB97X-D3 def2-TZVP TIGHTSCF CHELPG PMODEL
| 29>
| 30> %scf
| 31> MaxIter 1000
| 32> end
| 33>
| 34> * xyz 0 1
| 35>   C                      -1.043704            -4.234054            3.067058
| 36>   O                      -0.967894            -4.898226            4.364749
| 37>   H                      -1.811567            -5.220936            4.592340
| 38>   H                      -1.580061            -3.307889            3.073810
| 39>   H                      -0.006759            -3.989458            2.723288
| 40>   H                      -1.542091            -4.895781            2.312860
| 41>   C                    : -4.463582            -1.354472            0.559463
| 42>   O                    : -5.340438            -2.213762            -0.128602
| 43>   H                    : -6.211150            -1.951602            -0.000589
| 44>   H                    : -4.627158            -1.465617            1.596524
| 45>   H                    : -3.468846            -1.728514            0.454134
| 46>   H                    : -4.436178            -0.307758            0.291256
| 47> *
| 48>
| 49> #Run DFT-D3 single point of the particle with dimer basis set
| 50> $new_job
| 51> %base "7-16_DFT_B"
| 52> ! wB97X-D3 def2-TZVP TIGHTSCF CHELPG PMODEL
| 53>
| 54> %scf
| 55> MaxIter 1000
| 56> end
| 57>
| 58> * xyz 0 1
| 59>   C                    : -1.043704            -4.234054            3.067058
| 60>   O                    : -0.967894            -4.898226            4.364749
| 61>   H                    : -1.811567            -5.220936            4.592340
| 62>   H                    : -1.580061            -3.307889            3.073810
| 63>   H                    : -0.006759            -3.989458            2.723288
| 64>   H                    : -1.542091            -4.895781            2.312860
| 65>   C                      -4.463582            -1.354472            0.559463
| 66>   O                      -5.340438            -2.213762            -0.128602
| 67>   H                      -6.211150            -1.951602            -0.000589
| 68>   H                      -4.627158            -1.465617            1.596524
| 69>   H                      -3.468846            -1.728514            0.454134
| 70>   H                      -4.436178            -0.307758            0.291256
| 71> *
| 72>
| 73>                          ****END OF INPUT****
 Total Charge           Charge          ....    0
 Multiplicity           Mult            ....    1
 Number of Electrons    NEL             ....   36
Dispersion correction           -0.000802303
FINAL SINGLE POINT ENERGY      -231.465350143128
Dispersion correction           -0.000268682
FINAL SINGLE POINT ENERGY      -115.733396945203

CARTESIAN COORDINATES (ANGSTROEM)
---------------------------------
  C     -1.043704   -4.234054    3.067058
  O     -0.967894   -4.898226    4.364749
  H     -1.811567   -5.220936    4.592340
  H     -1.580061   -3.307889    3.073810
  H     -0.006759   -3.989458    2.723288
  H     -1.542091   -4.895781    2.312860
  C     -4.463582   -1.354472    0.559463
  O     -5.340438   -2.213762   -0.128602
  H     -6.211150   -1.951602   -0.000589
  H     -4.627158   -1.465617    1.596524
  H     -3.468846   -1.728514    0.454134
  H     -4.436178   -0.307758    0.291256

 Multiplicity           Mult            ....    1
 Number of Electrons    NEL             ....   18
 Basis Dimension        Dim             ....  172

ORBITAL ENERGIES
----------------

  NO   OCC          E(Eh)            E(eV)
   0   2.0000     -19.225451      -523.1511
   1   2.0000     -10.303198      -280.3643
   2   2.0000      -1.144651       -31.1475
   3   2.0000      -0.807853       -21.9828
   4   2.0000      -0.618498       -16.8302
   5   2.0000      -0.548666       -14.9300
   6   2.0000      -0.529134       -14.3985
   7   2.0000      -0.431336       -11.7372
   8   2.0000      -0.376816       -10.2537
   9   0.0000       0.085454         2.3253
  10   0.0000       0.122848         3.3429
  11   0.0000       0.147370         4.0101
  12   0.0000       0.167911         4.5691
  13   0.0000       0.192300         5.2328

MULLIKEN ATOMIC CHARGES
-----------------------
   0 C :    0.000131
   1 O :   -0.000002
   2 H :   -0.000002
   3 H :   -0.000325
   4 H :   -0.000005
   5 H :   -0.000009
   6 C :   -0.162870
   7 O :   -0.470099
   8 H :    0.306574
   9 H :    0.106199
  10 H :    0.117820
  11 H :    0.102589
Sum of atomic charges:   -0.0000000

LOEWDIN ATOMIC CHARGES
----------------------
   0 C :   -0.000110
   1 O :   -0.000002
   2 H :   -0.000000
   3 H :   -0.000182
   4 H :   -0.000002
   5 H :   -0.000014
   6 C :   -0.380669
   7 O :   -0.048372
   8 H :    0.139930
   9 H :    0.090114
  10 H :    0.106335
  11 H :    0.092971

  Mayer bond orders larger than 0.1
B(  6-C ,  7-O ) :   0.9999 B(  6-C ,  9-H ) :   0.9859 B(  6-C , 10-H ) :   0.9761
B(  6-C , 11-H ) :   0.9680 B(  7-O ,  8-H ) :   0.9091

Dispersion correction           -0.000239403
FINAL SINGLE POINT ENERGY      -115.731554579878

DIPOLE MOMENT
-------------
                                X             Y             Z
Electronic contribution:     -1.10865      -1.06962      -0.99167
Nuclear contribution   :      0.90786       1.57457       1.36900
                        -----------------------------------------
Total Dipole Moment    :     -0.20079       0.50495       0.37733
                        -----------------------------------------
Magnitude (a.u.)       :      0.66157
Magnitude (Debye)      :      1.68157

Rotational constants in cm-1:     4.660747     0.833858     0.811624
Rotational constants in MHz : 139725.693184 24998.421666 24331.884672

                             ****ORCA TERMINATED NORMALLY****
TOTAL RUN TIME: 0 days 0 hours 1 minutes 1 seconds 606 msec
