                         Program Version 4.1.2  - RELEASE  -
|  1> #Run DFT-D3 single point of the dimer
|  2> ! wB97X-D3 def2-TZVP TIGHTSCF CHELPG PMODEL PAL8
|  3>
|  4> %base "21-190_DFT_AB"
|  5>
|  6> %scf
|  7> MaxIter 1000
|  8> end
|  9>
| 10> * xyz 0 1
| 11>   C                      -1.599869            -4.759525            -3.505068
| 12>   O                      -1.129945            -6.048560            -3.901548
| 13>   H                      -0.916504            -6.017354            -4.825081
| 14>   H                      -0.717377            -4.191818            -3.156286
| 15>   H                      -1.974261            -4.197378            -4.403359
| 16>   H                      -2.392645            -4.778686            -2.797644
| 17>   C                      -1.127269            -7.318845            -0.716428
| 18>   O                      -1.761045            -7.930545            -1.834784
| 19>   H                      -1.366283            -7.497340            -2.620460
| 20>   H                      -0.055521            -7.273837            -0.889200
| 21>   H                      -1.556174            -6.300694            -0.631375
| 22>   H                      -1.324985            -7.905945            0.209468
| 23> *
| 24>
| 25> #Run DFT-D3 single point of the molecule with dimer basis set
| 26> $new_job
| 27> %base "21-190_DFT_A"
| 28> ! wB97X-D3 def2-TZVP TIGHTSCF CHELPG PMODEL
| 29>
| 30> %scf
| 31> MaxIter 1000
| 32> end
| 33>
| 34> * xyz 0 1
| 35>   C                      -1.599869            -4.759525            -3.505068
| 36>   O                      -1.129945            -6.048560            -3.901548
| 37>   H                      -0.916504            -6.017354            -4.825081
| 38>   H                      -0.717377            -4.191818            -3.156286
| 39>   H                      -1.974261            -4.197378            -4.403359
| 40>   H                      -2.392645            -4.778686            -2.797644
| 41>   C                    : -1.127269            -7.318845            -0.716428
| 42>   O                    : -1.761045            -7.930545            -1.834784
| 43>   H                    : -1.366283            -7.497340            -2.620460
| 44>   H                    : -0.055521            -7.273837            -0.889200
| 45>   H                    : -1.556174            -6.300694            -0.631375
| 46>   H                    : -1.324985            -7.905945            0.209468
| 47> *
| 48>
| 49> #Run DFT-D3 single point of the particle with dimer basis set
| 50> $new_job
| 51> %base "21-190_DFT_B"
| 52> ! wB97X-D3 def2-TZVP TIGHTSCF CHELPG PMODEL
| 53>
| 54> %scf
| 55> MaxIter 1000
| 56> end
| 57>
| 58> * xyz 0 1
| 59>   C                    : -1.599869            -4.759525            -3.505068
| 60>   O                    : -1.129945            -6.048560            -3.901548
| 61>   H                    : -0.916504            -6.017354            -4.825081
| 62>   H                    : -0.717377            -4.191818            -3.156286
| 63>   H                    : -1.974261            -4.197378            -4.403359
| 64>   H                    : -2.392645            -4.778686            -2.797644
| 65>   C                      -1.127269            -7.318845            -0.716428
| 66>   O                      -1.761045            -7.930545            -1.834784
| 67>   H                      -1.366283            -7.497340            -2.620460
| 68>   H                      -0.055521            -7.273837            -0.889200
| 69>   H                      -1.556174            -6.300694            -0.631375
| 70>   H                      -1.324985            -7.905945            0.209468
| 71> *
| 72>
| 73>                          ****END OF INPUT****
 Total Charge           Charge          ....    0
 Multiplicity           Mult            ....    1
 Number of Electrons    NEL             ....   36
Dispersion correction           -0.002088447
FINAL SINGLE POINT ENERGY      -231.476822995234
Dispersion correction           -0.000240853
FINAL SINGLE POINT ENERGY      -115.733128445959

CARTESIAN COORDINATES (ANGSTROEM)
---------------------------------
  C     -1.599869   -4.759525   -3.505068
  O     -1.129945   -6.048560   -3.901548
  H     -0.916504   -6.017354   -4.825081
  H     -0.717377   -4.191818   -3.156286
  H     -1.974261   -4.197378   -4.403359
  H     -2.392645   -4.778686   -2.797644
  C     -1.127269   -7.318845   -0.716428
  O     -1.761045   -7.930545   -1.834784
  H     -1.366283   -7.497340   -2.620460
  H     -0.055521   -7.273837   -0.889200
  H     -1.556174   -6.300694   -0.631375
  H     -1.324985   -7.905945    0.209468

 Multiplicity           Mult            ....    1
 Number of Electrons    NEL             ....   18
 Basis Dimension        Dim             ....  172

ORBITAL ENERGIES
----------------

  NO   OCC          E(Eh)            E(eV)
   0   2.0000     -19.230439      -523.2868
   1   2.0000     -10.316441      -280.7246
   2   2.0000      -1.130894       -30.7732
   3   2.0000      -0.788789       -21.4640
   4   2.0000      -0.604142       -16.4395
   5   2.0000      -0.544622       -14.8199
   6   2.0000      -0.524670       -14.2770
   7   2.0000      -0.434945       -11.8355
   8   2.0000      -0.371414       -10.1067
   9   0.0000       0.070007         1.9050
  10   0.0000       0.134481         3.6594
  11   0.0000       0.141820         3.8591
  12   0.0000       0.169175         4.6035
  13   0.0000       0.195228         5.3124

MULLIKEN ATOMIC CHARGES
-----------------------
   0 C :   -0.001723
   1 O :   -0.004899
   2 H :   -0.000511
   3 H :   -0.000226
   4 H :    0.000049
   5 H :   -0.000518
   6 C :   -0.178907
   7 O :   -0.470154
   8 H :    0.314942
   9 H :    0.111135
  10 H :    0.104581
  11 H :    0.126232
Sum of atomic charges:    0.0000000

LOEWDIN ATOMIC CHARGES
----------------------
   0 C :   -0.006686
   1 O :   -0.020842
   2 H :   -0.001052
   3 H :   -0.000164
   4 H :   -0.000068
   5 H :   -0.001337
   6 C :   -0.380253
   7 O :   -0.085513
   8 H :    0.189351
   9 H :    0.094482
  10 H :    0.099401
  11 H :    0.112681

  Mayer bond orders larger than 0.1
B(  6-C ,  7-O ) :   0.9884 B(  6-C ,  9-H ) :   0.9807 B(  6-C , 10-H ) :   0.9778
B(  6-C , 11-H ) :   0.9708 B(  7-O ,  8-H ) :   0.9023

Dispersion correction           -0.000223109
FINAL SINGLE POINT ENERGY      -115.735111381591

DIPOLE MOMENT
-------------
                                X             Y             Z
Electronic contribution:     -0.84843      -0.89192      -1.24542
Nuclear contribution   :      1.35180       1.38556       1.21363
                        -----------------------------------------
Total Dipole Moment    :      0.50337       0.49364      -0.03178
                        -----------------------------------------
Magnitude (a.u.)       :      0.70574
Magnitude (Debye)      :      1.79385

Rotational constants in cm-1:     4.095952     0.831451     0.800020
Rotational constants in MHz : 122793.544417 24926.286766 23983.990402

                             ****ORCA TERMINATED NORMALLY****
TOTAL RUN TIME: 0 days 0 hours 1 minutes 7 seconds 760 msec
