                         Program Version 4.1.2  - RELEASE  -
|  1> #Run DFT-D3 single point of the dimer
|  2> ! wB97X-D3 def2-TZVP TIGHTSCF CHELPG PMODEL PAL8
|  3>
|  4> %base "5-87_DFT_AB"
|  5>
|  6> %scf
|  7> MaxIter 1000
|  8> end
|  9>
| 10> * xyz 0 1
| 11>   C                      7.210825             8.632815             -10.573525
| 12>   O                      6.489195             9.621712             -11.265290
| 13>   H                      5.643977             9.593942             -10.878869
| 14>   H                      8.271137             8.672598             -10.791634
| 15>   H                      7.248490             8.656114             -9.461360
| 16>   H                      6.873795             7.608064             -10.845225
| 17>   C                      6.677897             3.680953             -10.009311
| 18>   O                      5.601949             3.338755             -9.115723
| 19>   H                      5.015415             2.754194             -9.571947
| 20>   H                      7.225566             2.797239             -10.323432
| 21>   H                      6.255010             4.209416             -10.893649
| 22>   H                      7.307395             4.413736             -9.506670
| 23> *
| 24>
| 25> #Run DFT-D3 single point of the molecule with dimer basis set
| 26> $new_job
| 27> %base "5-87_DFT_A"
| 28> ! wB97X-D3 def2-TZVP TIGHTSCF CHELPG PMODEL
| 29>
| 30> %scf
| 31> MaxIter 1000
| 32> end
| 33>
| 34> * xyz 0 1
| 35>   C                      7.210825             8.632815             -10.573525
| 36>   O                      6.489195             9.621712             -11.265290
| 37>   H                      5.643977             9.593942             -10.878869
| 38>   H                      8.271137             8.672598             -10.791634
| 39>   H                      7.248490             8.656114             -9.461360
| 40>   H                      6.873795             7.608064             -10.845225
| 41>   C                    : 6.677897             3.680953             -10.009311
| 42>   O                    : 5.601949             3.338755             -9.115723
| 43>   H                    : 5.015415             2.754194             -9.571947
| 44>   H                    : 7.225566             2.797239             -10.323432
| 45>   H                    : 6.255010             4.209416             -10.893649
| 46>   H                    : 7.307395             4.413736             -9.506670
| 47> *
| 48>
| 49> #Run DFT-D3 single point of the particle with dimer basis set
| 50> $new_job
| 51> %base "5-87_DFT_B"
| 52> ! wB97X-D3 def2-TZVP TIGHTSCF CHELPG PMODEL
| 53>
| 54> %scf
| 55> MaxIter 1000
| 56> end
| 57>
| 58> * xyz 0 1
| 59>   C                    : 7.210825             8.632815             -10.573525
| 60>   O                    : 6.489195             9.621712             -11.265290
| 61>   H                    : 5.643977             9.593942             -10.878869
| 62>   H                    : 8.271137             8.672598             -10.791634
| 63>   H                    : 7.248490             8.656114             -9.461360
| 64>   H                    : 6.873795             7.608064             -10.845225
| 65>   C                      6.677897             3.680953             -10.009311
| 66>   O                      5.601949             3.338755             -9.115723
| 67>   H                      5.015415             2.754194             -9.571947
| 68>   H                      7.225566             2.797239             -10.323432
| 69>   H                      6.255010             4.209416             -10.893649
| 70>   H                      7.307395             4.413736             -9.506670
| 71> *
| 72>
| 73>                          ****END OF INPUT****
 Total Charge           Charge          ....    0
 Multiplicity           Mult            ....    1
 Number of Electrons    NEL             ....   36
Dispersion correction           -0.000844003
FINAL SINGLE POINT ENERGY      -231.468769570667
Dispersion correction           -0.000252767
FINAL SINGLE POINT ENERGY      -115.732223267006

CARTESIAN COORDINATES (ANGSTROEM)
---------------------------------
  C      7.210825    8.632815  -10.573525
  O      6.489195    9.621712  -11.265290
  H      5.643977    9.593942  -10.878869
  H      8.271137    8.672598  -10.791634
  H      7.248490    8.656114   -9.461360
  H      6.873795    7.608064  -10.845225
  C      6.677897    3.680953  -10.009311
  O      5.601949    3.338755   -9.115723
  H      5.015415    2.754194   -9.571947
  H      7.225566    2.797239  -10.323432
  H      6.255010    4.209416  -10.893649
  H      7.307395    4.413736   -9.506670

 Multiplicity           Mult            ....    1
 Number of Electrons    NEL             ....   18
 Basis Dimension        Dim             ....  172

ORBITAL ENERGIES
----------------

  NO   OCC          E(Eh)            E(eV)
   0   2.0000     -19.226043      -523.1672
   1   2.0000     -10.316147      -280.7166
   2   2.0000      -1.130038       -30.7499
   3   2.0000      -0.796268       -21.6676
   4   2.0000      -0.605408       -16.4740
   5   2.0000      -0.542705       -14.7678
   6   2.0000      -0.523260       -14.2386
   7   2.0000      -0.434981       -11.8364
   8   2.0000      -0.373654       -10.1676
   9   0.0000       0.085022         2.3136
  10   0.0000       0.117599         3.2000
  11   0.0000       0.147269         4.0074
  12   0.0000       0.168096         4.5741
  13   0.0000       0.188599         5.1320

MULLIKEN ATOMIC CHARGES
-----------------------
   0 C :    0.000144
   1 O :   -0.000003
   2 H :   -0.000003
   3 H :   -0.000008
   4 H :   -0.000031
   5 H :   -0.000375
   6 C :   -0.163769
   7 O :   -0.479576
   8 H :    0.309518
   9 H :    0.108835
  10 H :    0.101008
  11 H :    0.124260
Sum of atomic charges:    0.0000000

LOEWDIN ATOMIC CHARGES
----------------------
   0 C :   -0.000118
   1 O :   -0.000002
   2 H :   -0.000000
   3 H :   -0.000003
   4 H :   -0.000012
   5 H :   -0.000336
   6 C :   -0.363434
   7 O :   -0.092218
   8 H :    0.154924
   9 H :    0.093695
  10 H :    0.098946
  11 H :    0.108558

  Mayer bond orders larger than 0.1
B(  6-C ,  7-O ) :   0.9911 B(  6-C ,  9-H ) :   0.9713 B(  6-C , 10-H ) :   0.9789
B(  6-C , 11-H ) :   0.9732 B(  7-O ,  8-H ) :   0.9049

Dispersion correction           -0.000240183
FINAL SINGLE POINT ENERGY      -115.736028122722

DIPOLE MOMENT
-------------
                                X             Y             Z
Electronic contribution:     -1.19060      -0.41142       1.22303
Nuclear contribution   :      1.26371       0.18849      -1.87961
                        -----------------------------------------
Total Dipole Moment    :      0.07311      -0.22293      -0.65658
                        -----------------------------------------
Magnitude (a.u.)       :      0.69724
Magnitude (Debye)      :      1.77224

Rotational constants in cm-1:     4.237345     0.811459     0.785376
Rotational constants in MHz : 127032.420454 24326.936084 23544.965546

                             ****ORCA TERMINATED NORMALLY****
TOTAL RUN TIME: 0 days 0 hours 1 minutes 1 seconds 703 msec
