                         Program Version 4.1.2  - RELEASE  -
|  1> #Run DFT-D3 single point of the dimer
|  2> ! wB97X-D3 def2-TZVP TIGHTSCF CHELPG PMODEL PAL8
|  3>
|  4> %base "12-168_DFT_AB"
|  5>
|  6> %scf
|  7> MaxIter 1000
|  8> end
|  9>
| 10> * xyz 0 1
| 11>   C                      -10.925620           11.028684            5.607531
| 12>   O                      -9.934726            10.286416            6.302170
| 13>   H                      -10.283144           9.986644             7.197027
| 14>   H                      -10.519624           11.692370            4.792547
| 15>   H                      -11.713673           10.380244            5.160018
| 16>   H                      -11.410883           11.691452            6.391193
| 17>   C                      -10.609487           7.903881             8.443884
| 18>   O                      -11.765501           8.473567             7.927380
| 19>   H                      -12.144472           9.029107             8.616903
| 20>   H                      -9.914866            8.641571             8.876591
| 21>   H                      -10.917914           7.135079             9.238085
| 22>   H                      -10.060025           7.381231             7.667216
| 23> *
| 24>
| 25> #Run DFT-D3 single point of the molecule with dimer basis set
| 26> $new_job
| 27> %base "12-168_DFT_A"
| 28> ! wB97X-D3 def2-TZVP TIGHTSCF CHELPG PMODEL
| 29>
| 30> %scf
| 31> MaxIter 1000
| 32> end
| 33>
| 34> * xyz 0 1
| 35>   C                      -10.925620           11.028684            5.607531
| 36>   O                      -9.934726            10.286416            6.302170
| 37>   H                      -10.283144           9.986644             7.197027
| 38>   H                      -10.519624           11.692370            4.792547
| 39>   H                      -11.713673           10.380244            5.160018
| 40>   H                      -11.410883           11.691452            6.391193
| 41>   C                    : -10.609487           7.903881             8.443884
| 42>   O                    : -11.765501           8.473567             7.927380
| 43>   H                    : -12.144472           9.029107             8.616903
| 44>   H                    : -9.914866            8.641571             8.876591
| 45>   H                    : -10.917914           7.135079             9.238085
| 46>   H                    : -10.060025           7.381231             7.667216
| 47> *
| 48>
| 49> #Run DFT-D3 single point of the particle with dimer basis set
| 50> $new_job
| 51> %base "12-168_DFT_B"
| 52> ! wB97X-D3 def2-TZVP TIGHTSCF CHELPG PMODEL
| 53>
| 54> %scf
| 55> MaxIter 1000
| 56> end
| 57>
| 58> * xyz 0 1
| 59>   C                    : -10.925620           11.028684            5.607531
| 60>   O                    : -9.934726            10.286416            6.302170
| 61>   H                    : -10.283144           9.986644             7.197027
| 62>   H                    : -10.519624           11.692370            4.792547
| 63>   H                    : -11.713673           10.380244            5.160018
| 64>   H                    : -11.410883           11.691452            6.391193
| 65>   C                      -10.609487           7.903881             8.443884
| 66>   O                      -11.765501           8.473567             7.927380
| 67>   H                      -12.144472           9.029107             8.616903
| 68>   H                      -9.914866            8.641571             8.876591
| 69>   H                      -10.917914           7.135079             9.238085
| 70>   H                      -10.060025           7.381231             7.667216
| 71> *
| 72>
| 73>                          ****END OF INPUT****
 Total Charge           Charge          ....    0
 Multiplicity           Mult            ....    1
 Number of Electrons    NEL             ....   36
Dispersion correction           -0.001998590
FINAL SINGLE POINT ENERGY      -231.468320411864
Dispersion correction           -0.000257698
FINAL SINGLE POINT ENERGY      -115.730681775995

CARTESIAN COORDINATES (ANGSTROEM)
---------------------------------
  C    -10.925620   11.028684    5.607531
  O     -9.934726   10.286416    6.302170
  H    -10.283144    9.986644    7.197027
  H    -10.519624   11.692370    4.792547
  H    -11.713673   10.380244    5.160018
  H    -11.410883   11.691452    6.391193
  C    -10.609487    7.903881    8.443884
  O    -11.765501    8.473567    7.927380
  H    -12.144472    9.029107    8.616903
  H     -9.914866    8.641571    8.876591
  H    -10.917914    7.135079    9.238085
  H    -10.060025    7.381231    7.667216

 Multiplicity           Mult            ....    1
 Number of Electrons    NEL             ....   18
 Basis Dimension        Dim             ....  172

ORBITAL ENERGIES
----------------

  NO   OCC          E(Eh)            E(eV)
   0   2.0000     -19.232084      -523.3316
   1   2.0000     -10.316388      -280.7232
   2   2.0000      -1.145604       -31.1735
   3   2.0000      -0.790622       -21.5139
   4   2.0000      -0.613195       -16.6859
   5   2.0000      -0.543071       -14.7777
   6   2.0000      -0.532473       -14.4893
   7   2.0000      -0.432049       -11.7567
   8   2.0000      -0.371403       -10.1064
   9   0.0000       0.092899         2.5279
  10   0.0000       0.126731         3.4485
  11   0.0000       0.150140         4.0855
  12   0.0000       0.186348         5.0708
  13   0.0000       0.193787         5.2732

MULLIKEN ATOMIC CHARGES
-----------------------
   0 C :    0.002242
   1 O :    0.002903
   2 H :   -0.008642
   3 H :   -0.000319
   4 H :   -0.002227
   5 H :   -0.001713
   6 C :   -0.177602
   7 O :   -0.461992
   8 H :    0.317177
   9 H :    0.107008
  10 H :    0.102495
  11 H :    0.120669
Sum of atomic charges:   -0.0000000

LOEWDIN ATOMIC CHARGES
----------------------
   0 C :   -0.005968
   1 O :   -0.003374
   2 H :   -0.020726
   3 H :   -0.000104
   4 H :   -0.001365
   5 H :   -0.000659
   6 C :   -0.408155
   7 O :   -0.042295
   8 H :    0.175222
   9 H :    0.096980
  10 H :    0.103469
  11 H :    0.106975

  Mayer bond orders larger than 0.1
B(  6-C ,  7-O ) :   0.9867 B(  6-C ,  9-H ) :   0.9760 B(  6-C , 10-H ) :   0.9775
B(  6-C , 11-H ) :   0.9744 B(  7-O ,  8-H ) :   0.8964

Dispersion correction           -0.000231045
FINAL SINGLE POINT ENERGY      -115.735266725109

DIPOLE MOMENT
-------------
                                X             Y             Z
Electronic contribution:     -1.46366       0.73380      -0.86528
Nuclear contribution   :      1.66631      -0.59484       1.47485
                        -----------------------------------------
Total Dipole Moment    :      0.20265       0.13896       0.60956
                        -----------------------------------------
Magnitude (a.u.)       :      0.65723
Magnitude (Debye)      :      1.67054

Rotational constants in cm-1:     4.164574     0.851119     0.826381
Rotational constants in MHz : 124850.792658 25515.893154 24774.273537

                             ****ORCA TERMINATED NORMALLY****
TOTAL RUN TIME: 0 days 0 hours 1 minutes 16 seconds 513 msec
