                         Program Version 4.1.2  - RELEASE  -
|  1> #Run DFT-D3 single point of the dimer
|  2> ! wB97X-D3 def2-TZVP TIGHTSCF CHELPG PMODEL PAL8
|  3>
|  4> %base "14-188_DFT_AB"
|  5>
|  6> %scf
|  7> MaxIter 1000
|  8> end
|  9>
| 10> * xyz 0 1
| 11>   C                      4.333396             0.750296             -6.204696
| 12>   O                      4.056688             0.232788             -7.478227
| 13>   H                      4.599385             0.658072             -8.162980
| 14>   H                      4.119846             1.875022             -6.029099
| 15>   H                      3.827527             0.156209             -5.425978
| 16>   H                      5.434778             0.539944             -5.891598
| 17>   C                      0.864074             -0.186070            -5.966287
| 18>   O                      1.037888             0.478722             -7.171851
| 19>   H                      1.971567             0.439262             -7.331044
| 20>   H                      1.203016             0.394362             -5.112619
| 21>   H                      -0.235655            -0.221451            -5.806584
| 22>   H                      1.194174             -1.183852            -6.068807
| 23> *
| 24>
| 25> #Run DFT-D3 single point of the molecule with dimer basis set
| 26> $new_job
| 27> %base "14-188_DFT_A"
| 28> ! wB97X-D3 def2-TZVP TIGHTSCF CHELPG PMODEL
| 29>
| 30> %scf
| 31> MaxIter 1000
| 32> end
| 33>
| 34> * xyz 0 1
| 35>   C                      4.333396             0.750296             -6.204696
| 36>   O                      4.056688             0.232788             -7.478227
| 37>   H                      4.599385             0.658072             -8.162980
| 38>   H                      4.119846             1.875022             -6.029099
| 39>   H                      3.827527             0.156209             -5.425978
| 40>   H                      5.434778             0.539944             -5.891598
| 41>   C                    : 0.864074             -0.186070            -5.966287
| 42>   O                    : 1.037888             0.478722             -7.171851
| 43>   H                    : 1.971567             0.439262             -7.331044
| 44>   H                    : 1.203016             0.394362             -5.112619
| 45>   H                    : -0.235655            -0.221451            -5.806584
| 46>   H                    : 1.194174             -1.183852            -6.068807
| 47> *
| 48>
| 49> #Run DFT-D3 single point of the particle with dimer basis set
| 50> $new_job
| 51> %base "14-188_DFT_B"
| 52> ! wB97X-D3 def2-TZVP TIGHTSCF CHELPG PMODEL
| 53>
| 54> %scf
| 55> MaxIter 1000
| 56> end
| 57>
| 58> * xyz 0 1
| 59>   C                    : 4.333396             0.750296             -6.204696
| 60>   O                    : 4.056688             0.232788             -7.478227
| 61>   H                    : 4.599385             0.658072             -8.162980
| 62>   H                    : 4.119846             1.875022             -6.029099
| 63>   H                    : 3.827527             0.156209             -5.425978
| 64>   H                    : 5.434778             0.539944             -5.891598
| 65>   C                      0.864074             -0.186070            -5.966287
| 66>   O                      1.037888             0.478722             -7.171851
| 67>   H                      1.971567             0.439262             -7.331044
| 68>   H                      1.203016             0.394362             -5.112619
| 69>   H                      -0.235655            -0.221451            -5.806584
| 70>   H                      1.194174             -1.183852            -6.068807
| 71> *
| 72>
| 73>                          ****END OF INPUT****
 Total Charge           Charge          ....    0
 Multiplicity           Mult            ....    1
 Number of Electrons    NEL             ....   36
Dispersion correction           -0.002205215
FINAL SINGLE POINT ENERGY      -231.469975662549
Dispersion correction           -0.000287666
FINAL SINGLE POINT ENERGY      -115.730120309099

CARTESIAN COORDINATES (ANGSTROEM)
---------------------------------
  C      4.333396    0.750296   -6.204696
  O      4.056688    0.232788   -7.478227
  H      4.599385    0.658072   -8.162980
  H      4.119846    1.875022   -6.029099
  H      3.827527    0.156209   -5.425978
  H      5.434778    0.539944   -5.891598
  C      0.864074   -0.186070   -5.966287
  O      1.037888    0.478722   -7.171851
  H      1.971567    0.439262   -7.331044
  H      1.203016    0.394362   -5.112619
  H     -0.235655   -0.221451   -5.806584
  H      1.194174   -1.183852   -6.068807

 Multiplicity           Mult            ....    1
 Number of Electrons    NEL             ....   18
 Basis Dimension        Dim             ....  172

ORBITAL ENERGIES
----------------

  NO   OCC          E(Eh)            E(eV)
   0   2.0000     -19.228482      -523.2336
   1   2.0000     -10.306259      -280.4476
   2   2.0000      -1.149213       -31.2717
   3   2.0000      -0.795208       -21.6387
   4   2.0000      -0.612410       -16.6645
   5   2.0000      -0.562872       -15.3165
   6   2.0000      -0.523944       -14.2572
   7   2.0000      -0.427922       -11.6443
   8   2.0000      -0.376840       -10.2543
   9   0.0000       0.069595         1.8938
  10   0.0000       0.141141         3.8407
  11   0.0000       0.144218         3.9244
  12   0.0000       0.173829         4.7301
  13   0.0000       0.186243         5.0679

MULLIKEN ATOMIC CHARGES
-----------------------
   0 C :   -0.006258
   1 O :   -0.001140
   2 H :   -0.000230
   3 H :    0.000387
   4 H :    0.000059
   5 H :   -0.000096
   6 C :   -0.169928
   7 O :   -0.456720
   8 H :    0.306744
   9 H :    0.103860
  10 H :    0.115294
  11 H :    0.108028
Sum of atomic charges:   -0.0000000

LOEWDIN ATOMIC CHARGES
----------------------
   0 C :   -0.010118
   1 O :   -0.011935
   2 H :   -0.000742
   3 H :   -0.000545
   4 H :   -0.002902
   5 H :   -0.000150
   6 C :   -0.401283
   7 O :   -0.041518
   8 H :    0.168213
   9 H :    0.096256
  10 H :    0.114530
  11 H :    0.090193

  Mayer bond orders larger than 0.1
B(  6-C ,  7-O ) :   0.9958 B(  6-C ,  9-H ) :   0.9732 B(  6-C , 10-H ) :   0.9766
B(  6-C , 11-H ) :   0.9822 B(  7-O ,  8-H ) :   0.9170

Dispersion correction           -0.000210111
FINAL SINGLE POINT ENERGY      -115.732398254810

DIPOLE MOMENT
-------------
                                X             Y             Z
Electronic contribution:      0.26276       0.81950      -1.52576
Nuclear contribution   :      0.23035      -1.09928       1.87798
                        -----------------------------------------
Total Dipole Moment    :      0.49310      -0.27977       0.35223
                        -----------------------------------------
Magnitude (a.u.)       :      0.66745
Magnitude (Debye)      :      1.69652

Rotational constants in cm-1:     4.286358     0.866738     0.843340
Rotational constants in MHz : 128501.772528 25984.163236 25282.693952

                             ****ORCA TERMINATED NORMALLY****
TOTAL RUN TIME: 0 days 0 hours 1 minutes 9 seconds 395 msec
