                         Program Version 4.1.2  - RELEASE  -
|  1> #Run DFT-D3 single point of the dimer
|  2> ! wB97X-D3 def2-TZVP TIGHTSCF CHELPG PMODEL PAL8
|  3>
|  4> %base "14-29_DFT_AB"
|  5>
|  6> %scf
|  7> MaxIter 1000
|  8> end
|  9>
| 10> * xyz 0 1
| 11>   C                      -0.612086            2.931693             -2.166030
| 12>   O                      -1.917891            3.394526             -2.096503
| 13>   H                      -2.283379            3.362468             -1.200627
| 14>   H                      -0.456620            1.838111             -2.061463
| 15>   H                      -0.083063            3.269453             -3.069938
| 16>   H                      -0.006313            3.238354             -1.311755
| 17>   C                      0.024962             3.279338             2.219928
| 18>   O                      0.698008             2.095826             1.788715
| 19>   H                      0.289781             1.322125             2.213121
| 20>   H                      0.363567             4.220912             1.740841
| 21>   H                      -1.016811            3.237245             1.928872
| 22>   H                      0.064650             3.499238             3.329107
| 23> *
| 24>
| 25> #Run DFT-D3 single point of the molecule with dimer basis set
| 26> $new_job
| 27> %base "14-29_DFT_A"
| 28> ! wB97X-D3 def2-TZVP TIGHTSCF CHELPG PMODEL
| 29>
| 30> %scf
| 31> MaxIter 1000
| 32> end
| 33>
| 34> * xyz 0 1
| 35>   C                      -0.612086            2.931693             -2.166030
| 36>   O                      -1.917891            3.394526             -2.096503
| 37>   H                      -2.283379            3.362468             -1.200627
| 38>   H                      -0.456620            1.838111             -2.061463
| 39>   H                      -0.083063            3.269453             -3.069938
| 40>   H                      -0.006313            3.238354             -1.311755
| 41>   C                    : 0.024962             3.279338             2.219928
| 42>   O                    : 0.698008             2.095826             1.788715
| 43>   H                    : 0.289781             1.322125             2.213121
| 44>   H                    : 0.363567             4.220912             1.740841
| 45>   H                    : -1.016811            3.237245             1.928872
| 46>   H                    : 0.064650             3.499238             3.329107
| 47> *
| 48>
| 49> #Run DFT-D3 single point of the particle with dimer basis set
| 50> $new_job
| 51> %base "14-29_DFT_B"
| 52> ! wB97X-D3 def2-TZVP TIGHTSCF CHELPG PMODEL
| 53>
| 54> %scf
| 55> MaxIter 1000
| 56> end
| 57>
| 58> * xyz 0 1
| 59>   C                    : -0.612086            2.931693             -2.166030
| 60>   O                    : -1.917891            3.394526             -2.096503
| 61>   H                    : -2.283379            3.362468             -1.200627
| 62>   H                    : -0.456620            1.838111             -2.061463
| 63>   H                    : -0.083063            3.269453             -3.069938
| 64>   H                    : -0.006313            3.238354             -1.311755
| 65>   C                      0.024962             3.279338             2.219928
| 66>   O                      0.698008             2.095826             1.788715
| 67>   H                      0.289781             1.322125             2.213121
| 68>   H                      0.363567             4.220912             1.740841
| 69>   H                      -1.016811            3.237245             1.928872
| 70>   H                      0.064650             3.499238             3.329107
| 71> *
| 72>
| 73>                          ****END OF INPUT****
 Total Charge           Charge          ....    0
 Multiplicity           Mult            ....    1
 Number of Electrons    NEL             ....   36
Dispersion correction           -0.001397643
FINAL SINGLE POINT ENERGY      -231.465858542430
Dispersion correction           -0.000258881
FINAL SINGLE POINT ENERGY      -115.732100885171

CARTESIAN COORDINATES (ANGSTROEM)
---------------------------------
  C     -0.612086    2.931693   -2.166030
  O     -1.917891    3.394526   -2.096503
  H     -2.283379    3.362468   -1.200627
  H     -0.456620    1.838111   -2.061463
  H     -0.083063    3.269453   -3.069938
  H     -0.006313    3.238354   -1.311755
  C      0.024962    3.279338    2.219928
  O      0.698008    2.095826    1.788715
  H      0.289781    1.322125    2.213121
  H      0.363567    4.220912    1.740841
  H     -1.016811    3.237245    1.928872
  H      0.064650    3.499238    3.329107

 Multiplicity           Mult            ....    1
 Number of Electrons    NEL             ....   18
 Basis Dimension        Dim             ....  172

ORBITAL ENERGIES
----------------

  NO   OCC          E(Eh)            E(eV)
   0   2.0000     -19.234820      -523.4061
   1   2.0000     -10.318988      -280.7939
   2   2.0000      -1.130432       -30.7606
   3   2.0000      -0.794858       -21.6292
   4   2.0000      -0.607588       -16.5333
   5   2.0000      -0.536925       -14.6105
   6   2.0000      -0.526548       -14.3281
   7   2.0000      -0.428991       -11.6734
   8   2.0000      -0.375728       -10.2241
   9   0.0000       0.088181         2.3995
  10   0.0000       0.121437         3.3045
  11   0.0000       0.143432         3.9030
  12   0.0000       0.167330         4.5533
  13   0.0000       0.193692         5.2706

MULLIKEN ATOMIC CHARGES
-----------------------
   0 C :   -0.000603
   1 O :   -0.000048
   2 H :   -0.000037
   3 H :   -0.000511
   4 H :   -0.000081
   5 H :    0.000180
   6 C :   -0.179111
   7 O :   -0.479443
   8 H :    0.319691
   9 H :    0.120882
  10 H :    0.110852
  11 H :    0.108229
Sum of atomic charges:   -0.0000000

LOEWDIN ATOMIC CHARGES
----------------------
   0 C :   -0.001013
   1 O :   -0.000029
   2 H :   -0.000261
   3 H :   -0.000300
   4 H :   -0.000012
   5 H :   -0.001007
   6 C :   -0.389673
   7 O :   -0.090486
   8 H :    0.177130
   9 H :    0.111793
  10 H :    0.092752
  11 H :    0.101105

  Mayer bond orders larger than 0.1
B(  6-C ,  7-O ) :   0.9892 B(  6-C ,  9-H ) :   0.9725 B(  6-C , 10-H ) :   0.9810
B(  6-C , 11-H ) :   0.9682 B(  7-O ,  8-H ) :   0.8931

Dispersion correction           -0.000271957
FINAL SINGLE POINT ENERGY      -115.732526779078

DIPOLE MOMENT
-------------
                                X             Y             Z
Electronic contribution:      1.04201      -1.52413      -0.65100
Nuclear contribution   :     -1.58292       1.52214       1.07712
                        -----------------------------------------
Total Dipole Moment    :     -0.54091      -0.00199       0.42612
                        -----------------------------------------
Magnitude (a.u.)       :      0.68860
Magnitude (Debye)      :      1.75027

Rotational constants in cm-1:     4.366949     0.798599     0.774464
Rotational constants in MHz : 130917.825631 23941.391277 23217.837903

                             ****ORCA TERMINATED NORMALLY****
TOTAL RUN TIME: 0 days 0 hours 1 minutes 10 seconds 3 msec
