                         Program Version 4.1.2  - RELEASE  -
|  1> #Run DFT-D3 single point of the dimer
|  2> ! wB97X-D3 def2-TZVP TIGHTSCF CHELPG PMODEL PAL8
|  3>
|  4> %base "18-98_DFT_AB"
|  5>
|  6> %scf
|  7> MaxIter 1000
|  8> end
|  9>
| 10> * xyz 0 1
| 11>   C                      6.430916             -8.552411            -1.489255
| 12>   O                      6.868516             -9.819716            -2.040261
| 13>   H                      7.680427             -9.616635            -2.544591
| 14>   H                      5.535664             -8.670275            -0.881404
| 15>   H                      7.250177             -8.131062            -0.814206
| 16>   H                      6.147152             -7.774020            -2.250141
| 17>   C                      11.098959            -7.703216            -1.921460
| 18>   O                      10.066868            -8.643015            -2.114216
| 19>   H                      10.044160            -9.219711            -1.325103
| 20>   H                      11.976949            -7.968991            -2.469424
| 21>   H                      10.891725            -6.642505            -2.301589
| 22>   H                      11.443192            -7.712093            -0.863609
| 23> *
| 24>
| 25> #Run DFT-D3 single point of the molecule with dimer basis set
| 26> $new_job
| 27> %base "18-98_DFT_A"
| 28> ! wB97X-D3 def2-TZVP TIGHTSCF CHELPG PMODEL
| 29>
| 30> %scf
| 31> MaxIter 1000
| 32> end
| 33>
| 34> * xyz 0 1
| 35>   C                      6.430916             -8.552411            -1.489255
| 36>   O                      6.868516             -9.819716            -2.040261
| 37>   H                      7.680427             -9.616635            -2.544591
| 38>   H                      5.535664             -8.670275            -0.881404
| 39>   H                      7.250177             -8.131062            -0.814206
| 40>   H                      6.147152             -7.774020            -2.250141
| 41>   C                    : 11.098959            -7.703216            -1.921460
| 42>   O                    : 10.066868            -8.643015            -2.114216
| 43>   H                    : 10.044160            -9.219711            -1.325103
| 44>   H                    : 11.976949            -7.968991            -2.469424
| 45>   H                    : 10.891725            -6.642505            -2.301589
| 46>   H                    : 11.443192            -7.712093            -0.863609
| 47> *
| 48>
| 49> #Run DFT-D3 single point of the particle with dimer basis set
| 50> $new_job
| 51> %base "18-98_DFT_B"
| 52> ! wB97X-D3 def2-TZVP TIGHTSCF CHELPG PMODEL
| 53>
| 54> %scf
| 55> MaxIter 1000
| 56> end
| 57>
| 58> * xyz 0 1
| 59>   C                    : 6.430916             -8.552411            -1.489255
| 60>   O                    : 6.868516             -9.819716            -2.040261
| 61>   H                    : 7.680427             -9.616635            -2.544591
| 62>   H                    : 5.535664             -8.670275            -0.881404
| 63>   H                    : 7.250177             -8.131062            -0.814206
| 64>   H                    : 6.147152             -7.774020            -2.250141
| 65>   C                      11.098959            -7.703216            -1.921460
| 66>   O                      10.066868            -8.643015            -2.114216
| 67>   H                      10.044160            -9.219711            -1.325103
| 68>   H                      11.976949            -7.968991            -2.469424
| 69>   H                      10.891725            -6.642505            -2.301589
| 70>   H                      11.443192            -7.712093            -0.863609
| 71> *
| 72>
| 73>                          ****END OF INPUT****
 Total Charge           Charge          ....    0
 Multiplicity           Mult            ....    1
 Number of Electrons    NEL             ....   36
Dispersion correction           -0.001635431
FINAL SINGLE POINT ENERGY      -231.468761931115
Dispersion correction           -0.000270722
FINAL SINGLE POINT ENERGY      -115.733473124271

CARTESIAN COORDINATES (ANGSTROEM)
---------------------------------
  C      6.430916   -8.552411   -1.489255
  O      6.868516   -9.819716   -2.040261
  H      7.680427   -9.616635   -2.544591
  H      5.535664   -8.670275   -0.881404
  H      7.250177   -8.131062   -0.814206
  H      6.147152   -7.774020   -2.250141
  C     11.098959   -7.703216   -1.921460
  O     10.066868   -8.643015   -2.114216
  H     10.044160   -9.219711   -1.325103
  H     11.976949   -7.968991   -2.469424
  H     10.891725   -6.642505   -2.301589
  H     11.443192   -7.712093   -0.863609

 Multiplicity           Mult            ....    1
 Number of Electrons    NEL             ....   18
 Basis Dimension        Dim             ....  172

ORBITAL ENERGIES
----------------

  NO   OCC          E(Eh)            E(eV)
   0   2.0000     -19.235186      -523.4160
   1   2.0000     -10.317860      -280.7633
   2   2.0000      -1.136937       -30.9376
   3   2.0000      -0.792285       -21.5592
   4   2.0000      -0.612973       -16.6798
   5   2.0000      -0.537102       -14.6153
   6   2.0000      -0.528524       -14.3819
   7   2.0000      -0.434128       -11.8132
   8   2.0000      -0.371206       -10.1010
   9   0.0000       0.091450         2.4885
  10   0.0000       0.120921         3.2904
  11   0.0000       0.148097         4.0299
  12   0.0000       0.185882         5.0581
  13   0.0000       0.192670         5.2428

MULLIKEN ATOMIC CHARGES
-----------------------
   0 C :    0.003426
   1 O :    0.000254
   2 H :   -0.004514
   3 H :   -0.000391
   4 H :   -0.007616
   5 H :   -0.000534
   6 C :   -0.177693
   7 O :   -0.459334
   8 H :    0.322781
   9 H :    0.108788
  10 H :    0.112850
  11 H :    0.101981
Sum of atomic charges:    0.0000000

LOEWDIN ATOMIC CHARGES
----------------------
   0 C :   -0.004194
   1 O :   -0.000712
   2 H :   -0.008484
   3 H :   -0.000060
   4 H :   -0.003571
   5 H :   -0.000121
   6 C :   -0.400532
   7 O :   -0.069486
   8 H :    0.184580
   9 H :    0.089745
  10 H :    0.112951
  11 H :    0.099885

  Mayer bond orders larger than 0.1
B(  6-C ,  7-O ) :   1.0073 B(  6-C ,  9-H ) :   0.9731 B(  6-C , 10-H ) :   0.9727
B(  6-C , 11-H ) :   0.9851 B(  7-O ,  8-H ) :   0.8919

Dispersion correction           -0.000254447
FINAL SINGLE POINT ENERGY      -115.730248334514

DIPOLE MOMENT
-------------
                                X             Y             Z
Electronic contribution:     -1.46815      -1.17817      -0.38026
Nuclear contribution   :      1.89363       1.15531       0.95492
                        -----------------------------------------
Total Dipole Moment    :      0.42549      -0.02287       0.57466
                        -----------------------------------------
Magnitude (a.u.)       :      0.71540
Magnitude (Debye)      :      1.81839

Rotational constants in cm-1:     4.275606     0.831982     0.787917
Rotational constants in MHz : 128179.440944 24942.204417 23621.154332

                             ****ORCA TERMINATED NORMALLY****
TOTAL RUN TIME: 0 days 0 hours 0 minutes 47 seconds 286 msec
