                         Program Version 4.1.2  - RELEASE  -
|  1> #Run DFT-D3 single point of the dimer
|  2> ! wB97X-D3 def2-TZVP TIGHTSCF CHELPG PMODEL PAL8
|  3>
|  4> %base "12-210_DFT_AB"
|  5>
|  6> %scf
|  7> MaxIter 1000
|  8> end
|  9>
| 10> * xyz 0 1
| 11>   C                      -10.666023           -9.510281            -6.715678
| 12>   O                      -11.577661           -8.609517            -6.088881
| 13>   H                      -12.088761           -8.380151            -6.917499
| 14>   H                      -10.227746           -10.240173           -5.976756
| 15>   H                      -11.071646           -10.023664           -7.567286
| 16>   H                      -9.766995            -8.937602            -6.976366
| 17>   C                      -9.522491            -5.988262            -4.198713
| 18>   O                      -10.164935           -6.317978            -5.379145
| 19>   H                      -10.451616           -7.256169            -5.300307
| 20>   H                      -9.353840            -4.933357            -4.025562
| 21>   H                      -10.020528           -6.543591            -3.336253
| 22>   H                      -8.547244            -6.355437            -4.102323
| 23> *
| 24>
| 25> #Run DFT-D3 single point of the molecule with dimer basis set
| 26> $new_job
| 27> %base "12-210_DFT_A"
| 28> ! wB97X-D3 def2-TZVP TIGHTSCF CHELPG PMODEL
| 29>
| 30> %scf
| 31> MaxIter 1000
| 32> end
| 33>
| 34> * xyz 0 1
| 35>   C                      -10.666023           -9.510281            -6.715678
| 36>   O                      -11.577661           -8.609517            -6.088881
| 37>   H                      -12.088761           -8.380151            -6.917499
| 38>   H                      -10.227746           -10.240173           -5.976756
| 39>   H                      -11.071646           -10.023664           -7.567286
| 40>   H                      -9.766995            -8.937602            -6.976366
| 41>   C                    : -9.522491            -5.988262            -4.198713
| 42>   O                    : -10.164935           -6.317978            -5.379145
| 43>   H                    : -10.451616           -7.256169            -5.300307
| 44>   H                    : -9.353840            -4.933357            -4.025562
| 45>   H                    : -10.020528           -6.543591            -3.336253
| 46>   H                    : -8.547244            -6.355437            -4.102323
| 47> *
| 48>
| 49> #Run DFT-D3 single point of the particle with dimer basis set
| 50> $new_job
| 51> %base "12-210_DFT_B"
| 52> ! wB97X-D3 def2-TZVP TIGHTSCF CHELPG PMODEL
| 53>
| 54> %scf
| 55> MaxIter 1000
| 56> end
| 57>
| 58> * xyz 0 1
| 59>   C                    : -10.666023           -9.510281            -6.715678
| 60>   O                    : -11.577661           -8.609517            -6.088881
| 61>   H                    : -12.088761           -8.380151            -6.917499
| 62>   H                    : -10.227746           -10.240173           -5.976756
| 63>   H                    : -11.071646           -10.023664           -7.567286
| 64>   H                    : -9.766995            -8.937602            -6.976366
| 65>   C                      -9.522491            -5.988262            -4.198713
| 66>   O                      -10.164935           -6.317978            -5.379145
| 67>   H                      -10.451616           -7.256169            -5.300307
| 68>   H                      -9.353840            -4.933357            -4.025562
| 69>   H                      -10.020528           -6.543591            -3.336253
| 70>   H                      -8.547244            -6.355437            -4.102323
| 71> *
| 72>
| 73>                          ****END OF INPUT****
 Total Charge           Charge          ....    0
 Multiplicity           Mult            ....    1
 Number of Electrons    NEL             ....   36
Dispersion correction           -0.001659313
FINAL SINGLE POINT ENERGY      -231.461244858139
Dispersion correction           -0.000227683
FINAL SINGLE POINT ENERGY      -115.727736168143

CARTESIAN COORDINATES (ANGSTROEM)
---------------------------------
  C    -10.666023   -9.510281   -6.715678
  O    -11.577661   -8.609517   -6.088881
  H    -12.088761   -8.380151   -6.917499
  H    -10.227746  -10.240173   -5.976756
  H    -11.071646  -10.023664   -7.567286
  H     -9.766995   -8.937602   -6.976366
  C     -9.522491   -5.988262   -4.198713
  O    -10.164935   -6.317978   -5.379145
  H    -10.451616   -7.256169   -5.300307
  H     -9.353840   -4.933357   -4.025562
  H    -10.020528   -6.543591   -3.336253
  H     -8.547244   -6.355437   -4.102323

 Multiplicity           Mult            ....    1
 Number of Electrons    NEL             ....   18
 Basis Dimension        Dim             ....  172

ORBITAL ENERGIES
----------------

  NO   OCC          E(Eh)            E(eV)
   0   2.0000     -19.235570      -523.4265
   1   2.0000     -10.309445      -280.5343
   2   2.0000      -1.143870       -31.1263
   3   2.0000      -0.796662       -21.6783
   4   2.0000      -0.619149       -16.8479
   5   2.0000      -0.546011       -14.8577
   6   2.0000      -0.528913       -14.3924
   7   2.0000      -0.435788       -11.8584
   8   2.0000      -0.367427        -9.9982
   9   0.0000       0.073099         1.9891
  10   0.0000       0.128679         3.5015
  11   0.0000       0.153713         4.1828
  12   0.0000       0.171121         4.6564
  13   0.0000       0.189391         5.1536

MULLIKEN ATOMIC CHARGES
-----------------------
   0 C :   -0.001155
   1 O :    0.000260
   2 H :   -0.000327
   3 H :    0.000212
   4 H :   -0.000363
   5 H :   -0.003505
   6 C :   -0.164167
   7 O :   -0.457132
   8 H :    0.317797
   9 H :    0.120847
  10 H :    0.087498
  11 H :    0.100036
Sum of atomic charges:    0.0000000

LOEWDIN ATOMIC CHARGES
----------------------
   0 C :   -0.007692
   1 O :   -0.019471
   2 H :   -0.001350
   3 H :   -0.000196
   4 H :   -0.000151
   5 H :   -0.003050
   6 C :   -0.413222
   7 O :   -0.048570
   8 H :    0.202388
   9 H :    0.106385
  10 H :    0.102841
  11 H :    0.082090

  Mayer bond orders larger than 0.1
B(  6-C ,  7-O ) :   1.0093 B(  6-C ,  9-H ) :   0.9724 B(  6-C , 10-H ) :   0.9946
B(  6-C , 11-H ) :   0.9693 B(  7-O ,  8-H ) :   0.8936

Dispersion correction           -0.000229287
FINAL SINGLE POINT ENERGY      -115.726565810964

DIPOLE MOMENT
-------------
                                X             Y             Z
Electronic contribution:     -0.86313      -0.14140      -1.74169
Nuclear contribution   :      0.96686      -0.31535       2.22805
                        -----------------------------------------
Total Dipole Moment    :      0.10373      -0.45675       0.48636
                        -----------------------------------------
Magnitude (a.u.)       :      0.67522
Magnitude (Debye)      :      1.71628

Rotational constants in cm-1:     4.398686     0.863761     0.809978
Rotational constants in MHz : 131869.278844 25894.893927 24282.525033

                             ****ORCA TERMINATED NORMALLY****
TOTAL RUN TIME: 0 days 0 hours 1 minutes 14 seconds 651 msec
