                         Program Version 4.1.2  - RELEASE  -
|  1> #Run DFT-D3 single point of the dimer
|  2> ! wB97X-D3 def2-TZVP TIGHTSCF CHELPG PMODEL PAL8
|  3>
|  4> %base "3-134_DFT_AB"
|  5>
|  6> %scf
|  7> MaxIter 1000
|  8> end
|  9>
| 10> * xyz 0 1
| 11>   C                      -7.916342            -6.777899            -3.497241
| 12>   O                      -8.592063            -7.645050            -2.610539
| 13>   H                      -8.289805            -7.563570            -1.732779
| 14>   H                      -6.857783            -7.080269            -3.642114
| 15>   H                      -8.305381            -6.748343            -4.490312
| 16>   H                      -8.036397            -5.738256            -3.130291
| 17>   C                      -4.097627            -10.847332           -4.777441
| 18>   O                      -5.100593            -10.002243           -4.339253
| 19>   H                      -5.156227            -10.011735           -3.378805
| 20>   H                      -3.200352            -10.727107           -4.173279
| 21>   H                      -4.469498            -11.846992           -4.719496
| 22>   H                      -3.941931            -10.717463           -5.809068
| 23> *
| 24>
| 25> #Run DFT-D3 single point of the molecule with dimer basis set
| 26> $new_job
| 27> %base "3-134_DFT_A"
| 28> ! wB97X-D3 def2-TZVP TIGHTSCF CHELPG PMODEL
| 29>
| 30> %scf
| 31> MaxIter 1000
| 32> end
| 33>
| 34> * xyz 0 1
| 35>   C                      -7.916342            -6.777899            -3.497241
| 36>   O                      -8.592063            -7.645050            -2.610539
| 37>   H                      -8.289805            -7.563570            -1.732779
| 38>   H                      -6.857783            -7.080269            -3.642114
| 39>   H                      -8.305381            -6.748343            -4.490312
| 40>   H                      -8.036397            -5.738256            -3.130291
| 41>   C                    : -4.097627            -10.847332           -4.777441
| 42>   O                    : -5.100593            -10.002243           -4.339253
| 43>   H                    : -5.156227            -10.011735           -3.378805
| 44>   H                    : -3.200352            -10.727107           -4.173279
| 45>   H                    : -4.469498            -11.846992           -4.719496
| 46>   H                    : -3.941931            -10.717463           -5.809068
| 47> *
| 48>
| 49> #Run DFT-D3 single point of the particle with dimer basis set
| 50> $new_job
| 51> %base "3-134_DFT_B"
| 52> ! wB97X-D3 def2-TZVP TIGHTSCF CHELPG PMODEL
| 53>
| 54> %scf
| 55> MaxIter 1000
| 56> end
| 57>
| 58> * xyz 0 1
| 59>   C                    : -7.916342            -6.777899            -3.497241
| 60>   O                    : -8.592063            -7.645050            -2.610539
| 61>   H                    : -8.289805            -7.563570            -1.732779
| 62>   H                    : -6.857783            -7.080269            -3.642114
| 63>   H                    : -8.305381            -6.748343            -4.490312
| 64>   H                    : -8.036397            -5.738256            -3.130291
| 65>   C                      -4.097627            -10.847332           -4.777441
| 66>   O                      -5.100593            -10.002243           -4.339253
| 67>   H                      -5.156227            -10.011735           -3.378805
| 68>   H                      -3.200352            -10.727107           -4.173279
| 69>   H                      -4.469498            -11.846992           -4.719496
| 70>   H                      -3.941931            -10.717463           -5.809068
| 71> *
| 72>
| 73>                          ****END OF INPUT****
 Total Charge           Charge          ....    0
 Multiplicity           Mult            ....    1
 Number of Electrons    NEL             ....   36
Dispersion correction           -0.000868584
FINAL SINGLE POINT ENERGY      -231.465369301189
Dispersion correction           -0.000249556
FINAL SINGLE POINT ENERGY      -115.732344961893

CARTESIAN COORDINATES (ANGSTROEM)
---------------------------------
  C     -7.916342   -6.777899   -3.497241
  O     -8.592063   -7.645050   -2.610539
  H     -8.289805   -7.563570   -1.732779
  H     -6.857783   -7.080269   -3.642114
  H     -8.305381   -6.748343   -4.490312
  H     -8.036397   -5.738256   -3.130291
  C     -4.097627  -10.847332   -4.777441
  O     -5.100593  -10.002243   -4.339253
  H     -5.156227  -10.011735   -3.378805
  H     -3.200352  -10.727107   -4.173279
  H     -4.469498  -11.846992   -4.719496
  H     -3.941931  -10.717463   -5.809068

 Multiplicity           Mult            ....    1
 Number of Electrons    NEL             ....   18
 Basis Dimension        Dim             ....  172

ORBITAL ENERGIES
----------------

  NO   OCC          E(Eh)            E(eV)
   0   2.0000     -19.224895      -523.1360
   1   2.0000     -10.301678      -280.3229
   2   2.0000      -1.142278       -31.0830
   3   2.0000      -0.800279       -21.7767
   4   2.0000      -0.614103       -16.7106
   5   2.0000      -0.551671       -15.0117
   6   2.0000      -0.536558       -14.6005
   7   2.0000      -0.429552       -11.6887
   8   2.0000      -0.367758       -10.0072
   9   0.0000       0.089628         2.4389
  10   0.0000       0.119667         3.2563
  11   0.0000       0.159459         4.3391
  12   0.0000       0.168090         4.5740
  13   0.0000       0.203555         5.5390

MULLIKEN ATOMIC CHARGES
-----------------------
   0 C :    0.000898
   1 O :    0.000023
   2 H :   -0.000006
   3 H :   -0.003406
   4 H :   -0.000031
   5 H :   -0.000077
   6 C :   -0.146420
   7 O :   -0.476818
   8 H :    0.315389
   9 H :    0.097526
  10 H :    0.095990
  11 H :    0.116931
Sum of atomic charges:    0.0000000

LOEWDIN ATOMIC CHARGES
----------------------
   0 C :   -0.000548
   1 O :   -0.000014
   2 H :   -0.000006
   3 H :   -0.001463
   4 H :   -0.000014
   5 H :   -0.000011
   6 C :   -0.395803
   7 O :   -0.058906
   8 H :    0.170991
   9 H :    0.095051
  10 H :    0.090583
  11 H :    0.100142

  Mayer bond orders larger than 0.1
B(  6-C ,  7-O ) :   0.9977 B(  6-C ,  9-H ) :   0.9824 B(  6-C , 10-H ) :   0.9831
B(  6-C , 11-H ) :   0.9739 B(  7-O ,  8-H ) :   0.8966

Dispersion correction           -0.000211800
FINAL SINGLE POINT ENERGY      -115.732612645519

DIPOLE MOMENT
-------------
                                X             Y             Z
Electronic contribution:     -1.20541       1.15844       0.40170
Nuclear contribution   :      1.56249      -1.50673       0.02570
                        -----------------------------------------
Total Dipole Moment    :      0.35707      -0.34829       0.42740
                        -----------------------------------------
Magnitude (a.u.)       :      0.65687
Magnitude (Debye)      :      1.66963

Rotational constants in cm-1:     4.427376     0.872553     0.836998
Rotational constants in MHz : 132729.407034 26158.468640 25092.578348

                             ****ORCA TERMINATED NORMALLY****
TOTAL RUN TIME: 0 days 0 hours 5 minutes 51 seconds 323 msec
