                         Program Version 4.1.2  - RELEASE  -
|  1> #Run DFT-D3 single point of the dimer
|  2> ! wB97X-D3 def2-TZVP TIGHTSCF CHELPG PMODEL PAL8
|  3>
|  4> %base "10-86_DFT_AB"
|  5>
|  6> %scf
|  7> MaxIter 1000
|  8> end
|  9>
| 10> * xyz 0 1
| 11>   C                      0.325050             3.682876             4.670970
| 12>   O                      -0.846528            4.166738             4.035653
| 13>   H                      -1.548622            4.059657             4.702336
| 14>   H                      0.917244             3.089913             4.008710
| 15>   H                      1.078371             4.362851             4.962118
| 16>   H                      0.047949             3.124406             5.575140
| 17>   C                      -3.238889            4.918494             7.898113
| 18>   O                      -4.165077            3.808282             7.721132
| 19>   H                      -4.247115            3.385438             8.589834
| 20>   H                      -3.174638            5.307419             8.953087
| 21>   H                      -2.318098            4.611922             7.595619
| 22>   H                      -3.522041            5.704634             7.272271
| 23> *
| 24>
| 25> #Run DFT-D3 single point of the molecule with dimer basis set
| 26> $new_job
| 27> %base "10-86_DFT_A"
| 28> ! wB97X-D3 def2-TZVP TIGHTSCF CHELPG PMODEL
| 29>
| 30> %scf
| 31> MaxIter 1000
| 32> end
| 33>
| 34> * xyz 0 1
| 35>   C                      0.325050             3.682876             4.670970
| 36>   O                      -0.846528            4.166738             4.035653
| 37>   H                      -1.548622            4.059657             4.702336
| 38>   H                      0.917244             3.089913             4.008710
| 39>   H                      1.078371             4.362851             4.962118
| 40>   H                      0.047949             3.124406             5.575140
| 41>   C                    : -3.238889            4.918494             7.898113
| 42>   O                    : -4.165077            3.808282             7.721132
| 43>   H                    : -4.247115            3.385438             8.589834
| 44>   H                    : -3.174638            5.307419             8.953087
| 45>   H                    : -2.318098            4.611922             7.595619
| 46>   H                    : -3.522041            5.704634             7.272271
| 47> *
| 48>
| 49> #Run DFT-D3 single point of the particle with dimer basis set
| 50> $new_job
| 51> %base "10-86_DFT_B"
| 52> ! wB97X-D3 def2-TZVP TIGHTSCF CHELPG PMODEL
| 53>
| 54> %scf
| 55> MaxIter 1000
| 56> end
| 57>
| 58> * xyz 0 1
| 59>   C                    : 0.325050             3.682876             4.670970
| 60>   O                    : -0.846528            4.166738             4.035653
| 61>   H                    : -1.548622            4.059657             4.702336
| 62>   H                    : 0.917244             3.089913             4.008710
| 63>   H                    : 1.078371             4.362851             4.962118
| 64>   H                    : 0.047949             3.124406             5.575140
| 65>   C                      -3.238889            4.918494             7.898113
| 66>   O                      -4.165077            3.808282             7.721132
| 67>   H                      -4.247115            3.385438             8.589834
| 68>   H                      -3.174638            5.307419             8.953087
| 69>   H                      -2.318098            4.611922             7.595619
| 70>   H                      -3.522041            5.704634             7.272271
| 71> *
| 72>
| 73>                          ****END OF INPUT****
 Total Charge           Charge          ....    0
 Multiplicity           Mult            ....    1
 Number of Electrons    NEL             ....   36
Dispersion correction           -0.001079015
FINAL SINGLE POINT ENERGY      -231.458130514208
Dispersion correction           -0.000247701
FINAL SINGLE POINT ENERGY      -115.728511525735

CARTESIAN COORDINATES (ANGSTROEM)
---------------------------------
  C      0.325050    3.682876    4.670970
  O     -0.846528    4.166738    4.035653
  H     -1.548622    4.059657    4.702336
  H      0.917244    3.089913    4.008710
  H      1.078371    4.362851    4.962118
  H      0.047949    3.124406    5.575140
  C     -3.238889    4.918494    7.898113
  O     -4.165077    3.808282    7.721132
  H     -4.247115    3.385438    8.589834
  H     -3.174638    5.307419    8.953087
  H     -2.318098    4.611922    7.595619
  H     -3.522041    5.704634    7.272271

 Multiplicity           Mult            ....    1
 Number of Electrons    NEL             ....   18
 Basis Dimension        Dim             ....  172

ORBITAL ENERGIES
----------------

  NO   OCC          E(Eh)            E(eV)
   0   2.0000     -19.228804      -523.2424
   1   2.0000     -10.305239      -280.4198
   2   2.0000      -1.121167       -30.5085
   3   2.0000      -0.804759       -21.8986
   4   2.0000      -0.599431       -16.3113
   5   2.0000      -0.546440       -14.8694
   6   2.0000      -0.523954       -14.2575
   7   2.0000      -0.439507       -11.9596
   8   2.0000      -0.374794       -10.1987
   9   0.0000       0.088135         2.3983
  10   0.0000       0.115928         3.1546
  11   0.0000       0.152564         4.1515
  12   0.0000       0.171526         4.6675
  13   0.0000       0.183329         4.9886

MULLIKEN ATOMIC CHARGES
-----------------------
   0 C :   -0.000527
   1 O :   -0.000090
   2 H :    0.000769
   3 H :    0.000014
   4 H :    0.000037
   5 H :    0.000263
   6 C :   -0.175103
   7 O :   -0.483931
   8 H :    0.314362
   9 H :    0.107279
  10 H :    0.115495
  11 H :    0.121433
Sum of atomic charges:   -0.0000000

LOEWDIN ATOMIC CHARGES
----------------------
   0 C :   -0.000314
   1 O :   -0.000023
   2 H :   -0.000321
   3 H :   -0.000003
   4 H :   -0.000007
   5 H :   -0.000142
   6 C :   -0.340201
   7 O :   -0.111576
   8 H :    0.171131
   9 H :    0.105812
  10 H :    0.079673
  11 H :    0.095972

  Mayer bond orders larger than 0.1
B(  6-C ,  7-O ) :   0.9997 B(  6-C ,  9-H ) :   0.9804 B(  6-C , 10-H ) :   0.9785
B(  6-C , 11-H ) :   0.9778 B(  7-O ,  8-H ) :   0.9024

Dispersion correction           -0.000248258
FINAL SINGLE POINT ENERGY      -115.728604141319

DIPOLE MOMENT
-------------
                                X             Y             Z
Electronic contribution:     -1.12662      -1.31633      -0.39410
Nuclear contribution   :      1.47752       1.52735       1.00109
                        -----------------------------------------
Total Dipole Moment    :      0.35090       0.21103       0.60699
                        -----------------------------------------
Magnitude (a.u.)       :      0.73219
Magnitude (Debye)      :      1.86108

Rotational constants in cm-1:     4.447383     0.803415     0.767406
Rotational constants in MHz : 133329.197774 24085.770315 23006.261859

                             ****ORCA TERMINATED NORMALLY****
TOTAL RUN TIME: 0 days 0 hours 0 minutes 59 seconds 492 msec
