                         Program Version 4.1.2  - RELEASE  -
|  1> #Run DFT-D3 single point of the dimer
|  2> ! wB97X-D3 def2-TZVP TIGHTSCF CHELPG PMODEL PAL8
|  3>
|  4> %base "20-3_DFT_AB"
|  5>
|  6> %scf
|  7> MaxIter 1000
|  8> end
|  9>
| 10> * xyz 0 1
| 11>   C                      -4.029221            8.344015             5.610913
| 12>   O                      -2.999871            7.977746             4.667712
| 13>   H                      -3.310125            8.320182             3.789893
| 14>   H                      -3.622109            8.473960             6.626864
| 15>   H                      -4.597087            9.250479             5.314208
| 16>   H                      -4.851451            7.575020             5.727861
| 17>   C                      -0.241667            8.855129             6.504955
| 18>   O                      0.003160             8.985826             5.138943
| 19>   H                      -0.815138            9.115915             4.700429
| 20>   H                      -1.161225            8.348675             6.738335
| 21>   H                      0.546254             8.269358             7.009560
| 22>   H                      -0.221386            9.829478             6.973121
| 23> *
| 24>
| 25> #Run DFT-D3 single point of the molecule with dimer basis set
| 26> $new_job
| 27> %base "20-3_DFT_A"
| 28> ! wB97X-D3 def2-TZVP TIGHTSCF CHELPG PMODEL
| 29>
| 30> %scf
| 31> MaxIter 1000
| 32> end
| 33>
| 34> * xyz 0 1
| 35>   C                      -4.029221            8.344015             5.610913
| 36>   O                      -2.999871            7.977746             4.667712
| 37>   H                      -3.310125            8.320182             3.789893
| 38>   H                      -3.622109            8.473960             6.626864
| 39>   H                      -4.597087            9.250479             5.314208
| 40>   H                      -4.851451            7.575020             5.727861
| 41>   C                    : -0.241667            8.855129             6.504955
| 42>   O                    : 0.003160             8.985826             5.138943
| 43>   H                    : -0.815138            9.115915             4.700429
| 44>   H                    : -1.161225            8.348675             6.738335
| 45>   H                    : 0.546254             8.269358             7.009560
| 46>   H                    : -0.221386            9.829478             6.973121
| 47> *
| 48>
| 49> #Run DFT-D3 single point of the particle with dimer basis set
| 50> $new_job
| 51> %base "20-3_DFT_B"
| 52> ! wB97X-D3 def2-TZVP TIGHTSCF CHELPG PMODEL
| 53>
| 54> %scf
| 55> MaxIter 1000
| 56> end
| 57>
| 58> * xyz 0 1
| 59>   C                    : -4.029221            8.344015             5.610913
| 60>   O                    : -2.999871            7.977746             4.667712
| 61>   H                    : -3.310125            8.320182             3.789893
| 62>   H                    : -3.622109            8.473960             6.626864
| 63>   H                    : -4.597087            9.250479             5.314208
| 64>   H                    : -4.851451            7.575020             5.727861
| 65>   C                      -0.241667            8.855129             6.504955
| 66>   O                      0.003160             8.985826             5.138943
| 67>   H                      -0.815138            9.115915             4.700429
| 68>   H                      -1.161225            8.348675             6.738335
| 69>   H                      0.546254             8.269358             7.009560
| 70>   H                      -0.221386            9.829478             6.973121
| 71> *
| 72>
| 73>                          ****END OF INPUT****
 Total Charge           Charge          ....    0
 Multiplicity           Mult            ....    1
 Number of Electrons    NEL             ....   36
Dispersion correction           -0.002020088
FINAL SINGLE POINT ENERGY      -231.472224914949
Dispersion correction           -0.000277109
FINAL SINGLE POINT ENERGY      -115.732464588070

CARTESIAN COORDINATES (ANGSTROEM)
---------------------------------
  C     -4.029221    8.344015    5.610913
  O     -2.999871    7.977746    4.667712
  H     -3.310125    8.320182    3.789893
  H     -3.622109    8.473960    6.626864
  H     -4.597087    9.250479    5.314208
  H     -4.851451    7.575020    5.727861
  C     -0.241667    8.855129    6.504955
  O      0.003160    8.985826    5.138943
  H     -0.815138    9.115915    4.700429
  H     -1.161225    8.348675    6.738335
  H      0.546254    8.269358    7.009560
  H     -0.221386    9.829478    6.973121

 Multiplicity           Mult            ....    1
 Number of Electrons    NEL             ....   18
 Basis Dimension        Dim             ....  172

ORBITAL ENERGIES
----------------

  NO   OCC          E(Eh)            E(eV)
   0   2.0000     -19.228044      -523.2217
   1   2.0000     -10.308482      -280.5080
   2   2.0000      -1.146612       -31.2009
   3   2.0000      -0.799062       -21.7436
   4   2.0000      -0.618713       -16.8360
   5   2.0000      -0.546614       -14.8741
   6   2.0000      -0.530268       -14.4293
   7   2.0000      -0.432062       -11.7570
   8   2.0000      -0.373605       -10.1663
   9   0.0000       0.071096         1.9346
  10   0.0000       0.131529         3.5791
  11   0.0000       0.145805         3.9676
  12   0.0000       0.183918         5.0046
  13   0.0000       0.186783         5.0826

MULLIKEN ATOMIC CHARGES
-----------------------
   0 C :    0.000978
   1 O :   -0.002664
   2 H :   -0.000332
   3 H :   -0.000848
   4 H :   -0.000072
   5 H :   -0.000018
   6 C :   -0.164303
   7 O :   -0.464168
   8 H :    0.311774
   9 H :    0.104450
  10 H :    0.112612
  11 H :    0.102590
Sum of atomic charges:   -0.0000000

LOEWDIN ATOMIC CHARGES
----------------------
   0 C :   -0.004182
   1 O :   -0.005946
   2 H :   -0.000801
   3 H :   -0.003127
   4 H :   -0.000035
   5 H :   -0.000028
   6 C :   -0.393362
   7 O :   -0.045373
   8 H :    0.155746
   9 H :    0.094159
  10 H :    0.109081
  11 H :    0.093868

  Mayer bond orders larger than 0.1
B(  6-C ,  7-O ) :   1.0012 B(  6-C ,  9-H ) :   0.9774 B(  6-C , 10-H ) :   0.9724
B(  6-C , 11-H ) :   0.9842 B(  7-O ,  8-H ) :   0.9084

Dispersion correction           -0.000233032
FINAL SINGLE POINT ENERGY      -115.735259584347

DIPOLE MOMENT
-------------
                                X             Y             Z
Electronic contribution:      0.39018       0.14623      -1.80952
Nuclear contribution   :     -1.01826      -0.12679       2.05902
                        -----------------------------------------
Total Dipole Moment    :     -0.62808       0.01944       0.24951
                        -----------------------------------------
Magnitude (a.u.)       :      0.67611
Magnitude (Debye)      :      1.71853

Rotational constants in cm-1:     4.444630     0.847492     0.820117
Rotational constants in MHz : 133246.658713 25407.168377 24586.484955

                             ****ORCA TERMINATED NORMALLY****
TOTAL RUN TIME: 0 days 0 hours 1 minutes 6 seconds 942 msec
