                         Program Version 4.1.2  - RELEASE  -
|  1> #Run DFT-D3 single point of the dimer
|  2> ! wB97X-D3 def2-TZVP TIGHTSCF CHELPG PMODEL PAL8
|  3>
|  4> %base "20-120_DFT_AB"
|  5>
|  6> %scf
|  7> MaxIter 1000
|  8> end
|  9>
| 10> * xyz 0 1
| 11>   C                      -1.761067            5.722091             -2.002277
| 12>   O                      -1.949604            4.450320             -2.319201
| 13>   H                      -2.743328            3.992807             -2.075747
| 14>   H                      -2.692750            6.144057             -1.678658
| 15>   H                      -0.954174            5.871586             -1.341224
| 16>   H                      -1.561292            6.309232             -2.952997
| 17>   C                      -4.752948            5.591868             -4.181413
| 18>   O                      -5.139830            4.777113             -3.073725
| 19>   H                      -5.629639            5.350930             -2.456730
| 20>   H                      -5.593928            6.236357             -4.410818
| 21>   H                      -3.803955            6.184682             -4.018049
| 22>   H                      -4.579629            4.990443             -5.082851
| 23> *
| 24>
| 25> #Run DFT-D3 single point of the molecule with dimer basis set
| 26> $new_job
| 27> %base "20-120_DFT_A"
| 28> ! wB97X-D3 def2-TZVP TIGHTSCF CHELPG PMODEL
| 29>
| 30> %scf
| 31> MaxIter 1000
| 32> end
| 33>
| 34> * xyz 0 1
| 35>   C                      -1.761067            5.722091             -2.002277
| 36>   O                      -1.949604            4.450320             -2.319201
| 37>   H                      -2.743328            3.992807             -2.075747
| 38>   H                      -2.692750            6.144057             -1.678658
| 39>   H                      -0.954174            5.871586             -1.341224
| 40>   H                      -1.561292            6.309232             -2.952997
| 41>   C                    : -4.752948            5.591868             -4.181413
| 42>   O                    : -5.139830            4.777113             -3.073725
| 43>   H                    : -5.629639            5.350930             -2.456730
| 44>   H                    : -5.593928            6.236357             -4.410818
| 45>   H                    : -3.803955            6.184682             -4.018049
| 46>   H                    : -4.579629            4.990443             -5.082851
| 47> *
| 48>
| 49> #Run DFT-D3 single point of the particle with dimer basis set
| 50> $new_job
| 51> %base "20-120_DFT_B"
| 52> ! wB97X-D3 def2-TZVP TIGHTSCF CHELPG PMODEL
| 53>
| 54> %scf
| 55> MaxIter 1000
| 56> end
| 57>
| 58> * xyz 0 1
| 59>   C                    : -1.761067            5.722091             -2.002277
| 60>   O                    : -1.949604            4.450320             -2.319201
| 61>   H                    : -2.743328            3.992807             -2.075747
| 62>   H                    : -2.692750            6.144057             -1.678658
| 63>   H                    : -0.954174            5.871586             -1.341224
| 64>   H                    : -1.561292            6.309232             -2.952997
| 65>   C                      -4.752948            5.591868             -4.181413
| 66>   O                      -5.139830            4.777113             -3.073725
| 67>   H                      -5.629639            5.350930             -2.456730
| 68>   H                      -5.593928            6.236357             -4.410818
| 69>   H                      -3.803955            6.184682             -4.018049
| 70>   H                      -4.579629            4.990443             -5.082851
| 71> *
| 72>
| 73>                          ****END OF INPUT****
 Total Charge           Charge          ....    0
 Multiplicity           Mult            ....    1
 Number of Electrons    NEL             ....   36
Dispersion correction           -0.002299492
FINAL SINGLE POINT ENERGY      -231.462957337599
Dispersion correction           -0.000226593
FINAL SINGLE POINT ENERGY      -115.723531674056

CARTESIAN COORDINATES (ANGSTROEM)
---------------------------------
  C     -1.761067    5.722091   -2.002277
  O     -1.949604    4.450320   -2.319201
  H     -2.743328    3.992807   -2.075747
  H     -2.692750    6.144057   -1.678658
  H     -0.954174    5.871586   -1.341224
  H     -1.561292    6.309232   -2.952997
  C     -4.752948    5.591868   -4.181413
  O     -5.139830    4.777113   -3.073725
  H     -5.629639    5.350930   -2.456730
  H     -5.593928    6.236357   -4.410818
  H     -3.803955    6.184682   -4.018049
  H     -4.579629    4.990443   -5.082851

 Multiplicity           Mult            ....    1
 Number of Electrons    NEL             ....   18
 Basis Dimension        Dim             ....  172

ORBITAL ENERGIES
----------------

  NO   OCC          E(Eh)            E(eV)
   0   2.0000     -19.233243      -523.3632
   1   2.0000     -10.317780      -280.7611
   2   2.0000      -1.130932       -30.7742
   3   2.0000      -0.792413       -21.5626
   4   2.0000      -0.605262       -16.4700
   5   2.0000      -0.540977       -14.7207
   6   2.0000      -0.527294       -14.3484
   7   2.0000      -0.431580       -11.7439
   8   2.0000      -0.375314       -10.2128
   9   0.0000       0.089694         2.4407
  10   0.0000       0.124027         3.3749
  11   0.0000       0.151269         4.1162
  12   0.0000       0.178209         4.8493
  13   0.0000       0.194247         5.2857

MULLIKEN ATOMIC CHARGES
-----------------------
   0 C :    0.007404
   1 O :    0.000328
   2 H :   -0.004971
   3 H :   -0.005424
   4 H :    0.000161
   5 H :   -0.000837
   6 C :   -0.172824
   7 O :   -0.474697
   8 H :    0.317615
   9 H :    0.112725
  10 H :    0.097470
  11 H :    0.123049
Sum of atomic charges:   -0.0000000

LOEWDIN ATOMIC CHARGES
----------------------
   0 C :   -0.007518
   1 O :   -0.001492
   2 H :   -0.008500
   3 H :   -0.002732
   4 H :   -0.000026
   5 H :   -0.002770
   6 C :   -0.378793
   7 O :   -0.084642
   8 H :    0.177722
   9 H :    0.095659
  10 H :    0.105109
  11 H :    0.107982

  Mayer bond orders larger than 0.1
B(  6-C ,  7-O ) :   0.9941 B(  6-C ,  9-H ) :   0.9848 B(  6-C , 10-H ) :   0.9688
B(  6-C , 11-H ) :   0.9751 B(  7-O ,  8-H ) :   0.8968

Dispersion correction           -0.000252698
FINAL SINGLE POINT ENERGY      -115.734477474482

DIPOLE MOMENT
-------------
                                X             Y             Z
Electronic contribution:     -0.42260      -1.17021       1.36772
Nuclear contribution   :      0.23408       1.84435      -1.44671
                        -----------------------------------------
Total Dipole Moment    :     -0.18853       0.67414      -0.07899
                        -----------------------------------------
Magnitude (a.u.)       :      0.70445
Magnitude (Debye)      :      1.79057

Rotational constants in cm-1:     4.226220     0.811444     0.788044
Rotational constants in MHz : 126698.888318 24326.474031 23624.975227

                             ****ORCA TERMINATED NORMALLY****
TOTAL RUN TIME: 0 days 0 hours 1 minutes 8 seconds 922 msec
