                         Program Version 4.1.2  - RELEASE  -
|  1> #Run DFT-D3 single point of the dimer
|  2> ! wB97X-D3 def2-TZVP TIGHTSCF CHELPG PMODEL PAL8
|  3>
|  4> %base "6-101_DFT_AB"
|  5>
|  6> %scf
|  7> MaxIter 1000
|  8> end
|  9>
| 10> * xyz 0 1
| 11>   C                      6.664978             3.067073             1.226311
| 12>   O                      8.059023             2.989451             1.564592
| 13>   H                      8.160365             2.945944             2.478638
| 14>   H                      6.091341             2.145018             1.217380
| 15>   H                      6.072127             3.731938             1.852075
| 16>   H                      6.459341             3.559162             0.310594
| 17>   C                      6.484678             7.460578             -1.082355
| 18>   O                      5.201355             7.955092             -0.723691
| 19>   H                      5.254974             8.894137             -0.816187
| 20>   H                      7.325725             7.909387             -0.463628
| 21>   H                      6.487008             6.411832             -0.846857
| 22>   H                      6.782900             7.473782             -2.128927
| 23> *
| 24>
| 25> #Run DFT-D3 single point of the molecule with dimer basis set
| 26> $new_job
| 27> %base "6-101_DFT_A"
| 28> ! wB97X-D3 def2-TZVP TIGHTSCF CHELPG PMODEL
| 29>
| 30> %scf
| 31> MaxIter 1000
| 32> end
| 33>
| 34> * xyz 0 1
| 35>   C                      6.664978             3.067073             1.226311
| 36>   O                      8.059023             2.989451             1.564592
| 37>   H                      8.160365             2.945944             2.478638
| 38>   H                      6.091341             2.145018             1.217380
| 39>   H                      6.072127             3.731938             1.852075
| 40>   H                      6.459341             3.559162             0.310594
| 41>   C                    : 6.484678             7.460578             -1.082355
| 42>   O                    : 5.201355             7.955092             -0.723691
| 43>   H                    : 5.254974             8.894137             -0.816187
| 44>   H                    : 7.325725             7.909387             -0.463628
| 45>   H                    : 6.487008             6.411832             -0.846857
| 46>   H                    : 6.782900             7.473782             -2.128927
| 47> *
| 48>
| 49> #Run DFT-D3 single point of the particle with dimer basis set
| 50> $new_job
| 51> %base "6-101_DFT_B"
| 52> ! wB97X-D3 def2-TZVP TIGHTSCF CHELPG PMODEL
| 53>
| 54> %scf
| 55> MaxIter 1000
| 56> end
| 57>
| 58> * xyz 0 1
| 59>   C                    : 6.664978             3.067073             1.226311
| 60>   O                    : 8.059023             2.989451             1.564592
| 61>   H                    : 8.160365             2.945944             2.478638
| 62>   H                    : 6.091341             2.145018             1.217380
| 63>   H                    : 6.072127             3.731938             1.852075
| 64>   H                    : 6.459341             3.559162             0.310594
| 65>   C                      6.484678             7.460578             -1.082355
| 66>   O                      5.201355             7.955092             -0.723691
| 67>   H                      5.254974             8.894137             -0.816187
| 68>   H                      7.325725             7.909387             -0.463628
| 69>   H                      6.487008             6.411832             -0.846857
| 70>   H                      6.782900             7.473782             -2.128927
| 71> *
| 72>
| 73>                          ****END OF INPUT****
 Total Charge           Charge          ....    0
 Multiplicity           Mult            ....    1
 Number of Electrons    NEL             ....   36
Dispersion correction           -0.000925064
FINAL SINGLE POINT ENERGY      -231.462179217191
Dispersion correction           -0.000278732
FINAL SINGLE POINT ENERGY      -115.727810545425

CARTESIAN COORDINATES (ANGSTROEM)
---------------------------------
  C      6.664978    3.067073    1.226311
  O      8.059023    2.989451    1.564592
  H      8.160365    2.945944    2.478638
  H      6.091341    2.145018    1.217380
  H      6.072127    3.731938    1.852075
  H      6.459341    3.559162    0.310594
  C      6.484678    7.460578   -1.082355
  O      5.201355    7.955092   -0.723691
  H      5.254974    8.894137   -0.816187
  H      7.325725    7.909387   -0.463628
  H      6.487008    6.411832   -0.846857
  H      6.782900    7.473782   -2.128927

 Multiplicity           Mult            ....    1
 Number of Electrons    NEL             ....   18
 Basis Dimension        Dim             ....  172

ORBITAL ENERGIES
----------------

  NO   OCC          E(Eh)            E(eV)
   0   2.0000     -19.234178      -523.3886
   1   2.0000     -10.314569      -280.6737
   2   2.0000      -1.140467       -31.0337
   3   2.0000      -0.797591       -21.7036
   4   2.0000      -0.612132       -16.6570
   5   2.0000      -0.538576       -14.6554
   6   2.0000      -0.524067       -14.2606
   7   2.0000      -0.437312       -11.8999
   8   2.0000      -0.378454       -10.2982
   9   0.0000       0.086798         2.3619
  10   0.0000       0.118944         3.2366
  11   0.0000       0.148445         4.0394
  12   0.0000       0.164030         4.4635
  13   0.0000       0.186981         5.0880

MULLIKEN ATOMIC CHARGES
-----------------------
   0 C :   -0.000287
   1 O :    0.000009
   2 H :    0.000000
   3 H :    0.000010
   4 H :    0.000041
   5 H :    0.000170
   6 C :   -0.179876
   7 O :   -0.459815
   8 H :    0.311449
   9 H :    0.098930
  10 H :    0.124275
  11 H :    0.105094
Sum of atomic charges:   -0.0000000

LOEWDIN ATOMIC CHARGES
----------------------
   0 C :   -0.000381
   1 O :   -0.000003
   2 H :   -0.000000
   3 H :   -0.000001
   4 H :   -0.000027
   5 H :   -0.000727
   6 C :   -0.391335
   7 O :   -0.067777
   8 H :    0.159443
   9 H :    0.102448
  10 H :    0.105567
  11 H :    0.092793

  Mayer bond orders larger than 0.1
B(  6-C ,  7-O ) :   1.0164 B(  6-C ,  9-H ) :   0.9765 B(  6-C , 10-H ) :   0.9783
B(  6-C , 11-H ) :   0.9643 B(  7-O ,  8-H ) :   0.9059

Dispersion correction           -0.000262708
FINAL SINGLE POINT ENERGY      -115.733631772951

DIPOLE MOMENT
-------------
                                X             Y             Z
Electronic contribution:     -1.79985       0.60331       0.41136
Nuclear contribution   :      2.32294      -0.22884      -0.60889
                        -----------------------------------------
Total Dipole Moment    :      0.52309       0.37447      -0.19753
                        -----------------------------------------
Magnitude (a.u.)       :      0.67296
Magnitude (Debye)      :      1.71052

Rotational constants in cm-1:     4.378074     0.815281     0.790646
Rotational constants in MHz : 131251.366244 24441.513924 23702.959059

                             ****ORCA TERMINATED NORMALLY****
TOTAL RUN TIME: 0 days 0 hours 1 minutes 1 seconds 365 msec
