                         Program Version 4.1.2  - RELEASE  -
|  1> #Run DFT-D3 single point of the dimer
|  2> ! wB97X-D3 def2-TZVP TIGHTSCF CHELPG PMODEL PAL8
|  3>
|  4> %base "4-92_DFT_AB"
|  5>
|  6> %scf
|  7> MaxIter 1000
|  8> end
|  9>
| 10> * xyz 0 1
| 11>   C                      8.138163             2.013779             8.440012
| 12>   O                      8.449880             2.296050             7.073773
| 13>   H                      8.958610             1.573154             6.754095
| 14>   H                      7.680784             2.922407             8.860548
| 15>   H                      7.458505             1.109173             8.484702
| 16>   H                      9.035666             1.771950             8.988343
| 17>   C                      4.430335             5.512395             8.657637
| 18>   O                      4.405367             6.904607             8.601094
| 19>   H                      5.340159             7.220050             8.776465
| 20>   H                      4.978902             5.137231             9.546736
| 21>   H                      3.450667             5.052634             8.684871
| 22>   H                      4.890700             5.123783             7.757097
| 23> *
| 24>
| 25> #Run DFT-D3 single point of the molecule with dimer basis set
| 26> $new_job
| 27> %base "4-92_DFT_A"
| 28> ! wB97X-D3 def2-TZVP TIGHTSCF CHELPG PMODEL
| 29>
| 30> %scf
| 31> MaxIter 1000
| 32> end
| 33>
| 34> * xyz 0 1
| 35>   C                      8.138163             2.013779             8.440012
| 36>   O                      8.449880             2.296050             7.073773
| 37>   H                      8.958610             1.573154             6.754095
| 38>   H                      7.680784             2.922407             8.860548
| 39>   H                      7.458505             1.109173             8.484702
| 40>   H                      9.035666             1.771950             8.988343
| 41>   C                    : 4.430335             5.512395             8.657637
| 42>   O                    : 4.405367             6.904607             8.601094
| 43>   H                    : 5.340159             7.220050             8.776465
| 44>   H                    : 4.978902             5.137231             9.546736
| 45>   H                    : 3.450667             5.052634             8.684871
| 46>   H                    : 4.890700             5.123783             7.757097
| 47> *
| 48>
| 49> #Run DFT-D3 single point of the particle with dimer basis set
| 50> $new_job
| 51> %base "4-92_DFT_B"
| 52> ! wB97X-D3 def2-TZVP TIGHTSCF CHELPG PMODEL
| 53>
| 54> %scf
| 55> MaxIter 1000
| 56> end
| 57>
| 58> * xyz 0 1
| 59>   C                    : 8.138163             2.013779             8.440012
| 60>   O                    : 8.449880             2.296050             7.073773
| 61>   H                    : 8.958610             1.573154             6.754095
| 62>   H                    : 7.680784             2.922407             8.860548
| 63>   H                    : 7.458505             1.109173             8.484702
| 64>   H                    : 9.035666             1.771950             8.988343
| 65>   C                      4.430335             5.512395             8.657637
| 66>   O                      4.405367             6.904607             8.601094
| 67>   H                      5.340159             7.220050             8.776465
| 68>   H                      4.978902             5.137231             9.546736
| 69>   H                      3.450667             5.052634             8.684871
| 70>   H                      4.890700             5.123783             7.757097
| 71> *
| 72>
| 73>                          ****END OF INPUT****
 Total Charge           Charge          ....    0
 Multiplicity           Mult            ....    1
 Number of Electrons    NEL             ....   36
Dispersion correction           -0.000772215
FINAL SINGLE POINT ENERGY      -231.468961812411
Dispersion correction           -0.000231342
FINAL SINGLE POINT ENERGY      -115.735214934671

CARTESIAN COORDINATES (ANGSTROEM)
---------------------------------
  C      8.138163    2.013779    8.440012
  O      8.449880    2.296050    7.073773
  H      8.958610    1.573154    6.754095
  H      7.680784    2.922407    8.860548
  H      7.458505    1.109173    8.484702
  H      9.035666    1.771950    8.988343
  C      4.430335    5.512395    8.657637
  O      4.405367    6.904607    8.601094
  H      5.340159    7.220050    8.776465
  H      4.978902    5.137231    9.546736
  H      3.450667    5.052634    8.684871
  H      4.890700    5.123783    7.757097

 Multiplicity           Mult            ....    1
 Number of Electrons    NEL             ....   18
 Basis Dimension        Dim             ....  172

ORBITAL ENERGIES
----------------

  NO   OCC          E(Eh)            E(eV)
   0   2.0000     -19.233712      -523.3759
   1   2.0000     -10.309542      -280.5369
   2   2.0000      -1.135796       -30.9066
   3   2.0000      -0.791301       -21.5324
   4   2.0000      -0.607586       -16.5333
   5   2.0000      -0.544178       -14.8078
   6   2.0000      -0.532994       -14.5035
   7   2.0000      -0.429338       -11.6829
   8   2.0000      -0.370734       -10.0882
   9   0.0000       0.082044         2.2325
  10   0.0000       0.109561         2.9813
  11   0.0000       0.143890         3.9155
  12   0.0000       0.167220         4.5503
  13   0.0000       0.192860         5.2480

MULLIKEN ATOMIC CHARGES
-----------------------
   0 C :    0.000190
   1 O :    0.000004
   2 H :    0.000001
   3 H :   -0.000612
   4 H :   -0.000005
   5 H :   -0.000014
   6 C :   -0.164315
   7 O :   -0.468627
   8 H :    0.320320
   9 H :    0.097542
  10 H :    0.116896
  11 H :    0.098621
Sum of atomic charges:    0.0000000

LOEWDIN ATOMIC CHARGES
----------------------
   0 C :   -0.000141
   1 O :   -0.000007
   2 H :   -0.000000
   3 H :   -0.000314
   4 H :   -0.000003
   5 H :   -0.000002
   6 C :   -0.408300
   7 O :   -0.080991
   8 H :    0.197176
   9 H :    0.096494
  10 H :    0.104847
  11 H :    0.091242

  Mayer bond orders larger than 0.1
B(  6-C ,  7-O ) :   1.0052 B(  6-C ,  9-H ) :   0.9807 B(  6-C , 10-H ) :   0.9702
B(  6-C , 11-H ) :   0.9810 B(  7-O ,  8-H ) :   0.8904

Dispersion correction           -0.000231164
FINAL SINGLE POINT ENERGY      -115.733298546902

DIPOLE MOMENT
-------------
                                X             Y             Z
Electronic contribution:     -0.24566       1.86197      -0.08658
Nuclear contribution   :      0.81633      -2.20157       0.21587
                        -----------------------------------------
Total Dipole Moment    :      0.57066      -0.33961       0.12930
                        -----------------------------------------
Magnitude (a.u.)       :      0.67654
Magnitude (Debye)      :      1.71963

Rotational constants in cm-1:     4.281771     0.846505     0.814954
Rotational constants in MHz : 128364.279739 25377.569600 24431.704631

                             ****ORCA TERMINATED NORMALLY****
TOTAL RUN TIME: 0 days 0 hours 1 minutes 31 seconds 208 msec
