                         Program Version 4.1.2  - RELEASE  -
|  1> #Run DFT-D3 single point of the dimer
|  2> ! wB97X-D3 def2-TZVP TIGHTSCF CHELPG PMODEL PAL8
|  3>
|  4> %base "15-198_DFT_AB"
|  5>
|  6> %scf
|  7> MaxIter 1000
|  8> end
|  9>
| 10> * xyz 0 1
| 11>   C                      -2.778734            -2.412544            8.481475
| 12>   O                      -2.200614            -3.449927            9.311250
| 13>   H                      -2.908037            -4.104227            9.150828
| 14>   H                      -2.317771            -2.395870            7.561759
| 15>   H                      -3.824809            -2.518425            8.302194
| 16>   H                      -2.604314            -1.482273            8.977434
| 17>   C                      0.394108             -5.205522            10.558296
| 18>   O                      0.573753             -4.235811            9.557318
| 19>   H                      -0.243373            -4.142558            9.060410
| 20>   H                      -0.667313            -5.047230            11.001182
| 21>   H                      0.368586             -6.303852            10.296663
| 22>   H                      1.165742             -5.092801            11.336747
| 23> *
| 24>
| 25> #Run DFT-D3 single point of the molecule with dimer basis set
| 26> $new_job
| 27> %base "15-198_DFT_A"
| 28> ! wB97X-D3 def2-TZVP TIGHTSCF CHELPG PMODEL
| 29>
| 30> %scf
| 31> MaxIter 1000
| 32> end
| 33>
| 34> * xyz 0 1
| 35>   C                      -2.778734            -2.412544            8.481475
| 36>   O                      -2.200614            -3.449927            9.311250
| 37>   H                      -2.908037            -4.104227            9.150828
| 38>   H                      -2.317771            -2.395870            7.561759
| 39>   H                      -3.824809            -2.518425            8.302194
| 40>   H                      -2.604314            -1.482273            8.977434
| 41>   C                    : 0.394108             -5.205522            10.558296
| 42>   O                    : 0.573753             -4.235811            9.557318
| 43>   H                    : -0.243373            -4.142558            9.060410
| 44>   H                    : -0.667313            -5.047230            11.001182
| 45>   H                    : 0.368586             -6.303852            10.296663
| 46>   H                    : 1.165742             -5.092801            11.336747
| 47> *
| 48>
| 49> #Run DFT-D3 single point of the particle with dimer basis set
| 50> $new_job
| 51> %base "15-198_DFT_B"
| 52> ! wB97X-D3 def2-TZVP TIGHTSCF CHELPG PMODEL
| 53>
| 54> %scf
| 55> MaxIter 1000
| 56> end
| 57>
| 58> * xyz 0 1
| 59>   C                    : -2.778734            -2.412544            8.481475
| 60>   O                    : -2.200614            -3.449927            9.311250
| 61>   H                    : -2.908037            -4.104227            9.150828
| 62>   H                    : -2.317771            -2.395870            7.561759
| 63>   H                    : -3.824809            -2.518425            8.302194
| 64>   H                    : -2.604314            -1.482273            8.977434
| 65>   C                      0.394108             -5.205522            10.558296
| 66>   O                      0.573753             -4.235811            9.557318
| 67>   H                      -0.243373            -4.142558            9.060410
| 68>   H                      -0.667313            -5.047230            11.001182
| 69>   H                      0.368586             -6.303852            10.296663
| 70>   H                      1.165742             -5.092801            11.336747
| 71> *
| 72>
| 73>                          ****END OF INPUT****
 Total Charge           Charge          ....    0
 Multiplicity           Mult            ....    1
 Number of Electrons    NEL             ....   36
Dispersion correction           -0.001732582
FINAL SINGLE POINT ENERGY      -231.464210306881
Dispersion correction           -0.000214671
FINAL SINGLE POINT ENERGY      -115.727281756694

CARTESIAN COORDINATES (ANGSTROEM)
---------------------------------
  C     -2.778734   -2.412544    8.481475
  O     -2.200614   -3.449927    9.311250
  H     -2.908037   -4.104227    9.150828
  H     -2.317771   -2.395870    7.561759
  H     -3.824809   -2.518425    8.302194
  H     -2.604314   -1.482273    8.977434
  C      0.394108   -5.205522   10.558296
  O      0.573753   -4.235811    9.557318
  H     -0.243373   -4.142558    9.060410
  H     -0.667313   -5.047230   11.001182
  H      0.368586   -6.303852   10.296663
  H      1.165742   -5.092801   11.336747

 Multiplicity           Mult            ....    1
 Number of Electrons    NEL             ....   18
 Basis Dimension        Dim             ....  172

ORBITAL ENERGIES
----------------

  NO   OCC          E(Eh)            E(eV)
   0   2.0000     -19.235933      -523.4363
   1   2.0000     -10.325528      -280.9719
   2   2.0000      -1.141856       -31.0715
   3   2.0000      -0.789639       -21.4872
   4   2.0000      -0.615904       -16.7596
   5   2.0000      -0.535688       -14.5768
   6   2.0000      -0.525381       -14.2963
   7   2.0000      -0.434318       -11.8184
   8   2.0000      -0.371253       -10.1023
   9   0.0000       0.069066         1.8794
  10   0.0000       0.126689         3.4474
  11   0.0000       0.148865         4.0508
  12   0.0000       0.171661         4.6711
  13   0.0000       0.189590         5.1590

MULLIKEN ATOMIC CHARGES
-----------------------
   0 C :   -0.003053
   1 O :   -0.004520
   2 H :    0.000032
   3 H :    0.000063
   4 H :    0.000032
   5 H :    0.000309
   6 C :   -0.176453
   7 O :   -0.455012
   8 H :    0.317598
   9 H :    0.093789
  10 H :    0.101588
  11 H :    0.125627
Sum of atomic charges:    0.0000000

LOEWDIN ATOMIC CHARGES
----------------------
   0 C :   -0.002303
   1 O :   -0.015581
   2 H :   -0.001102
   3 H :   -0.000216
   4 H :   -0.000042
   5 H :   -0.000069
   6 C :   -0.406587
   7 O :   -0.057146
   8 H :    0.174556
   9 H :    0.103478
  10 H :    0.096952
  11 H :    0.108060

  Mayer bond orders larger than 0.1
B(  6-C ,  7-O ) :   1.0055 B(  6-C ,  9-H ) :   0.9830 B(  6-C , 10-H ) :   0.9615
B(  6-C , 11-H ) :   0.9727 B(  7-O ,  8-H ) :   0.9017

Dispersion correction           -0.000265795
FINAL SINGLE POINT ENERGY      -115.730697873733

DIPOLE MOMENT
-------------
                                X             Y             Z
Electronic contribution:      0.54948       1.32011      -1.36426
Nuclear contribution   :     -1.11624      -1.61669       1.42707
                        -----------------------------------------
Total Dipole Moment    :     -0.56676      -0.29658       0.06281
                        -----------------------------------------
Magnitude (a.u.)       :      0.64275
Magnitude (Debye)      :      1.63374

Rotational constants in cm-1:     4.179038     0.828724     0.790105
Rotational constants in MHz : 125284.408912 24844.506792 23686.742216

                             ****ORCA TERMINATED NORMALLY****
TOTAL RUN TIME: 0 days 0 hours 1 minutes 6 seconds 581 msec
