                         Program Version 4.1.2  - RELEASE  -
|  1> #Run DFT-D3 single point of the dimer
|  2> ! wB97X-D3 def2-TZVP TIGHTSCF  CHELPG PAL8
|  3>
|  4> %base "5_charges"
|  5>
|  6> %scf
|  7> MaxIter 1000
|  8> end
|  9> %output
| 10>   Print[ P_Mayer ] 1
| 11>   Print[ P_NatPop ] 1
| 12>   Print[ P_Hirshfeld ] 1
| 13>   Print[ P_Mulliken ] 1
| 14>   Print [ P_Loewdin ] 1
| 15> end
| 16>
| 17> * xyz 0 1
| 18>   C                      -0.339806            -1.681676            -4.646204
| 19>   O                      0.216350             -2.979707            -4.816244
| 20>   H                      0.067145             -3.417743            -3.953351
| 21>   H                      -0.972488            -1.577595            -3.724598
| 22>   H                      0.455411             -0.963213            -4.730663
| 23>   H                      -1.007386            -1.425454            -5.485194
| 24> *
| 25>
| 26>                          ****END OF INPUT****

CARTESIAN COORDINATES (ANGSTROEM)
---------------------------------
  C     -0.339806   -1.681676   -4.646204
  O      0.216350   -2.979707   -4.816244
  H      0.067145   -3.417743   -3.953351
  H     -0.972488   -1.577595   -3.724598
  H      0.455411   -0.963213   -4.730663
  H     -1.007386   -1.425454   -5.485194

 Total Charge           Charge          ....    0
 Multiplicity           Mult            ....    1
 Number of Electrons    NEL             ....   18
 Basis Dimension        Dim             ....   86

ORBITAL ENERGIES
----------------

  NO   OCC          E(Eh)            E(eV)
   0   2.0000     -19.232591      -523.3454
   1   2.0000     -10.315114      -280.6885
   2   2.0000      -1.132501       -30.8169
   3   2.0000      -0.791690       -21.5430
   4   2.0000      -0.606347       -16.4995
   5   2.0000      -0.538667       -14.6579
   6   2.0000      -0.525473       -14.2989
   7   2.0000      -0.438965       -11.9449
   8   2.0000      -0.371095       -10.0980
   9   0.0000       0.110398         3.0041
  10   0.0000       0.154407         4.2016
  11   0.0000       0.193290         5.2597
  12   0.0000       0.209049         5.6885
  13   0.0000       0.233466         6.3529

MULLIKEN ATOMIC CHARGES
-----------------------
   0 C :   -0.177548
   1 O :   -0.469249
   2 H :    0.318461
   3 H :    0.106609
   4 H :    0.111130
   5 H :    0.110596
Sum of atomic charges:   -0.0000000

LOEWDIN ATOMIC CHARGES
----------------------
   0 C :   -0.388466
   1 O :   -0.093348
   2 H :    0.182149
   3 H :    0.102780
   4 H :    0.094556
   5 H :    0.102330

  Mayer bond orders larger than 0.1
B(  0-C ,  1-O ) :   1.0110 B(  0-C ,  3-H ) :   0.9806 B(  0-C ,  4-H ) :   0.9794
B(  0-C ,  5-H ) :   0.9749 B(  1-O ,  2-H ) :   0.8990

Dispersion correction           -0.000250648
FINAL SINGLE POINT ENERGY      -115.732283104855

DIPOLE MOMENT
-------------
                                X             Y             Z
Electronic contribution:      0.79870      -1.65342      -0.28108
Nuclear contribution   :     -1.11840       1.88385       0.88375
                        -----------------------------------------
Total Dipole Moment    :     -0.31970       0.23043       0.60267
                        -----------------------------------------
Magnitude (a.u.)       :      0.72008
Magnitude (Debye)      :      1.83030

Rotational constants in cm-1:     4.198982     0.829751     0.789587
Rotational constants in MHz : 125882.316392 24875.321064 23671.225254

                             ****ORCA TERMINATED NORMALLY****
TOTAL RUN TIME: 0 days 0 hours 0 minutes 43 seconds 532 msec
