                         Program Version 4.1.2  - RELEASE  -
|  1> #Run DFT-D3 single point of the dimer
|  2> ! wB97X-D3 def2-TZVP TIGHTSCF CHELPG PMODEL PAL8
|  3>
|  4> %base "7-4_DFT_AB"
|  5>
|  6> %scf
|  7> MaxIter 1000
|  8> end
|  9>
| 10> * xyz 0 1
| 11>   C                      0.107441             2.741054             -3.055841
| 12>   O                      0.093632             2.479985             -1.676650
| 13>   H                      -0.116713            3.352322             -1.369150
| 14>   H                      0.781831             3.560905             -3.329535
| 15>   H                      0.429337             1.873700             -3.602147
| 16>   H                      -0.921354            2.900499             -3.482296
| 17>   C                      -2.794217            -0.301711            -3.155988
| 18>   O                      -3.923334            -0.784241            -3.820213
| 19>   H                      -4.707109            -0.830497            -3.193386
| 20>   H                      -1.981174            -0.076518            -3.770836
| 21>   H                      -3.087698            0.587194             -2.615618
| 22>   H                      -2.514014            -0.911451            -2.360211
| 23> *
| 24>
| 25> #Run DFT-D3 single point of the molecule with dimer basis set
| 26> $new_job
| 27> %base "7-4_DFT_A"
| 28> ! wB97X-D3 def2-TZVP TIGHTSCF CHELPG PMODEL
| 29>
| 30> %scf
| 31> MaxIter 1000
| 32> end
| 33>
| 34> * xyz 0 1
| 35>   C                      0.107441             2.741054             -3.055841
| 36>   O                      0.093632             2.479985             -1.676650
| 37>   H                      -0.116713            3.352322             -1.369150
| 38>   H                      0.781831             3.560905             -3.329535
| 39>   H                      0.429337             1.873700             -3.602147
| 40>   H                      -0.921354            2.900499             -3.482296
| 41>   C                    : -2.794217            -0.301711            -3.155988
| 42>   O                    : -3.923334            -0.784241            -3.820213
| 43>   H                    : -4.707109            -0.830497            -3.193386
| 44>   H                    : -1.981174            -0.076518            -3.770836
| 45>   H                    : -3.087698            0.587194             -2.615618
| 46>   H                    : -2.514014            -0.911451            -2.360211
| 47> *
| 48>
| 49> #Run DFT-D3 single point of the particle with dimer basis set
| 50> $new_job
| 51> %base "7-4_DFT_B"
| 52> ! wB97X-D3 def2-TZVP TIGHTSCF CHELPG PMODEL
| 53>
| 54> %scf
| 55> MaxIter 1000
| 56> end
| 57>
| 58> * xyz 0 1
| 59>   C                    : 0.107441             2.741054             -3.055841
| 60>   O                    : 0.093632             2.479985             -1.676650
| 61>   H                    : -0.116713            3.352322             -1.369150
| 62>   H                    : 0.781831             3.560905             -3.329535
| 63>   H                    : 0.429337             1.873700             -3.602147
| 64>   H                    : -0.921354            2.900499             -3.482296
| 65>   C                      -2.794217            -0.301711            -3.155988
| 66>   O                      -3.923334            -0.784241            -3.820213
| 67>   H                      -4.707109            -0.830497            -3.193386
| 68>   H                      -1.981174            -0.076518            -3.770836
| 69>   H                      -3.087698            0.587194             -2.615618
| 70>   H                      -2.514014            -0.911451            -2.360211
| 71> *
| 72>
| 73>                          ****END OF INPUT****
 Total Charge           Charge          ....    0
 Multiplicity           Mult            ....    1
 Number of Electrons    NEL             ....   36
Dispersion correction           -0.001273325
FINAL SINGLE POINT ENERGY      -231.460629669547
Dispersion correction           -0.000223019
FINAL SINGLE POINT ENERGY      -115.732668921598

CARTESIAN COORDINATES (ANGSTROEM)
---------------------------------
  C      0.107441    2.741054   -3.055841
  O      0.093632    2.479985   -1.676650
  H     -0.116713    3.352322   -1.369150
  H      0.781831    3.560905   -3.329535
  H      0.429337    1.873700   -3.602147
  H     -0.921354    2.900499   -3.482296
  C     -2.794217   -0.301711   -3.155988
  O     -3.923334   -0.784241   -3.820213
  H     -4.707109   -0.830497   -3.193386
  H     -1.981174   -0.076518   -3.770836
  H     -3.087698    0.587194   -2.615618
  H     -2.514014   -0.911451   -2.360211

 Multiplicity           Mult            ....    1
 Number of Electrons    NEL             ....   18
 Basis Dimension        Dim             ....  172

ORBITAL ENERGIES
----------------

  NO   OCC          E(Eh)            E(eV)
   0   2.0000     -19.229791      -523.2692
   1   2.0000     -10.298170      -280.2275
   2   2.0000      -1.130880       -30.7728
   3   2.0000      -0.801260       -21.8034
   4   2.0000      -0.614225       -16.7139
   5   2.0000      -0.543832       -14.7984
   6   2.0000      -0.536410       -14.5965
   7   2.0000      -0.432407       -11.7664
   8   2.0000      -0.365481        -9.9452
   9   0.0000       0.083525         2.2728
  10   0.0000       0.109143         2.9699
  11   0.0000       0.152575         4.1518
  12   0.0000       0.163417         4.4468
  13   0.0000       0.190154         5.1744

MULLIKEN ATOMIC CHARGES
-----------------------
   0 C :   -0.000767
   1 O :    0.000175
   2 H :   -0.000000
   3 H :   -0.000066
   4 H :   -0.000126
   5 H :   -0.000370
   6 C :   -0.154939
   7 O :   -0.485907
   8 H :    0.319996
   9 H :    0.126875
  10 H :    0.093215
  11 H :    0.101914
Sum of atomic charges:   -0.0000000

LOEWDIN ATOMIC CHARGES
----------------------
   0 C :   -0.001375
   1 O :   -0.000068
   2 H :   -0.000018
   3 H :   -0.000013
   4 H :   -0.000415
   5 H :   -0.000715
   6 C :   -0.386569
   7 O :   -0.085667
   8 H :    0.196585
   9 H :    0.099003
  10 H :    0.094815
  11 H :    0.084437

  Mayer bond orders larger than 0.1
B(  6-C ,  7-O ) :   0.9969 B(  6-C ,  9-H ) :   0.9712 B(  6-C , 10-H ) :   0.9917
B(  6-C , 11-H ) :   0.9748 B(  7-O ,  8-H ) :   0.8883

Dispersion correction           -0.000215133
FINAL SINGLE POINT ENERGY      -115.726703208412

DIPOLE MOMENT
-------------
                                X             Y             Z
Electronic contribution:     -1.22938      -0.71270      -1.12659
Nuclear contribution   :      1.19497       0.88056       1.80025
                        -----------------------------------------
Total Dipole Moment    :     -0.03441       0.16786       0.67366
                        -----------------------------------------
Magnitude (a.u.)       :      0.69511
Magnitude (Debye)      :      1.76684

Rotational constants in cm-1:     4.540080     0.855815     0.812601
Rotational constants in MHz : 136108.167538 25656.673322 24361.177151

                             ****ORCA TERMINATED NORMALLY****
TOTAL RUN TIME: 0 days 0 hours 1 minutes 0 seconds 584 msec
