                         Program Version 4.1.2  - RELEASE  -
|  1> #Run DFT-D3 single point of the dimer
|  2> ! wB97X-D3 def2-TZVP TIGHTSCF CHELPG PMODEL PAL8
|  3>
|  4> %base "6-187_DFT_AB"
|  5>
|  6> %scf
|  7> MaxIter 1000
|  8> end
|  9>
| 10> * xyz 0 1
| 11>   C                      -6.008489            -4.587720            -4.525131
| 12>   O                      -5.657151            -3.490434            -5.323309
| 13>   H                      -4.759430            -3.178681            -5.161051
| 14>   H                      -6.094564            -4.278882            -3.454936
| 15>   H                      -6.943216            -4.900228            -4.978512
| 16>   H                      -5.366793            -5.404057            -4.591604
| 17>   C                      -2.199423            -3.220114            -4.600146
| 18>   O                      -2.828646            -2.675775            -5.718328
| 19>   H                      -2.224699            -2.440707            -6.411759
| 20>   H                      -2.777657            -4.032801            -4.099867
| 21>   H                      -1.242190            -3.615599            -4.941980
| 22>   H                      -1.968914            -2.377201            -3.845331
| 23> *
| 24>
| 25> #Run DFT-D3 single point of the molecule with dimer basis set
| 26> $new_job
| 27> %base "6-187_DFT_A"
| 28> ! wB97X-D3 def2-TZVP TIGHTSCF CHELPG PMODEL
| 29>
| 30> %scf
| 31> MaxIter 1000
| 32> end
| 33>
| 34> * xyz 0 1
| 35>   C                      -6.008489            -4.587720            -4.525131
| 36>   O                      -5.657151            -3.490434            -5.323309
| 37>   H                      -4.759430            -3.178681            -5.161051
| 38>   H                      -6.094564            -4.278882            -3.454936
| 39>   H                      -6.943216            -4.900228            -4.978512
| 40>   H                      -5.366793            -5.404057            -4.591604
| 41>   C                    : -2.199423            -3.220114            -4.600146
| 42>   O                    : -2.828646            -2.675775            -5.718328
| 43>   H                    : -2.224699            -2.440707            -6.411759
| 44>   H                    : -2.777657            -4.032801            -4.099867
| 45>   H                    : -1.242190            -3.615599            -4.941980
| 46>   H                    : -1.968914            -2.377201            -3.845331
| 47> *
| 48>
| 49> #Run DFT-D3 single point of the particle with dimer basis set
| 50> $new_job
| 51> %base "6-187_DFT_B"
| 52> ! wB97X-D3 def2-TZVP TIGHTSCF CHELPG PMODEL
| 53>
| 54> %scf
| 55> MaxIter 1000
| 56> end
| 57>
| 58> * xyz 0 1
| 59>   C                    : -6.008489            -4.587720            -4.525131
| 60>   O                    : -5.657151            -3.490434            -5.323309
| 61>   H                    : -4.759430            -3.178681            -5.161051
| 62>   H                    : -6.094564            -4.278882            -3.454936
| 63>   H                    : -6.943216            -4.900228            -4.978512
| 64>   H                    : -5.366793            -5.404057            -4.591604
| 65>   C                      -2.199423            -3.220114            -4.600146
| 66>   O                      -2.828646            -2.675775            -5.718328
| 67>   H                      -2.224699            -2.440707            -6.411759
| 68>   H                      -2.777657            -4.032801            -4.099867
| 69>   H                      -1.242190            -3.615599            -4.941980
| 70>   H                      -1.968914            -2.377201            -3.845331
| 71> *
| 72>
| 73>                          ****END OF INPUT****
 Total Charge           Charge          ....    0
 Multiplicity           Mult            ....    1
 Number of Electrons    NEL             ....   36
Dispersion correction           -0.001832727
FINAL SINGLE POINT ENERGY      -231.469063611622
Dispersion correction           -0.000239175
FINAL SINGLE POINT ENERGY      -115.733182207472

CARTESIAN COORDINATES (ANGSTROEM)
---------------------------------
  C     -6.008489   -4.587720   -4.525131
  O     -5.657151   -3.490434   -5.323309
  H     -4.759430   -3.178681   -5.161051
  H     -6.094564   -4.278882   -3.454936
  H     -6.943216   -4.900228   -4.978512
  H     -5.366793   -5.404057   -4.591604
  C     -2.199423   -3.220114   -4.600146
  O     -2.828646   -2.675775   -5.718328
  H     -2.224699   -2.440707   -6.411759
  H     -2.777657   -4.032801   -4.099867
  H     -1.242190   -3.615599   -4.941980
  H     -1.968914   -2.377201   -3.845331

 Multiplicity           Mult            ....    1
 Number of Electrons    NEL             ....   18
 Basis Dimension        Dim             ....  172

ORBITAL ENERGIES
----------------

  NO   OCC          E(Eh)            E(eV)
   0   2.0000     -19.226680      -523.1846
   1   2.0000     -10.321205      -280.8543
   2   2.0000      -1.142025       -31.0761
   3   2.0000      -0.791838       -21.5470
   4   2.0000      -0.616419       -16.7736
   5   2.0000      -0.538118       -14.6429
   6   2.0000      -0.533954       -14.5296
   7   2.0000      -0.423413       -11.5217
   8   2.0000      -0.369458       -10.0535
   9   0.0000       0.094575         2.5735
  10   0.0000       0.119209         3.2438
  11   0.0000       0.153283         4.1710
  12   0.0000       0.192409         5.2357
  13   0.0000       0.192985         5.2514

MULLIKEN ATOMIC CHARGES
-----------------------
   0 C :    0.000201
   1 O :   -0.000093
   2 H :   -0.005182
   3 H :   -0.000239
   4 H :    0.000007
   5 H :   -0.000257
   6 C :   -0.149887
   7 O :   -0.474185
   8 H :    0.314539
   9 H :    0.121261
  10 H :    0.098460
  11 H :    0.095374
Sum of atomic charges:   -0.0000000

LOEWDIN ATOMIC CHARGES
----------------------
   0 C :   -0.002201
   1 O :   -0.004243
   2 H :   -0.026972
   3 H :   -0.000116
   4 H :   -0.000010
   5 H :   -0.000490
   6 C :   -0.397109
   7 O :   -0.040289
   8 H :    0.162144
   9 H :    0.111110
  10 H :    0.094273
  11 H :    0.103902

  Mayer bond orders larger than 0.1
B(  6-C ,  7-O ) :   0.9919 B(  6-C ,  9-H ) :   0.9689 B(  6-C , 10-H ) :   0.9841
B(  6-C , 11-H ) :   0.9746 B(  7-O ,  8-H ) :   0.8966

Dispersion correction           -0.000245657
FINAL SINGLE POINT ENERGY      -115.731330203789

DIPOLE MOMENT
-------------
                                X             Y             Z
Electronic contribution:     -0.98840       0.59287      -1.40327
Nuclear contribution   :      1.65323      -0.67648       1.35060
                        -----------------------------------------
Total Dipole Moment    :      0.66483      -0.08361      -0.05267
                        -----------------------------------------
Magnitude (a.u.)       :      0.67213
Magnitude (Debye)      :      1.70843

Rotational constants in cm-1:     4.191476     0.839942     0.816405
Rotational constants in MHz : 125657.274460 25180.817063 24475.197573

                             ****ORCA TERMINATED NORMALLY****
TOTAL RUN TIME: 0 days 0 hours 1 minutes 7 seconds 615 msec
