                         Program Version 4.1.2  - RELEASE  -
|  1> #Run DFT-D3 single point of the dimer
|  2> ! wB97X-D3 def2-TZVP TIGHTSCF CHELPG PMODEL PAL8
|  3>
|  4> %base "18-133_DFT_AB"
|  5>
|  6> %scf
|  7> MaxIter 1000
|  8> end
|  9>
| 10> * xyz 0 1
| 11>   C                      8.975860             6.983749             0.416720
| 12>   O                      8.086384             7.854023             -0.264035
| 13>   H                      8.109435             8.661414             0.109359
| 14>   H                      8.587323             5.946020             0.290470
| 15>   H                      9.905775             7.007106             -0.095493
| 16>   H                      9.124228             7.255210             1.408441
| 17>   C                      7.316150             4.315736             2.639256
| 18>   O                      6.591456             5.243610             3.419545
| 19>   H                      6.164695             4.581253             3.946942
| 20>   H                      8.375635             4.458791             2.782526
| 21>   H                      7.085207             3.298872             2.953924
| 22>   H                      6.965721             4.240085             1.594744
| 23> *
| 24>
| 25> #Run DFT-D3 single point of the molecule with dimer basis set
| 26> $new_job
| 27> %base "18-133_DFT_A"
| 28> ! wB97X-D3 def2-TZVP TIGHTSCF CHELPG PMODEL
| 29>
| 30> %scf
| 31> MaxIter 1000
| 32> end
| 33>
| 34> * xyz 0 1
| 35>   C                      8.975860             6.983749             0.416720
| 36>   O                      8.086384             7.854023             -0.264035
| 37>   H                      8.109435             8.661414             0.109359
| 38>   H                      8.587323             5.946020             0.290470
| 39>   H                      9.905775             7.007106             -0.095493
| 40>   H                      9.124228             7.255210             1.408441
| 41>   C                    : 7.316150             4.315736             2.639256
| 42>   O                    : 6.591456             5.243610             3.419545
| 43>   H                    : 6.164695             4.581253             3.946942
| 44>   H                    : 8.375635             4.458791             2.782526
| 45>   H                    : 7.085207             3.298872             2.953924
| 46>   H                    : 6.965721             4.240085             1.594744
| 47> *
| 48>
| 49> #Run DFT-D3 single point of the particle with dimer basis set
| 50> $new_job
| 51> %base "18-133_DFT_B"
| 52> ! wB97X-D3 def2-TZVP TIGHTSCF CHELPG PMODEL
| 53>
| 54> %scf
| 55> MaxIter 1000
| 56> end
| 57>
| 58> * xyz 0 1
| 59>   C                    : 8.975860             6.983749             0.416720
| 60>   O                    : 8.086384             7.854023             -0.264035
| 61>   H                    : 8.109435             8.661414             0.109359
| 62>   H                    : 8.587323             5.946020             0.290470
| 63>   H                    : 9.905775             7.007106             -0.095493
| 64>   H                    : 9.124228             7.255210             1.408441
| 65>   C                      7.316150             4.315736             2.639256
| 66>   O                      6.591456             5.243610             3.419545
| 67>   H                      6.164695             4.581253             3.946942
| 68>   H                      8.375635             4.458791             2.782526
| 69>   H                      7.085207             3.298872             2.953924
| 70>   H                      6.965721             4.240085             1.594744
| 71> *
| 72>
| 73>                          ****END OF INPUT****
 Total Charge           Charge          ....    0
 Multiplicity           Mult            ....    1
 Number of Electrons    NEL             ....   36
Dispersion correction           -0.001448097
FINAL SINGLE POINT ENERGY      -231.453443432377
Dispersion correction           -0.000223001
FINAL SINGLE POINT ENERGY      -115.727460549948

CARTESIAN COORDINATES (ANGSTROEM)
---------------------------------
  C      8.975860    6.983749    0.416720
  O      8.086384    7.854023   -0.264035
  H      8.109435    8.661414    0.109359
  H      8.587323    5.946020    0.290470
  H      9.905775    7.007106   -0.095493
  H      9.124228    7.255210    1.408441
  C      7.316150    4.315736    2.639256
  O      6.591456    5.243610    3.419545
  H      6.164695    4.581253    3.946942
  H      8.375635    4.458791    2.782526
  H      7.085207    3.298872    2.953924
  H      6.965721    4.240085    1.594744

 Multiplicity           Mult            ....    1
 Number of Electrons    NEL             ....   18
 Basis Dimension        Dim             ....  172

ORBITAL ENERGIES
----------------

  NO   OCC          E(Eh)            E(eV)
   0   2.0000     -19.232255      -523.3363
   1   2.0000     -10.313215      -280.6369
   2   2.0000      -1.149799       -31.2876
   3   2.0000      -0.792168       -21.5560
   4   2.0000      -0.616280       -16.7698
   5   2.0000      -0.553196       -15.0532
   6   2.0000      -0.520341       -14.1592
   7   2.0000      -0.438764       -11.9394
   8   2.0000      -0.378712       -10.3053
   9   0.0000       0.090960         2.4751
  10   0.0000       0.115870         3.1530
  11   0.0000       0.152448         4.1483
  12   0.0000       0.176406         4.8003
  13   0.0000       0.189651         5.1607

MULLIKEN ATOMIC CHARGES
-----------------------
   0 C :    0.002187
   1 O :   -0.000129
   2 H :   -0.000014
   3 H :   -0.001155
   4 H :    0.000166
   5 H :   -0.000326
   6 C :   -0.196194
   7 O :   -0.446409
   8 H :    0.315578
   9 H :    0.117712
  10 H :    0.100642
  11 H :    0.107942
Sum of atomic charges:   -0.0000000

LOEWDIN ATOMIC CHARGES
----------------------
   0 C :   -0.002153
   1 O :   -0.000007
   2 H :   -0.000004
   3 H :   -0.003227
   4 H :   -0.000008
   5 H :   -0.000260
   6 C :   -0.394672
   7 O :   -0.068132
   8 H :    0.170560
   9 H :    0.099719
  10 H :    0.095053
  11 H :    0.103132

  Mayer bond orders larger than 0.1
B(  6-C ,  7-O ) :   1.0115 B(  6-C ,  9-H ) :   0.9750 B(  6-C , 10-H ) :   0.9926
B(  6-C , 11-H ) :   0.9673 B(  7-O ,  8-H ) :   0.9063

Dispersion correction           -0.000212232
FINAL SINGLE POINT ENERGY      -115.725173501537

DIPOLE MOMENT
-------------
                                X             Y             Z
Electronic contribution:     -0.80984       1.50387       0.92146
Nuclear contribution   :      0.80064      -2.29236      -0.86525
                        -----------------------------------------
Total Dipole Moment    :     -0.00920      -0.78849       0.05621
                        -----------------------------------------
Magnitude (a.u.)       :      0.79054
Magnitude (Debye)      :      2.00940

Rotational constants in cm-1:     4.261734     0.843193     0.820612
Rotational constants in MHz : 127763.566716 25278.302249 24601.339340

                             ****ORCA TERMINATED NORMALLY****
TOTAL RUN TIME: 0 days 0 hours 0 minutes 52 seconds 451 msec
