                         Program Version 4.1.2  - RELEASE  -
|  1> #Run DFT-D3 single point of the dimer
|  2> ! wB97X-D3 def2-TZVP TIGHTSCF CHELPG PMODEL PAL8
|  3>
|  4> %base "12-86_DFT_AB"
|  5>
|  6> %scf
|  7> MaxIter 1000
|  8> end
|  9>
| 10> * xyz 0 1
| 11>   C                      -4.658780            -2.037883            7.649658
| 12>   O                      -5.337638            -1.572166            6.540238
| 13>   H                      -6.235660            -1.469603            6.901389
| 14>   H                      -3.612432            -1.652803            7.614765
| 15>   H                      -5.188026            -1.588476            8.460927
| 16>   H                      -4.629709            -3.094023            7.716798
| 17>   C                      -1.923196            -1.868327            4.730902
| 18>   O                      -0.792962            -0.994753            5.100044
| 19>   H                      -1.337108            -0.275077            5.466383
| 20>   H                      -1.945100            -1.997306            3.679924
| 21>   H                      -1.941094            -2.839486            5.228119
| 22>   H                      -2.894693            -1.394700            4.995180
| 23> *
| 24>
| 25> #Run DFT-D3 single point of the molecule with dimer basis set
| 26> $new_job
| 27> %base "12-86_DFT_A"
| 28> ! wB97X-D3 def2-TZVP TIGHTSCF CHELPG PMODEL
| 29>
| 30> %scf
| 31> MaxIter 1000
| 32> end
| 33>
| 34> * xyz 0 1
| 35>   C                      -4.658780            -2.037883            7.649658
| 36>   O                      -5.337638            -1.572166            6.540238
| 37>   H                      -6.235660            -1.469603            6.901389
| 38>   H                      -3.612432            -1.652803            7.614765
| 39>   H                      -5.188026            -1.588476            8.460927
| 40>   H                      -4.629709            -3.094023            7.716798
| 41>   C                    : -1.923196            -1.868327            4.730902
| 42>   O                    : -0.792962            -0.994753            5.100044
| 43>   H                    : -1.337108            -0.275077            5.466383
| 44>   H                    : -1.945100            -1.997306            3.679924
| 45>   H                    : -1.941094            -2.839486            5.228119
| 46>   H                    : -2.894693            -1.394700            4.995180
| 47> *
| 48>
| 49> #Run DFT-D3 single point of the particle with dimer basis set
| 50> $new_job
| 51> %base "12-86_DFT_B"
| 52> ! wB97X-D3 def2-TZVP TIGHTSCF CHELPG PMODEL
| 53>
| 54> %scf
| 55> MaxIter 1000
| 56> end
| 57>
| 58> * xyz 0 1
| 59>   C                    : -4.658780            -2.037883            7.649658
| 60>   O                    : -5.337638            -1.572166            6.540238
| 61>   H                    : -6.235660            -1.469603            6.901389
| 62>   H                    : -3.612432            -1.652803            7.614765
| 63>   H                    : -5.188026            -1.588476            8.460927
| 64>   H                    : -4.629709            -3.094023            7.716798
| 65>   C                      -1.923196            -1.868327            4.730902
| 66>   O                      -0.792962            -0.994753            5.100044
| 67>   H                      -1.337108            -0.275077            5.466383
| 68>   H                      -1.945100            -1.997306            3.679924
| 69>   H                      -1.941094            -2.839486            5.228119
| 70>   H                      -2.894693            -1.394700            4.995180
| 71> *
| 72>
| 73>                          ****END OF INPUT****
 Total Charge           Charge          ....    0
 Multiplicity           Mult            ....    1
 Number of Electrons    NEL             ....   36
Dispersion correction           -0.001597935
FINAL SINGLE POINT ENERGY      -231.458529660842
Dispersion correction           -0.000197371
FINAL SINGLE POINT ENERGY      -115.728190768540

CARTESIAN COORDINATES (ANGSTROEM)
---------------------------------
  C     -4.658780   -2.037883    7.649658
  O     -5.337638   -1.572166    6.540238
  H     -6.235660   -1.469603    6.901389
  H     -3.612432   -1.652803    7.614765
  H     -5.188026   -1.588476    8.460927
  H     -4.629709   -3.094023    7.716798
  C     -1.923196   -1.868327    4.730902
  O     -0.792962   -0.994753    5.100044
  H     -1.337108   -0.275077    5.466383
  H     -1.945100   -1.997306    3.679924
  H     -1.941094   -2.839486    5.228119
  H     -2.894693   -1.394700    4.995180

 Multiplicity           Mult            ....    1
 Number of Electrons    NEL             ....   18
 Basis Dimension        Dim             ....  172

ORBITAL ENERGIES
----------------

  NO   OCC          E(Eh)            E(eV)
   0   2.0000     -19.235831      -523.4336
   1   2.0000     -10.317157      -280.7441
   2   2.0000      -1.124245       -30.5923
   3   2.0000      -0.796335       -21.6694
   4   2.0000      -0.598277       -16.2799
   5   2.0000      -0.542066       -14.7504
   6   2.0000      -0.517117       -14.0715
   7   2.0000      -0.446155       -12.1405
   8   2.0000      -0.379678       -10.3316
   9   0.0000       0.077595         2.1115
  10   0.0000       0.114380         3.1124
  11   0.0000       0.150798         4.1034
  12   0.0000       0.158082         4.3016
  13   0.0000       0.193336         5.2609

MULLIKEN ATOMIC CHARGES
-----------------------
   0 C :   -0.004689
   1 O :    0.000707
   2 H :    0.000002
   3 H :    0.002180
   4 H :    0.000041
   5 H :    0.000507
   6 C :   -0.190215
   7 O :   -0.463931
   8 H :    0.317031
   9 H :    0.123111
  10 H :    0.115594
  11 H :    0.099663
Sum of atomic charges:    0.0000000

LOEWDIN ATOMIC CHARGES
----------------------
   0 C :   -0.003408
   1 O :   -0.001656
   2 H :   -0.000075
   3 H :   -0.001375
   4 H :   -0.000032
   5 H :   -0.000122
   6 C :   -0.348075
   7 O :   -0.122106
   8 H :    0.179219
   9 H :    0.093425
  10 H :    0.101472
  11 H :    0.102734

  Mayer bond orders larger than 0.1
B(  6-C ,  7-O ) :   1.0120 B(  6-C ,  9-H ) :   0.9734 B(  6-C , 10-H ) :   0.9720
B(  6-C , 11-H ) :   0.9909 B(  7-O ,  8-H ) :   0.9045

Dispersion correction           -0.000253074
FINAL SINGLE POINT ENERGY      -115.727921203573

DIPOLE MOMENT
-------------
                                X             Y             Z
Electronic contribution:      1.65460       0.92434       0.38923
Nuclear contribution   :     -2.45796      -0.83802      -0.32339
                        -----------------------------------------
Total Dipole Moment    :     -0.80336       0.08631       0.06584
                        -----------------------------------------
Magnitude (a.u.)       :      0.81066
Magnitude (Debye)      :      2.06054

Rotational constants in cm-1:     4.262070     0.784205     0.754809
Rotational constants in MHz : 127773.653580 23509.885011 22628.614801

                             ****ORCA TERMINATED NORMALLY****
TOTAL RUN TIME: 0 days 0 hours 0 minutes 59 seconds 444 msec
