                         Program Version 4.1.2  - RELEASE  -
|  1> #Run DFT-D3 single point of the dimer
|  2> ! wB97X-D3 def2-TZVP TIGHTSCF CHELPG PMODEL PAL8
|  3>
|  4> %base "12-28_DFT_AB"
|  5>
|  6> %scf
|  7> MaxIter 1000
|  8> end
|  9>
| 10> * xyz 0 1
| 11>   C                      5.213601             -6.424230            1.445439
| 12>   O                      5.630218             -5.208946            2.075847
| 13>   H                      5.563530             -4.576802            1.354313
| 14>   H                      5.329758             -7.331916            2.140380
| 15>   H                      4.144093             -6.377885            1.182249
| 16>   H                      5.866397             -6.714165            0.524728
| 17>   C                      8.409739             -2.753562            1.251528
| 18>   O                      9.660958             -3.028981            0.606621
| 19>   H                      10.358320            -2.491898            1.031269
| 20>   H                      8.498808             -2.476518            2.307472
| 21>   H                      7.906243             -1.899116            0.813379
| 22>   H                      7.694675             -3.587482            1.159274
| 23> *
| 24>
| 25> #Run DFT-D3 single point of the molecule with dimer basis set
| 26> $new_job
| 27> %base "12-28_DFT_A"
| 28> ! wB97X-D3 def2-TZVP TIGHTSCF CHELPG PMODEL
| 29>
| 30> %scf
| 31> MaxIter 1000
| 32> end
| 33>
| 34> * xyz 0 1
| 35>   C                      5.213601             -6.424230            1.445439
| 36>   O                      5.630218             -5.208946            2.075847
| 37>   H                      5.563530             -4.576802            1.354313
| 38>   H                      5.329758             -7.331916            2.140380
| 39>   H                      4.144093             -6.377885            1.182249
| 40>   H                      5.866397             -6.714165            0.524728
| 41>   C                    : 8.409739             -2.753562            1.251528
| 42>   O                    : 9.660958             -3.028981            0.606621
| 43>   H                    : 10.358320            -2.491898            1.031269
| 44>   H                    : 8.498808             -2.476518            2.307472
| 45>   H                    : 7.906243             -1.899116            0.813379
| 46>   H                    : 7.694675             -3.587482            1.159274
| 47> *
| 48>
| 49> #Run DFT-D3 single point of the particle with dimer basis set
| 50> $new_job
| 51> %base "12-28_DFT_B"
| 52> ! wB97X-D3 def2-TZVP TIGHTSCF CHELPG PMODEL
| 53>
| 54> %scf
| 55> MaxIter 1000
| 56> end
| 57>
| 58> * xyz 0 1
| 59>   C                    : 5.213601             -6.424230            1.445439
| 60>   O                    : 5.630218             -5.208946            2.075847
| 61>   H                    : 5.563530             -4.576802            1.354313
| 62>   H                    : 5.329758             -7.331916            2.140380
| 63>   H                    : 4.144093             -6.377885            1.182249
| 64>   H                    : 5.866397             -6.714165            0.524728
| 65>   C                      8.409739             -2.753562            1.251528
| 66>   O                      9.660958             -3.028981            0.606621
| 67>   H                      10.358320            -2.491898            1.031269
| 68>   H                      8.498808             -2.476518            2.307472
| 69>   H                      7.906243             -1.899116            0.813379
| 70>   H                      7.694675             -3.587482            1.159274
| 71> *
| 72>
| 73>                          ****END OF INPUT****
 Total Charge           Charge          ....    0
 Multiplicity           Mult            ....    1
 Number of Electrons    NEL             ....   36
Dispersion correction           -0.001282169
FINAL SINGLE POINT ENERGY      -231.465695260278
Dispersion correction           -0.000260361
FINAL SINGLE POINT ENERGY      -115.731022164112

CARTESIAN COORDINATES (ANGSTROEM)
---------------------------------
  C      5.213601   -6.424230    1.445439
  O      5.630218   -5.208946    2.075847
  H      5.563530   -4.576802    1.354313
  H      5.329758   -7.331916    2.140380
  H      4.144093   -6.377885    1.182249
  H      5.866397   -6.714165    0.524728
  C      8.409739   -2.753562    1.251528
  O      9.660958   -3.028981    0.606621
  H     10.358320   -2.491898    1.031269
  H      8.498808   -2.476518    2.307472
  H      7.906243   -1.899116    0.813379
  H      7.694675   -3.587482    1.159274

 Multiplicity           Mult            ....    1
 Number of Electrons    NEL             ....   18
 Basis Dimension        Dim             ....  172

ORBITAL ENERGIES
----------------

  NO   OCC          E(Eh)            E(eV)
   0   2.0000     -19.233241      -523.3631
   1   2.0000     -10.314823      -280.6806
   2   2.0000      -1.126710       -30.6593
   3   2.0000      -0.796730       -21.6801
   4   2.0000      -0.608861       -16.5679
   5   2.0000      -0.531361       -14.4591
   6   2.0000      -0.526919       -14.3382
   7   2.0000      -0.436916       -11.8891
   8   2.0000      -0.372882       -10.1466
   9   0.0000       0.086338         2.3494
  10   0.0000       0.113617         3.0917
  11   0.0000       0.142513         3.8780
  12   0.0000       0.183500         4.9933
  13   0.0000       0.187440         5.1005

MULLIKEN ATOMIC CHARGES
-----------------------
   0 C :   -0.000249
   1 O :   -0.000004
   2 H :   -0.000148
   3 H :   -0.000004
   4 H :    0.000004
   5 H :   -0.000011
   6 C :   -0.171509
   7 O :   -0.478315
   8 H :    0.317756
   9 H :    0.106484
  10 H :    0.102634
  11 H :    0.123363
Sum of atomic charges:   -0.0000000

LOEWDIN ATOMIC CHARGES
----------------------
   0 C :   -0.000386
   1 O :   -0.002031
   2 H :   -0.004113
   3 H :   -0.000004
   4 H :   -0.000002
   5 H :   -0.000054
   6 C :   -0.375103
   7 O :   -0.098180
   8 H :    0.178456
   9 H :    0.096711
  10 H :    0.093412
  11 H :    0.111295

  Mayer bond orders larger than 0.1
B(  6-C ,  7-O ) :   1.0080 B(  6-C ,  9-H ) :   0.9784 B(  6-C , 10-H ) :   0.9734
B(  6-C , 11-H ) :   0.9748 B(  7-O ,  8-H ) :   0.8956

Dispersion correction           -0.000264497
FINAL SINGLE POINT ENERGY      -115.734175921051

DIPOLE MOMENT
-------------
                                X             Y             Z
Electronic contribution:      1.59526      -0.51120      -0.91197
Nuclear contribution   :     -1.66387       0.97241       1.45386
                        -----------------------------------------
Total Dipole Moment    :     -0.06861       0.46121       0.54189
                        -----------------------------------------
Magnitude (a.u.)       :      0.71489
Magnitude (Debye)      :      1.81710

Rotational constants in cm-1:     4.374055     0.805368     0.770517
Rotational constants in MHz : 131130.868006 24144.332923 23099.513174

                             ****ORCA TERMINATED NORMALLY****
TOTAL RUN TIME: 0 days 0 hours 1 minutes 6 seconds 983 msec
