                         Program Version 4.1.2  - RELEASE  -
|  1> #Run DFT-D3 single point of the dimer
|  2> ! wB97X-D3 def2-TZVP TIGHTSCF CHELPG PMODEL PAL8
|  3>
|  4> %base "21-20_DFT_AB"
|  5>
|  6> %scf
|  7> MaxIter 1000
|  8> end
|  9>
| 10> * xyz 0 1
| 11>   C                      7.010154             -0.039045            -9.433605
| 12>   O                      8.270154             0.587972             -9.839625
| 13>   H                      8.487820             0.297724             -10.722834
| 14>   H                      6.245528             0.058010             -10.219982
| 15>   H                      7.161661             -1.110750            -9.489318
| 16>   H                      6.696794             0.214839             -8.443639
| 17>   C                      6.116449             -2.829464            -5.620753
| 18>   O                      6.255045             -2.353373            -6.959713
| 19>   H                      7.130615             -2.363186            -7.284429
| 20>   H                      7.038531             -3.072071            -5.237766
| 21>   H                      5.737454             -2.054060            -4.932750
| 22>   H                      5.437193             -3.696490            -5.586526
| 23> *
| 24>
| 25> #Run DFT-D3 single point of the molecule with dimer basis set
| 26> $new_job
| 27> %base "21-20_DFT_A"
| 28> ! wB97X-D3 def2-TZVP TIGHTSCF CHELPG PMODEL
| 29>
| 30> %scf
| 31> MaxIter 1000
| 32> end
| 33>
| 34> * xyz 0 1
| 35>   C                      7.010154             -0.039045            -9.433605
| 36>   O                      8.270154             0.587972             -9.839625
| 37>   H                      8.487820             0.297724             -10.722834
| 38>   H                      6.245528             0.058010             -10.219982
| 39>   H                      7.161661             -1.110750            -9.489318
| 40>   H                      6.696794             0.214839             -8.443639
| 41>   C                    : 6.116449             -2.829464            -5.620753
| 42>   O                    : 6.255045             -2.353373            -6.959713
| 43>   H                    : 7.130615             -2.363186            -7.284429
| 44>   H                    : 7.038531             -3.072071            -5.237766
| 45>   H                    : 5.737454             -2.054060            -4.932750
| 46>   H                    : 5.437193             -3.696490            -5.586526
| 47> *
| 48>
| 49> #Run DFT-D3 single point of the particle with dimer basis set
| 50> $new_job
| 51> %base "21-20_DFT_B"
| 52> ! wB97X-D3 def2-TZVP TIGHTSCF CHELPG PMODEL
| 53>
| 54> %scf
| 55> MaxIter 1000
| 56> end
| 57>
| 58> * xyz 0 1
| 59>   C                    : 7.010154             -0.039045            -9.433605
| 60>   O                    : 8.270154             0.587972             -9.839625
| 61>   H                    : 8.487820             0.297724             -10.722834
| 62>   H                    : 6.245528             0.058010             -10.219982
| 63>   H                    : 7.161661             -1.110750            -9.489318
| 64>   H                    : 6.696794             0.214839             -8.443639
| 65>   C                      6.116449             -2.829464            -5.620753
| 66>   O                      6.255045             -2.353373            -6.959713
| 67>   H                      7.130615             -2.363186            -7.284429
| 68>   H                      7.038531             -3.072071            -5.237766
| 69>   H                      5.737454             -2.054060            -4.932750
| 70>   H                      5.437193             -3.696490            -5.586526
| 71> *
| 72>
| 73>                          ****END OF INPUT****
 Total Charge           Charge          ....    0
 Multiplicity           Mult            ....    1
 Number of Electrons    NEL             ....   36
Dispersion correction           -0.001413154
FINAL SINGLE POINT ENERGY      -231.462166706100
Dispersion correction           -0.000245159
FINAL SINGLE POINT ENERGY      -115.729414965872

CARTESIAN COORDINATES (ANGSTROEM)
---------------------------------
  C      7.010154   -0.039045   -9.433605
  O      8.270154    0.587972   -9.839625
  H      8.487820    0.297724  -10.722834
  H      6.245528    0.058010  -10.219982
  H      7.161661   -1.110750   -9.489318
  H      6.696794    0.214839   -8.443639
  C      6.116449   -2.829464   -5.620753
  O      6.255045   -2.353373   -6.959713
  H      7.130615   -2.363186   -7.284429
  H      7.038531   -3.072071   -5.237766
  H      5.737454   -2.054060   -4.932750
  H      5.437193   -3.696490   -5.586526

 Multiplicity           Mult            ....    1
 Number of Electrons    NEL             ....   18
 Basis Dimension        Dim             ....  172

ORBITAL ENERGIES
----------------

  NO   OCC          E(Eh)            E(eV)
   0   2.0000     -19.224452      -523.1239
   1   2.0000     -10.310501      -280.5630
   2   2.0000      -1.132728       -30.8231
   3   2.0000      -0.805561       -21.9204
   4   2.0000      -0.618465       -16.8293
   5   2.0000      -0.537927       -14.6377
   6   2.0000      -0.531016       -14.4497
   7   2.0000      -0.429107       -11.6766
   8   2.0000      -0.374005       -10.1772
   9   0.0000       0.088855         2.4179
  10   0.0000       0.126102         3.4314
  11   0.0000       0.152680         4.1546
  12   0.0000       0.178050         4.8450
  13   0.0000       0.200927         5.4675

MULLIKEN ATOMIC CHARGES
-----------------------
   0 C :   -0.000193
   1 O :    0.000125
   2 H :    0.000013
   3 H :   -0.000554
   4 H :   -0.001431
   5 H :   -0.005078
   6 C :   -0.152771
   7 O :   -0.483452
   8 H :    0.316328
   9 H :    0.108322
  10 H :    0.108749
  11 H :    0.109942
Sum of atomic charges:   -0.0000000

LOEWDIN ATOMIC CHARGES
----------------------
   0 C :   -0.006551
   1 O :   -0.000029
   2 H :   -0.000008
   3 H :   -0.000083
   4 H :   -0.002025
   5 H :   -0.004169
   6 C :   -0.358633
   7 O :   -0.069404
   8 H :    0.150305
   9 H :    0.082117
  10 H :    0.104026
  11 H :    0.104457

  Mayer bond orders larger than 0.1
B(  6-C ,  7-O ) :   1.0030 B(  6-C ,  9-H ) :   0.9866 B(  6-C , 10-H ) :   0.9731
B(  6-C , 11-H ) :   0.9756 B(  7-O ,  8-H ) :   0.8993

Dispersion correction           -0.000254529
FINAL SINGLE POINT ENERGY      -115.730867647403

DIPOLE MOMENT
-------------
                                X             Y             Z
Electronic contribution:      0.10789       0.55633      -1.66671
Nuclear contribution   :      0.46098      -0.78033       2.04125
                        -----------------------------------------
Total Dipole Moment    :      0.56887      -0.22400       0.37454
                        -----------------------------------------
Magnitude (a.u.)       :      0.71699
Magnitude (Debye)      :      1.82244

Rotational constants in cm-1:     4.547155     0.809760     0.790927
Rotational constants in MHz : 136320.291997 24275.999195 23711.380148

                             ****ORCA TERMINATED NORMALLY****
TOTAL RUN TIME: 0 days 0 hours 0 minutes 53 seconds 755 msec
