                         Program Version 4.1.2  - RELEASE  -
|  1> #Run DFT-D3 single point of the dimer
|  2> ! wB97X-D3 def2-TZVP TIGHTSCF CHELPG PMODEL PAL8
|  3>
|  4> %base "17-199_DFT_AB"
|  5>
|  6> %scf
|  7> MaxIter 1000
|  8> end
|  9>
| 10> * xyz 0 1
| 11>   C                      6.769801             -2.772796            10.995444
| 12>   O                      6.182778             -1.999344            9.977291
| 13>   H                      6.396164             -1.025833            10.069774
| 14>   H                      6.127645             -2.585203            11.827728
| 15>   H                      6.563956             -3.867153            10.783993
| 16>   H                      7.803646             -2.444573            11.191624
| 17>   C                      8.316485             -0.194676            8.014045
| 18>   O                      7.250494             0.350291             8.744783
| 19>   H                      6.965261             1.010712             8.110370
| 20>   H                      7.953839             -0.592019            7.065110
| 21>   H                      9.178142             0.500925             7.832902
| 22>   H                      8.860935             -0.974677            8.575617
| 23> *
| 24>
| 25> #Run DFT-D3 single point of the molecule with dimer basis set
| 26> $new_job
| 27> %base "17-199_DFT_A"
| 28> ! wB97X-D3 def2-TZVP TIGHTSCF CHELPG PMODEL
| 29>
| 30> %scf
| 31> MaxIter 1000
| 32> end
| 33>
| 34> * xyz 0 1
| 35>   C                      6.769801             -2.772796            10.995444
| 36>   O                      6.182778             -1.999344            9.977291
| 37>   H                      6.396164             -1.025833            10.069774
| 38>   H                      6.127645             -2.585203            11.827728
| 39>   H                      6.563956             -3.867153            10.783993
| 40>   H                      7.803646             -2.444573            11.191624
| 41>   C                    : 8.316485             -0.194676            8.014045
| 42>   O                    : 7.250494             0.350291             8.744783
| 43>   H                    : 6.965261             1.010712             8.110370
| 44>   H                    : 7.953839             -0.592019            7.065110
| 45>   H                    : 9.178142             0.500925             7.832902
| 46>   H                    : 8.860935             -0.974677            8.575617
| 47> *
| 48>
| 49> #Run DFT-D3 single point of the particle with dimer basis set
| 50> $new_job
| 51> %base "17-199_DFT_B"
| 52> ! wB97X-D3 def2-TZVP TIGHTSCF CHELPG PMODEL
| 53>
| 54> %scf
| 55> MaxIter 1000
| 56> end
| 57>
| 58> * xyz 0 1
| 59>   C                    : 6.769801             -2.772796            10.995444
| 60>   O                    : 6.182778             -1.999344            9.977291
| 61>   H                    : 6.396164             -1.025833            10.069774
| 62>   H                    : 6.127645             -2.585203            11.827728
| 63>   H                    : 6.563956             -3.867153            10.783993
| 64>   H                    : 7.803646             -2.444573            11.191624
| 65>   C                      8.316485             -0.194676            8.014045
| 66>   O                      7.250494             0.350291             8.744783
| 67>   H                      6.965261             1.010712             8.110370
| 68>   H                      7.953839             -0.592019            7.065110
| 69>   H                      9.178142             0.500925             7.832902
| 70>   H                      8.860935             -0.974677            8.575617
| 71> *
| 72>
| 73>                          ****END OF INPUT****
 Total Charge           Charge          ....    0
 Multiplicity           Mult            ....    1
 Number of Electrons    NEL             ....   36
Dispersion correction           -0.001771367
FINAL SINGLE POINT ENERGY      -231.464366725102
Dispersion correction           -0.000227963
FINAL SINGLE POINT ENERGY      -115.727217892114

CARTESIAN COORDINATES (ANGSTROEM)
---------------------------------
  C      6.769801   -2.772796   10.995444
  O      6.182778   -1.999344    9.977291
  H      6.396164   -1.025833   10.069774
  H      6.127645   -2.585203   11.827728
  H      6.563956   -3.867153   10.783993
  H      7.803646   -2.444573   11.191624
  C      8.316485   -0.194676    8.014045
  O      7.250494    0.350291    8.744783
  H      6.965261    1.010712    8.110370
  H      7.953839   -0.592019    7.065110
  H      9.178142    0.500925    7.832902
  H      8.860935   -0.974677    8.575617

 Multiplicity           Mult            ....    1
 Number of Electrons    NEL             ....   18
 Basis Dimension        Dim             ....  172

ORBITAL ENERGIES
----------------

  NO   OCC          E(Eh)            E(eV)
   0   2.0000     -19.236469      -523.4509
   1   2.0000     -10.316564      -280.7280
   2   2.0000      -1.148974       -31.2652
   3   2.0000      -0.790133       -21.5006
   4   2.0000      -0.611454       -16.6385
   5   2.0000      -0.550806       -14.9882
   6   2.0000      -0.524563       -14.2741
   7   2.0000      -0.437942       -11.9170
   8   2.0000      -0.376170       -10.2361
   9   0.0000       0.096440         2.6243
  10   0.0000       0.120715         3.2848
  11   0.0000       0.152276         4.1437
  12   0.0000       0.185291         5.0420
  13   0.0000       0.200424         5.4538

MULLIKEN ATOMIC CHARGES
-----------------------
   0 C :    0.000423
   1 O :    0.000541
   2 H :   -0.009158
   3 H :   -0.000055
   4 H :   -0.000030
   5 H :   -0.000128
   6 C :   -0.180209
   7 O :   -0.443179
   8 H :    0.312323
   9 H :    0.102782
  10 H :    0.098285
  11 H :    0.118406
Sum of atomic charges:   -0.0000000

LOEWDIN ATOMIC CHARGES
----------------------
   0 C :   -0.000967
   1 O :   -0.006049
   2 H :   -0.027968
   3 H :   -0.000011
   4 H :   -0.000011
   5 H :   -0.000295
   6 C :   -0.408912
   7 O :   -0.035544
   8 H :    0.175659
   9 H :    0.093990
  10 H :    0.099346
  11 H :    0.110764

  Mayer bond orders larger than 0.1
B(  6-C ,  7-O ) :   0.9941 B(  6-C ,  9-H ) :   0.9803 B(  6-C , 10-H ) :   0.9653
B(  6-C , 11-H ) :   0.9759 B(  7-O ,  8-H ) :   0.9022

Dispersion correction           -0.000225426
FINAL SINGLE POINT ENERGY      -115.731553687788

DIPOLE MOMENT
-------------
                                X             Y             Z
Electronic contribution:     -1.50303       0.62026       1.10420
Nuclear contribution   :      1.73728      -0.42397      -1.75085
                        -----------------------------------------
Total Dipole Moment    :      0.23425       0.19629      -0.64666
                        -----------------------------------------
Magnitude (a.u.)       :      0.71524
Magnitude (Debye)      :      1.81799

Rotational constants in cm-1:     4.240316     0.842299     0.812756
Rotational constants in MHz : 127121.487452 25251.489641 24365.800072

                             ****ORCA TERMINATED NORMALLY****
TOTAL RUN TIME: 0 days 0 hours 1 minutes 11 seconds 180 msec
