                         Program Version 4.1.2  - RELEASE  -
|  1> #Run DFT-D3 single point of the dimer
|  2> ! wB97X-D3 def2-TZVP TIGHTSCF CHELPG PMODEL PAL8
|  3>
|  4> %base "8-151_DFT_AB"
|  5>
|  6> %scf
|  7> MaxIter 1000
|  8> end
|  9>
| 10> * xyz 0 1
| 11>   C                      6.699430             -5.657267            -0.260360
| 12>   O                      6.373375             -4.714772            0.735711
| 13>   H                      6.683855             -5.044267            1.572619
| 14>   H                      6.083675             -5.429119            -1.111410
| 15>   H                      7.752837             -5.548398            -0.640329
| 16>   H                      6.603195             -6.639985            0.122955
| 17>   C                      8.131034             -4.098034            -3.357246
| 18>   O                      8.111260             -5.572910            -3.332930
| 19>   H                      7.259613             -5.863973            -3.681288
| 20>   H                      8.439272             -3.714430            -4.309758
| 21>   H                      7.094736             -3.667843            -3.077161
| 22>   H                      8.918524             -3.830182            -2.565388
| 23> *
| 24>
| 25> #Run DFT-D3 single point of the molecule with dimer basis set
| 26> $new_job
| 27> %base "8-151_DFT_A"
| 28> ! wB97X-D3 def2-TZVP TIGHTSCF CHELPG PMODEL
| 29>
| 30> %scf
| 31> MaxIter 1000
| 32> end
| 33>
| 34> * xyz 0 1
| 35>   C                      6.699430             -5.657267            -0.260360
| 36>   O                      6.373375             -4.714772            0.735711
| 37>   H                      6.683855             -5.044267            1.572619
| 38>   H                      6.083675             -5.429119            -1.111410
| 39>   H                      7.752837             -5.548398            -0.640329
| 40>   H                      6.603195             -6.639985            0.122955
| 41>   C                    : 8.131034             -4.098034            -3.357246
| 42>   O                    : 8.111260             -5.572910            -3.332930
| 43>   H                    : 7.259613             -5.863973            -3.681288
| 44>   H                    : 8.439272             -3.714430            -4.309758
| 45>   H                    : 7.094736             -3.667843            -3.077161
| 46>   H                    : 8.918524             -3.830182            -2.565388
| 47> *
| 48>
| 49> #Run DFT-D3 single point of the particle with dimer basis set
| 50> $new_job
| 51> %base "8-151_DFT_B"
| 52> ! wB97X-D3 def2-TZVP TIGHTSCF CHELPG PMODEL
| 53>
| 54> %scf
| 55> MaxIter 1000
| 56> end
| 57>
| 58> * xyz 0 1
| 59>   C                    : 6.699430             -5.657267            -0.260360
| 60>   O                    : 6.373375             -4.714772            0.735711
| 61>   H                    : 6.683855             -5.044267            1.572619
| 62>   H                    : 6.083675             -5.429119            -1.111410
| 63>   H                    : 7.752837             -5.548398            -0.640329
| 64>   H                    : 6.603195             -6.639985            0.122955
| 65>   C                      8.131034             -4.098034            -3.357246
| 66>   O                      8.111260             -5.572910            -3.332930
| 67>   H                      7.259613             -5.863973            -3.681288
| 68>   H                      8.439272             -3.714430            -4.309758
| 69>   H                      7.094736             -3.667843            -3.077161
| 70>   H                      8.918524             -3.830182            -2.565388
| 71> *
| 72>
| 73>                          ****END OF INPUT****
 Total Charge           Charge          ....    0
 Multiplicity           Mult            ....    1
 Number of Electrons    NEL             ....   36
Dispersion correction           -0.002032236
FINAL SINGLE POINT ENERGY      -231.466784886170
Dispersion correction           -0.000233774
FINAL SINGLE POINT ENERGY      -115.734425537356

CARTESIAN COORDINATES (ANGSTROEM)
---------------------------------
  C      6.699430   -5.657267   -0.260360
  O      6.373375   -4.714772    0.735711
  H      6.683855   -5.044267    1.572619
  H      6.083675   -5.429119   -1.111410
  H      7.752837   -5.548398   -0.640329
  H      6.603195   -6.639985    0.122955
  C      8.131034   -4.098034   -3.357246
  O      8.111260   -5.572910   -3.332930
  H      7.259613   -5.863973   -3.681288
  H      8.439272   -3.714430   -4.309758
  H      7.094736   -3.667843   -3.077161
  H      8.918524   -3.830182   -2.565388

 Multiplicity           Mult            ....    1
 Number of Electrons    NEL             ....   18
 Basis Dimension        Dim             ....  172

ORBITAL ENERGIES
----------------

  NO   OCC          E(Eh)            E(eV)
   0   2.0000     -19.231065      -523.3039
   1   2.0000     -10.329278      -281.0739
   2   2.0000      -1.118198       -30.4277
   3   2.0000      -0.790097       -21.4996
   4   2.0000      -0.598416       -16.2837
   5   2.0000      -0.536590       -14.6014
   6   2.0000      -0.510991       -13.9048
   7   2.0000      -0.436232       -11.8705
   8   2.0000      -0.376491       -10.2448
   9   0.0000       0.088229         2.4008
  10   0.0000       0.123008         3.3472
  11   0.0000       0.146546         3.9877
  12   0.0000       0.172695         4.6993
  13   0.0000       0.191366         5.2073

MULLIKEN ATOMIC CHARGES
-----------------------
   0 C :    0.002805
   1 O :   -0.000362
   2 H :   -0.000030
   3 H :   -0.007142
   4 H :   -0.002090
   5 H :   -0.000261
   6 C :   -0.183533
   7 O :   -0.480550
   8 H :    0.312949
   9 H :    0.122833
  10 H :    0.109275
  11 H :    0.126107
Sum of atomic charges:   -0.0000000

LOEWDIN ATOMIC CHARGES
----------------------
   0 C :   -0.010000
   1 O :   -0.000051
   2 H :   -0.000019
   3 H :   -0.003304
   4 H :   -0.006448
   5 H :   -0.000144
   6 C :   -0.351084
   7 O :   -0.112448
   8 H :    0.164637
   9 H :    0.089623
  10 H :    0.107757
  11 H :    0.121481

  Mayer bond orders larger than 0.1
B(  6-C ,  7-O ) :   0.9805 B(  6-C ,  9-H ) :   0.9663 B(  6-C , 10-H ) :   0.9737
B(  6-C , 11-H ) :   0.9773 B(  7-O ,  8-H ) :   0.9011

Dispersion correction           -0.000277614
FINAL SINGLE POINT ENERGY      -115.730550096514

DIPOLE MOMENT
-------------
                                X             Y             Z
Electronic contribution:      0.11439      -1.75583      -0.03785
Nuclear contribution   :     -0.62865       2.19178      -0.21309
                        -----------------------------------------
Total Dipole Moment    :     -0.51426       0.43595      -0.25095
                        -----------------------------------------
Magnitude (a.u.)       :      0.71937
Magnitude (Debye)      :      1.82849

Rotational constants in cm-1:     4.002276     0.779399     0.745974
Rotational constants in MHz : 119985.229685 23365.782122 22363.744001

                             ****ORCA TERMINATED NORMALLY****
TOTAL RUN TIME: 0 days 0 hours 0 minutes 46 seconds 154 msec
