                         Program Version 4.1.2  - RELEASE  -
|  1> #Run DFT-D3 single point of the dimer
|  2> ! wB97X-D3 def2-TZVP TIGHTSCF CHELPG PMODEL PAL8
|  3>
|  4> %base "11-198_DFT_AB"
|  5>
|  6> %scf
|  7> MaxIter 1000
|  8> end
|  9>
| 10> * xyz 0 1
| 11>   C                      4.799980             6.006494             -5.167319
| 12>   O                      3.951177             6.217455             -4.023773
| 13>   H                      3.955789             5.362684             -3.580391
| 14>   H                      4.974411             6.973716             -5.687132
| 15>   H                      5.733022             5.639043             -4.789739
| 16>   H                      4.363213             5.250652             -5.814487
| 17>   C                      4.705725             8.901838             -1.620653
| 18>   O                      3.504029             8.280824             -2.084138
| 19>   H                      3.786292             7.682769             -2.794021
| 20>   H                      5.179210             9.653084             -2.296664
| 21>   H                      4.572387             9.390912             -0.647101
| 22>   H                      5.505550             8.207702             -1.522932
| 23> *
| 24>
| 25> #Run DFT-D3 single point of the molecule with dimer basis set
| 26> $new_job
| 27> %base "11-198_DFT_A"
| 28> ! wB97X-D3 def2-TZVP TIGHTSCF CHELPG PMODEL
| 29>
| 30> %scf
| 31> MaxIter 1000
| 32> end
| 33>
| 34> * xyz 0 1
| 35>   C                      4.799980             6.006494             -5.167319
| 36>   O                      3.951177             6.217455             -4.023773
| 37>   H                      3.955789             5.362684             -3.580391
| 38>   H                      4.974411             6.973716             -5.687132
| 39>   H                      5.733022             5.639043             -4.789739
| 40>   H                      4.363213             5.250652             -5.814487
| 41>   C                    : 4.705725             8.901838             -1.620653
| 42>   O                    : 3.504029             8.280824             -2.084138
| 43>   H                    : 3.786292             7.682769             -2.794021
| 44>   H                    : 5.179210             9.653084             -2.296664
| 45>   H                    : 4.572387             9.390912             -0.647101
| 46>   H                    : 5.505550             8.207702             -1.522932
| 47> *
| 48>
| 49> #Run DFT-D3 single point of the particle with dimer basis set
| 50> $new_job
| 51> %base "11-198_DFT_B"
| 52> ! wB97X-D3 def2-TZVP TIGHTSCF CHELPG PMODEL
| 53>
| 54> %scf
| 55> MaxIter 1000
| 56> end
| 57>
| 58> * xyz 0 1
| 59>   C                    : 4.799980             6.006494             -5.167319
| 60>   O                    : 3.951177             6.217455             -4.023773
| 61>   H                    : 3.955789             5.362684             -3.580391
| 62>   H                    : 4.974411             6.973716             -5.687132
| 63>   H                    : 5.733022             5.639043             -4.789739
| 64>   H                    : 4.363213             5.250652             -5.814487
| 65>   C                      4.705725             8.901838             -1.620653
| 66>   O                      3.504029             8.280824             -2.084138
| 67>   H                      3.786292             7.682769             -2.794021
| 68>   H                      5.179210             9.653084             -2.296664
| 69>   H                      4.572387             9.390912             -0.647101
| 70>   H                      5.505550             8.207702             -1.522932
| 71> *
| 72>
| 73>                          ****END OF INPUT****
 Total Charge           Charge          ....    0
 Multiplicity           Mult            ....    1
 Number of Electrons    NEL             ....   36
Dispersion correction           -0.001582138
FINAL SINGLE POINT ENERGY      -231.476302630842
Dispersion correction           -0.000217154
FINAL SINGLE POINT ENERGY      -115.734839287212

CARTESIAN COORDINATES (ANGSTROEM)
---------------------------------
  C      4.799980    6.006494   -5.167319
  O      3.951177    6.217455   -4.023773
  H      3.955789    5.362684   -3.580391
  H      4.974411    6.973716   -5.687132
  H      5.733022    5.639043   -4.789739
  H      4.363213    5.250652   -5.814487
  C      4.705725    8.901838   -1.620653
  O      3.504029    8.280824   -2.084138
  H      3.786292    7.682769   -2.794021
  H      5.179210    9.653084   -2.296664
  H      4.572387    9.390912   -0.647101
  H      5.505550    8.207702   -1.522932

 Multiplicity           Mult            ....    1
 Number of Electrons    NEL             ....   18
 Basis Dimension        Dim             ....  172

ORBITAL ENERGIES
----------------

  NO   OCC          E(Eh)            E(eV)
   0   2.0000     -19.236634      -523.4554
   1   2.0000     -10.314180      -280.6631
   2   2.0000      -1.133376       -30.8407
   3   2.0000      -0.797408       -21.6986
   4   2.0000      -0.613685       -16.6992
   5   2.0000      -0.529818       -14.4171
   6   2.0000      -0.526863       -14.3367
   7   2.0000      -0.443677       -12.0731
   8   2.0000      -0.374382       -10.1875
   9   0.0000       0.067271         1.8305
  10   0.0000       0.132038         3.5929
  11   0.0000       0.144991         3.9454
  12   0.0000       0.165705         4.5091
  13   0.0000       0.189919         5.1679

MULLIKEN ATOMIC CHARGES
-----------------------
   0 C :   -0.000732
   1 O :   -0.002717
   2 H :   -0.000659
   3 H :   -0.000071
   4 H :    0.000055
   5 H :   -0.000036
   6 C :   -0.178163
   7 O :   -0.461609
   8 H :    0.312888
   9 H :    0.099099
  10 H :    0.123733
  11 H :    0.108214
Sum of atomic charges:   -0.0000000

LOEWDIN ATOMIC CHARGES
----------------------
   0 C :   -0.002378
   1 O :   -0.021038
   2 H :   -0.001933
   3 H :   -0.000204
   4 H :   -0.000057
   5 H :   -0.000071
   6 C :   -0.381915
   7 O :   -0.075822
   8 H :    0.186868
   9 H :    0.097878
  10 H :    0.109978
  11 H :    0.088693

  Mayer bond orders larger than 0.1
B(  6-C ,  7-O ) :   0.9993 B(  6-C ,  9-H ) :   0.9700 B(  6-C , 10-H ) :   0.9748
B(  6-C , 11-H ) :   0.9780 B(  7-O ,  8-H ) :   0.9063

Dispersion correction           -0.000255762
FINAL SINGLE POINT ENERGY      -115.733032325762

DIPOLE MOMENT
-------------
                                X             Y             Z
Electronic contribution:     -1.75494      -0.75388      -0.46850
Nuclear contribution   :      2.42358       0.60751       0.22726
                        -----------------------------------------
Total Dipole Moment    :      0.66864      -0.14637      -0.24124
                        -----------------------------------------
Magnitude (a.u.)       :      0.72574
Magnitude (Debye)      :      1.84467

Rotational constants in cm-1:     4.403709     0.811605     0.775102
Rotational constants in MHz : 132019.860689 24331.318198 23236.974955

                             ****ORCA TERMINATED NORMALLY****
TOTAL RUN TIME: 0 days 0 hours 1 minutes 5 seconds 840 msec
