                         Program Version 4.1.2  - RELEASE  -
|  1> #Run DFT-D3 single point of the dimer
|  2> ! wB97X-D3 def2-TZVP TIGHTSCF CHELPG PMODEL PAL8
|  3>
|  4> %base "14-71_DFT_AB"
|  5>
|  6> %scf
|  7> MaxIter 1000
|  8> end
|  9>
| 10> * xyz 0 1
| 11>   C                      -7.703937            4.864431             7.544231
| 12>   O                      -8.044865            6.226566             7.754114
| 13>   H                      -8.552644            6.657544             7.051836
| 14>   H                      -8.567473            4.275343             7.272627
| 15>   H                      -6.941389            4.675493             6.753926
| 16>   H                      -7.290078            4.411499             8.488377
| 17>   C                      -3.954571            1.031341             8.637130
| 18>   O                      -4.137439            0.344874             9.855359
| 19>   H                      -3.949759            0.977031             10.528426
| 20>   H                      -2.901997            1.319992             8.390661
| 21>   H                      -4.152900            0.485042             7.742376
| 22>   H                      -4.483520            2.000023             8.705440
| 23> *
| 24>
| 25> #Run DFT-D3 single point of the molecule with dimer basis set
| 26> $new_job
| 27> %base "14-71_DFT_A"
| 28> ! wB97X-D3 def2-TZVP TIGHTSCF CHELPG PMODEL
| 29>
| 30> %scf
| 31> MaxIter 1000
| 32> end
| 33>
| 34> * xyz 0 1
| 35>   C                      -7.703937            4.864431             7.544231
| 36>   O                      -8.044865            6.226566             7.754114
| 37>   H                      -8.552644            6.657544             7.051836
| 38>   H                      -8.567473            4.275343             7.272627
| 39>   H                      -6.941389            4.675493             6.753926
| 40>   H                      -7.290078            4.411499             8.488377
| 41>   C                    : -3.954571            1.031341             8.637130
| 42>   O                    : -4.137439            0.344874             9.855359
| 43>   H                    : -3.949759            0.977031             10.528426
| 44>   H                    : -2.901997            1.319992             8.390661
| 45>   H                    : -4.152900            0.485042             7.742376
| 46>   H                    : -4.483520            2.000023             8.705440
| 47> *
| 48>
| 49> #Run DFT-D3 single point of the particle with dimer basis set
| 50> $new_job
| 51> %base "14-71_DFT_B"
| 52> ! wB97X-D3 def2-TZVP TIGHTSCF CHELPG PMODEL
| 53>
| 54> %scf
| 55> MaxIter 1000
| 56> end
| 57>
| 58> * xyz 0 1
| 59>   C                    : -7.703937            4.864431             7.544231
| 60>   O                    : -8.044865            6.226566             7.754114
| 61>   H                    : -8.552644            6.657544             7.051836
| 62>   H                    : -8.567473            4.275343             7.272627
| 63>   H                    : -6.941389            4.675493             6.753926
| 64>   H                    : -7.290078            4.411499             8.488377
| 65>   C                      -3.954571            1.031341             8.637130
| 66>   O                      -4.137439            0.344874             9.855359
| 67>   H                      -3.949759            0.977031             10.528426
| 68>   H                      -2.901997            1.319992             8.390661
| 69>   H                      -4.152900            0.485042             7.742376
| 70>   H                      -4.483520            2.000023             8.705440
| 71> *
| 72>
| 73>                          ****END OF INPUT****
 Total Charge           Charge          ....    0
 Multiplicity           Mult            ....    1
 Number of Electrons    NEL             ....   36
Dispersion correction           -0.000719746
FINAL SINGLE POINT ENERGY      -231.463073821349
Dispersion correction           -0.000279199
FINAL SINGLE POINT ENERGY      -115.733453151246

CARTESIAN COORDINATES (ANGSTROEM)
---------------------------------
  C     -7.703937    4.864431    7.544231
  O     -8.044865    6.226566    7.754114
  H     -8.552644    6.657544    7.051836
  H     -8.567473    4.275343    7.272627
  H     -6.941389    4.675493    6.753926
  H     -7.290078    4.411499    8.488377
  C     -3.954571    1.031341    8.637130
  O     -4.137439    0.344874    9.855359
  H     -3.949759    0.977031   10.528426
  H     -2.901997    1.319992    8.390661
  H     -4.152900    0.485042    7.742376
  H     -4.483520    2.000023    8.705440

 Multiplicity           Mult            ....    1
 Number of Electrons    NEL             ....   18
 Basis Dimension        Dim             ....  172

ORBITAL ENERGIES
----------------

  NO   OCC          E(Eh)            E(eV)
   0   2.0000     -19.232613      -523.3460
   1   2.0000     -10.314927      -280.6834
   2   2.0000      -1.144542       -31.1446
   3   2.0000      -0.798232       -21.7210
   4   2.0000      -0.615467       -16.7477
   5   2.0000      -0.551138       -14.9972
   6   2.0000      -0.520916       -14.1748
   7   2.0000      -0.438546       -11.9335
   8   2.0000      -0.371130       -10.0989
   9   0.0000       0.082494         2.2448
  10   0.0000       0.114981         3.1288
  11   0.0000       0.144938         3.9440
  12   0.0000       0.163993         4.4625
  13   0.0000       0.192480         5.2377

MULLIKEN ATOMIC CHARGES
-----------------------
   0 C :    0.000004
   1 O :   -0.000003
   2 H :   -0.000000
   3 H :   -0.000012
   4 H :   -0.000074
   5 H :   -0.000072
   6 C :   -0.172054
   7 O :   -0.459802
   8 H :    0.313689
   9 H :    0.088843
  10 H :    0.126711
  11 H :    0.102771
Sum of atomic charges:   -0.0000000

LOEWDIN ATOMIC CHARGES
----------------------
   0 C :   -0.000142
   1 O :   -0.000002
   2 H :   -0.000000
   3 H :   -0.000001
   4 H :   -0.000045
   5 H :   -0.000152
   6 C :   -0.395937
   7 O :   -0.062594
   8 H :    0.161424
   9 H :    0.095925
  10 H :    0.103002
  11 H :    0.098522

  Mayer bond orders larger than 0.1
B(  6-C ,  7-O ) :   1.0025 B(  6-C ,  9-H ) :   0.9683 B(  6-C , 10-H ) :   0.9725
B(  6-C , 11-H ) :   0.9864 B(  7-O ,  8-H ) :   0.9033

Dispersion correction           -0.000240866
FINAL SINGLE POINT ENERGY      -115.729336802981

DIPOLE MOMENT
-------------
                                X             Y             Z
Electronic contribution:     -0.41576      -1.16381       1.54434
Nuclear contribution   :      0.61187       1.81949      -1.60288
                        -----------------------------------------
Total Dipole Moment    :      0.19612       0.65568      -0.05854
                        -----------------------------------------
Magnitude (a.u.)       :      0.68688
Magnitude (Debye)      :      1.74590

Rotational constants in cm-1:     4.434824     0.830228     0.795083
Rotational constants in MHz : 132952.692983 24889.597280 23835.987984

                             ****ORCA TERMINATED NORMALLY****
TOTAL RUN TIME: 0 days 0 hours 0 minutes 51 seconds 969 msec
