                         Program Version 4.1.2  - RELEASE  -
|  1> #Run DFT-D3 single point of the dimer
|  2> ! wB97X-D3 def2-TZVP TIGHTSCF CHELPG PMODEL PAL8
|  3>
|  4> %base "9-131_DFT_AB"
|  5>
|  6> %scf
|  7> MaxIter 1000
|  8> end
|  9>
| 10> * xyz 0 1
| 11>   C                      3.579629             8.937106             8.769352
| 12>   O                      4.024011             9.179831             7.436745
| 13>   H                      4.437202             8.392285             7.075693
| 14>   H                      3.770762             9.820385             9.402602
| 15>   H                      2.595479             8.630090             8.898085
| 16>   H                      4.210503             8.153010             9.170169
| 17>   C                      7.552119             9.311828             7.302262
| 18>   O                      8.424865             8.236873             7.635050
| 19>   H                      8.038297             7.903594             8.514994
| 20>   H                      6.469145             9.194875             7.344775
| 21>   H                      7.737204             10.092626            8.002545
| 22>   H                      7.867313             9.844927             6.504650
| 23> *
| 24>
| 25> #Run DFT-D3 single point of the molecule with dimer basis set
| 26> $new_job
| 27> %base "9-131_DFT_A"
| 28> ! wB97X-D3 def2-TZVP TIGHTSCF CHELPG PMODEL
| 29>
| 30> %scf
| 31> MaxIter 1000
| 32> end
| 33>
| 34> * xyz 0 1
| 35>   C                      3.579629             8.937106             8.769352
| 36>   O                      4.024011             9.179831             7.436745
| 37>   H                      4.437202             8.392285             7.075693
| 38>   H                      3.770762             9.820385             9.402602
| 39>   H                      2.595479             8.630090             8.898085
| 40>   H                      4.210503             8.153010             9.170169
| 41>   C                    : 7.552119             9.311828             7.302262
| 42>   O                    : 8.424865             8.236873             7.635050
| 43>   H                    : 8.038297             7.903594             8.514994
| 44>   H                    : 6.469145             9.194875             7.344775
| 45>   H                    : 7.737204             10.092626            8.002545
| 46>   H                    : 7.867313             9.844927             6.504650
| 47> *
| 48>
| 49> #Run DFT-D3 single point of the particle with dimer basis set
| 50> $new_job
| 51> %base "9-131_DFT_B"
| 52> ! wB97X-D3 def2-TZVP TIGHTSCF CHELPG PMODEL
| 53>
| 54> %scf
| 55> MaxIter 1000
| 56> end
| 57>
| 58> * xyz 0 1
| 59>   C                    : 3.579629             8.937106             8.769352
| 60>   O                    : 4.024011             9.179831             7.436745
| 61>   H                    : 4.437202             8.392285             7.075693
| 62>   H                    : 3.770762             9.820385             9.402602
| 63>   H                    : 2.595479             8.630090             8.898085
| 64>   H                    : 4.210503             8.153010             9.170169
| 65>   C                      7.552119             9.311828             7.302262
| 66>   O                      8.424865             8.236873             7.635050
| 67>   H                      8.038297             7.903594             8.514994
| 68>   H                      6.469145             9.194875             7.344775
| 69>   H                      7.737204             10.092626            8.002545
| 70>   H                      7.867313             9.844927             6.504650
| 71> *
| 72>
| 73>                          ****END OF INPUT****
 Total Charge           Charge          ....    0
 Multiplicity           Mult            ....    1
 Number of Electrons    NEL             ....   36
Dispersion correction           -0.001584885
FINAL SINGLE POINT ENERGY      -231.450735613537
Dispersion correction           -0.000244850
FINAL SINGLE POINT ENERGY      -115.732275524491

CARTESIAN COORDINATES (ANGSTROEM)
---------------------------------
  C      3.579629    8.937106    8.769352
  O      4.024011    9.179831    7.436745
  H      4.437202    8.392285    7.075693
  H      3.770762    9.820385    9.402602
  H      2.595479    8.630090    8.898085
  H      4.210503    8.153010    9.170169
  C      7.552119    9.311828    7.302262
  O      8.424865    8.236873    7.635050
  H      8.038297    7.903594    8.514994
  H      6.469145    9.194875    7.344775
  H      7.737204   10.092626    8.002545
  H      7.867313    9.844927    6.504650

 Multiplicity           Mult            ....    1
 Number of Electrons    NEL             ....   18
 Basis Dimension        Dim             ....  172

ORBITAL ENERGIES
----------------

  NO   OCC          E(Eh)            E(eV)
   0   2.0000     -19.238996      -523.5197
   1   2.0000     -10.299872      -280.2738
   2   2.0000      -1.126984       -30.6668
   3   2.0000      -0.805892       -21.9294
   4   2.0000      -0.605485       -16.4761
   5   2.0000      -0.543460       -14.7883
   6   2.0000      -0.525125       -14.2894
   7   2.0000      -0.444058       -12.0834
   8   2.0000      -0.369872       -10.0647
   9   0.0000       0.076814         2.0902
  10   0.0000       0.114490         3.1154
  11   0.0000       0.150500         4.0953
  12   0.0000       0.165292         4.4978
  13   0.0000       0.191690         5.2162

MULLIKEN ATOMIC CHARGES
-----------------------
   0 C :   -0.001233
   1 O :    0.000880
   2 H :    0.000961
   3 H :   -0.000098
   4 H :    0.000091
   5 H :    0.000417
   6 C :   -0.188496
   7 O :   -0.468529
   8 H :    0.318137
   9 H :    0.102884
  10 H :    0.109580
  11 H :    0.125405
Sum of atomic charges:    0.0000000

LOEWDIN ATOMIC CHARGES
----------------------
   0 C :   -0.002211
   1 O :   -0.006172
   2 H :   -0.005590
   3 H :   -0.000114
   4 H :   -0.000026
   5 H :   -0.000262
   6 C :   -0.383679
   7 O :   -0.099904
   8 H :    0.204859
   9 H :    0.104617
  10 H :    0.097093
  11 H :    0.091388

  Mayer bond orders larger than 0.1
B(  6-C ,  7-O ) :   1.0003 B(  6-C ,  9-H ) :   0.9690 B(  6-C , 10-H ) :   0.9882
B(  6-C , 11-H ) :   0.9749 B(  7-O ,  8-H ) :   0.8948

Dispersion correction           -0.000236074
FINAL SINGLE POINT ENERGY      -115.717465476917

DIPOLE MOMENT
-------------
                                X             Y             Z
Electronic contribution:      1.16034      -1.56160       0.08085
Nuclear contribution   :     -1.70798       1.83308       0.32799
                        -----------------------------------------
Total Dipole Moment    :     -0.54764       0.27148       0.40883
                        -----------------------------------------
Magnitude (a.u.)       :      0.73536
Magnitude (Debye)      :      1.86914

Rotational constants in cm-1:     4.549787     0.825821     0.787841
Rotational constants in MHz : 136399.189376 24757.477662 23618.870066

                             ****ORCA TERMINATED NORMALLY****
TOTAL RUN TIME: 0 days 0 hours 0 minutes 43 seconds 830 msec
