                         Program Version 4.1.2  - RELEASE  -
|  1> #Run DFT-D3 single point of the dimer
|  2> ! wB97X-D3 def2-TZVP TIGHTSCF CHELPG PMODEL PAL8
|  3>
|  4> %base "16-38_DFT_AB"
|  5>
|  6> %scf
|  7> MaxIter 1000
|  8> end
|  9>
| 10> * xyz 0 1
| 11>   C                      -9.607152            5.117939             10.317156
| 12>   O                      -9.368994            5.737735             9.035976
| 13>   H                      -8.398916            5.941708             9.107230
| 14>   H                      -9.158430            4.141483             10.316364
| 15>   H                      -9.168728            5.705296             11.156317
| 16>   H                      -10.756930           5.109507             10.406257
| 17>   C                      -9.920008            8.883950             6.843420
| 18>   O                      -9.676618            10.235881            6.367285
| 19>   H                      -10.460500           10.736840            6.502971
| 20>   H                      -10.574296           8.794333             7.667369
| 21>   H                      -10.354068           8.266734             6.057869
| 22>   H                      -8.961995            8.431970             7.171665
| 23> *
| 24>
| 25> #Run DFT-D3 single point of the molecule with dimer basis set
| 26> $new_job
| 27> %base "16-38_DFT_A"
| 28> ! wB97X-D3 def2-TZVP TIGHTSCF CHELPG PMODEL
| 29>
| 30> %scf
| 31> MaxIter 1000
| 32> end
| 33>
| 34> * xyz 0 1
| 35>   C                      -9.607152            5.117939             10.317156
| 36>   O                      -9.368994            5.737735             9.035976
| 37>   H                      -8.398916            5.941708             9.107230
| 38>   H                      -9.158430            4.141483             10.316364
| 39>   H                      -9.168728            5.705296             11.156317
| 40>   H                      -10.756930           5.109507             10.406257
| 41>   C                    : -9.920008            8.883950             6.843420
| 42>   O                    : -9.676618            10.235881            6.367285
| 43>   H                    : -10.460500           10.736840            6.502971
| 44>   H                    : -10.574296           8.794333             7.667369
| 45>   H                    : -10.354068           8.266734             6.057869
| 46>   H                    : -8.961995            8.431970             7.171665
| 47> *
| 48>
| 49> #Run DFT-D3 single point of the particle with dimer basis set
| 50> $new_job
| 51> %base "16-38_DFT_B"
| 52> ! wB97X-D3 def2-TZVP TIGHTSCF CHELPG PMODEL
| 53>
| 54> %scf
| 55> MaxIter 1000
| 56> end
| 57>
| 58> * xyz 0 1
| 59>   C                    : -9.607152            5.117939             10.317156
| 60>   O                    : -9.368994            5.737735             9.035976
| 61>   H                    : -8.398916            5.941708             9.107230
| 62>   H                    : -9.158430            4.141483             10.316364
| 63>   H                    : -9.168728            5.705296             11.156317
| 64>   H                    : -10.756930           5.109507             10.406257
| 65>   C                      -9.920008            8.883950             6.843420
| 66>   O                      -9.676618            10.235881            6.367285
| 67>   H                      -10.460500           10.736840            6.502971
| 68>   H                      -10.574296           8.794333             7.667369
| 69>   H                      -10.354068           8.266734             6.057869
| 70>   H                      -8.961995            8.431970             7.171665
| 71> *
| 72>
| 73>                          ****END OF INPUT****
 Total Charge           Charge          ....    0
 Multiplicity           Mult            ....    1
 Number of Electrons    NEL             ....   36
Dispersion correction           -0.001093217
FINAL SINGLE POINT ENERGY      -231.465489725012
Dispersion correction           -0.000229781
FINAL SINGLE POINT ENERGY      -115.730629883485

CARTESIAN COORDINATES (ANGSTROEM)
---------------------------------
  C     -9.607152    5.117939   10.317156
  O     -9.368994    5.737735    9.035976
  H     -8.398916    5.941708    9.107230
  H     -9.158430    4.141483   10.316364
  H     -9.168728    5.705296   11.156317
  H    -10.756930    5.109507   10.406257
  C     -9.920008    8.883950    6.843420
  O     -9.676618   10.235881    6.367285
  H    -10.460500   10.736840    6.502971
  H    -10.574296    8.794333    7.667369
  H    -10.354068    8.266734    6.057869
  H     -8.961995    8.431970    7.171665

 Multiplicity           Mult            ....    1
 Number of Electrons    NEL             ....   18
 Basis Dimension        Dim             ....  172

ORBITAL ENERGIES
----------------

  NO   OCC          E(Eh)            E(eV)
   0   2.0000     -19.229115      -523.2508
   1   2.0000     -10.313639      -280.6484
   2   2.0000      -1.128466       -30.7071
   3   2.0000      -0.802131       -21.8271
   4   2.0000      -0.610953       -16.6249
   5   2.0000      -0.537188       -14.6176
   6   2.0000      -0.518425       -14.1071
   7   2.0000      -0.440614       -11.9897
   8   2.0000      -0.376513       -10.2454
   9   0.0000       0.081721         2.2237
  10   0.0000       0.118863         3.2344
  11   0.0000       0.138644         3.7727
  12   0.0000       0.169703         4.6178
  13   0.0000       0.192007         5.2248

MULLIKEN ATOMIC CHARGES
-----------------------
   0 C :   -0.000052
   1 O :    0.000010
   2 H :   -0.000288
   3 H :   -0.000002
   4 H :   -0.000004
   5 H :    0.000007
   6 C :   -0.173009
   7 O :   -0.476530
   8 H :    0.310131
   9 H :    0.112093
  10 H :    0.108857
  11 H :    0.118787
Sum of atomic charges:   -0.0000000

LOEWDIN ATOMIC CHARGES
----------------------
   0 C :   -0.000062
   1 O :   -0.000454
   2 H :   -0.000512
   3 H :   -0.000002
   4 H :   -0.000002
   5 H :   -0.000005
   6 C :   -0.354205
   7 O :   -0.093137
   8 H :    0.152043
   9 H :    0.087775
  10 H :    0.096789
  11 H :    0.111772

  Mayer bond orders larger than 0.1
B(  6-C ,  7-O ) :   1.0002 B(  6-C ,  9-H ) :   0.9745 B(  6-C , 10-H ) :   0.9740
B(  6-C , 11-H ) :   0.9766 B(  7-O ,  8-H ) :   0.9058

Dispersion correction           -0.000263407
FINAL SINGLE POINT ENERGY      -115.733426404136

DIPOLE MOMENT
-------------
                                X             Y             Z
Electronic contribution:      0.38285       1.71198      -0.59804
Nuclear contribution   :     -1.00410      -1.95430       0.91011
                        -----------------------------------------
Total Dipole Moment    :     -0.62125      -0.24232       0.31208
                        -----------------------------------------
Magnitude (a.u.)       :      0.73625
Magnitude (Debye)      :      1.87139

Rotational constants in cm-1:     4.445876     0.790948     0.765334
Rotational constants in MHz : 133284.002909 23712.025604 22944.135164

                             ****ORCA TERMINATED NORMALLY****
TOTAL RUN TIME: 0 days 0 hours 1 minutes 1 seconds 924 msec
