                         Program Version 4.1.2  - RELEASE  -
|  1> #Run DFT-D3 single point of the dimer
|  2> ! wB97X-D3 def2-TZVP TIGHTSCF CHELPG PMODEL PAL8
|  3>
|  4> %base "12-109_DFT_AB"
|  5>
|  6> %scf
|  7> MaxIter 1000
|  8> end
|  9>
| 10> * xyz 0 1
| 11>   C                      0.660958             5.234501             6.568248
| 12>   O                      1.793988             4.917370             7.403906
| 13>   H                      1.654328             3.934204             7.551554
| 14>   H                      0.805839             4.909714             5.553898
| 15>   H                      -0.204570            4.628391             6.807331
| 16>   H                      0.475641             6.293078             6.607980
| 17>   C                      3.046509             2.841891             9.192081
| 18>   O                      2.285587             2.160725             8.257124
| 19>   H                      2.375504             1.211638             8.317500
| 20>   H                      2.774781             2.634225             10.203713
| 21>   H                      4.106382             2.650446             9.060975
| 22>   H                      2.831567             3.885847             9.093850
| 23> *
| 24>
| 25> #Run DFT-D3 single point of the molecule with dimer basis set
| 26> $new_job
| 27> %base "12-109_DFT_A"
| 28> ! wB97X-D3 def2-TZVP TIGHTSCF CHELPG PMODEL
| 29>
| 30> %scf
| 31> MaxIter 1000
| 32> end
| 33>
| 34> * xyz 0 1
| 35>   C                      0.660958             5.234501             6.568248
| 36>   O                      1.793988             4.917370             7.403906
| 37>   H                      1.654328             3.934204             7.551554
| 38>   H                      0.805839             4.909714             5.553898
| 39>   H                      -0.204570            4.628391             6.807331
| 40>   H                      0.475641             6.293078             6.607980
| 41>   C                    : 3.046509             2.841891             9.192081
| 42>   O                    : 2.285587             2.160725             8.257124
| 43>   H                    : 2.375504             1.211638             8.317500
| 44>   H                    : 2.774781             2.634225             10.203713
| 45>   H                    : 4.106382             2.650446             9.060975
| 46>   H                    : 2.831567             3.885847             9.093850
| 47> *
| 48>
| 49> #Run DFT-D3 single point of the particle with dimer basis set
| 50> $new_job
| 51> %base "12-109_DFT_B"
| 52> ! wB97X-D3 def2-TZVP TIGHTSCF CHELPG PMODEL
| 53>
| 54> %scf
| 55> MaxIter 1000
| 56> end
| 57>
| 58> * xyz 0 1
| 59>   C                    : 0.660958             5.234501             6.568248
| 60>   O                    : 1.793988             4.917370             7.403906
| 61>   H                    : 1.654328             3.934204             7.551554
| 62>   H                    : 0.805839             4.909714             5.553898
| 63>   H                    : -0.204570            4.628391             6.807331
| 64>   H                    : 0.475641             6.293078             6.607980
| 65>   C                      3.046509             2.841891             9.192081
| 66>   O                      2.285587             2.160725             8.257124
| 67>   H                      2.375504             1.211638             8.317500
| 68>   H                      2.774781             2.634225             10.203713
| 69>   H                      4.106382             2.650446             9.060975
| 70>   H                      2.831567             3.885847             9.093850
| 71> *
| 72>
| 73>                          ****END OF INPUT****
 Total Charge           Charge          ....    0
 Multiplicity           Mult            ....    1
 Number of Electrons    NEL             ....   36
Dispersion correction           -0.001636153
FINAL SINGLE POINT ENERGY      -231.471355586396
Dispersion correction           -0.000230112
FINAL SINGLE POINT ENERGY      -115.730161866014

CARTESIAN COORDINATES (ANGSTROEM)
---------------------------------
  C      0.660958    5.234501    6.568248
  O      1.793988    4.917370    7.403906
  H      1.654328    3.934204    7.551554
  H      0.805839    4.909714    5.553898
  H     -0.204570    4.628391    6.807331
  H      0.475641    6.293078    6.607980
  C      3.046509    2.841891    9.192081
  O      2.285587    2.160725    8.257124
  H      2.375504    1.211638    8.317500
  H      2.774781    2.634225   10.203713
  H      4.106382    2.650446    9.060975
  H      2.831567    3.885847    9.093850

 Multiplicity           Mult            ....    1
 Number of Electrons    NEL             ....   18
 Basis Dimension        Dim             ....  172

ORBITAL ENERGIES
----------------

  NO   OCC          E(Eh)            E(eV)
   0   2.0000     -19.227141      -523.1971
   1   2.0000     -10.303553      -280.3739
   2   2.0000      -1.142405       -31.0864
   3   2.0000      -0.802270       -21.8309
   4   2.0000      -0.618604       -16.8331
   5   2.0000      -0.550173       -14.9710
   6   2.0000      -0.530708       -14.4413
   7   2.0000      -0.426598       -11.6083
   8   2.0000      -0.372928       -10.1479
   9   0.0000       0.099132         2.6975
  10   0.0000       0.123629         3.3641
  11   0.0000       0.155611         4.2344
  12   0.0000       0.189686         5.1616
  13   0.0000       0.204590         5.5672

MULLIKEN ATOMIC CHARGES
-----------------------
   0 C :   -0.000548
   1 O :    0.001249
   2 H :   -0.002038
   3 H :   -0.000126
   4 H :   -0.000597
   5 H :   -0.000070
   6 C :   -0.141070
   7 O :   -0.470355
   8 H :    0.308235
   9 H :    0.094352
  10 H :    0.099794
  11 H :    0.111177
Sum of atomic charges:   -0.0000000

LOEWDIN ATOMIC CHARGES
----------------------
   0 C :   -0.001205
   1 O :   -0.012446
   2 H :   -0.030259
   3 H :   -0.000042
   4 H :   -0.000195
   5 H :   -0.000015
   6 C :   -0.386874
   7 O :   -0.030472
   8 H :    0.164629
   9 H :    0.088448
  10 H :    0.093864
  11 H :    0.114566

  Mayer bond orders larger than 0.1
B(  6-C ,  7-O ) :   0.9988 B(  6-C ,  9-H ) :   0.9763 B(  6-C , 10-H ) :   0.9794
B(  6-C , 11-H ) :   0.9824 B(  7-O ,  8-H ) :   0.8974

Dispersion correction           -0.000233810
FINAL SINGLE POINT ENERGY      -115.735422334549

DIPOLE MOMENT
-------------
                                X             Y             Z
Electronic contribution:     -0.99517      -0.80884      -1.25411
Nuclear contribution   :      1.34000       0.46361       1.66933
                        -----------------------------------------
Total Dipole Moment    :      0.34483      -0.34523       0.41522
                        -----------------------------------------
Magnitude (a.u.)       :      0.64070
Magnitude (Debye)      :      1.62853

Rotational constants in cm-1:     4.514907     0.856187     0.828657
Rotational constants in MHz : 135353.492237 25667.843973 24842.522888

                             ****ORCA TERMINATED NORMALLY****
TOTAL RUN TIME: 0 days 0 hours 1 minutes 8 seconds 595 msec
