                         Program Version 4.1.2  - RELEASE  -
|  1> #Run DFT-D3 single point of the dimer
|  2> ! wB97X-D3 def2-TZVP TIGHTSCF CHELPG PMODEL PAL8
|  3>
|  4> %base "9-217_DFT_AB"
|  5>
|  6> %scf
|  7> MaxIter 1000
|  8> end
|  9>
| 10> * xyz 0 1
| 11>   C                      -0.206556            3.033980             -9.971479
| 12>   O                      -1.467594            3.440619             -9.661603
| 13>   H                      -2.003820            3.248809             -10.476668
| 14>   H                      0.300107             3.682332             -10.724849
| 15>   H                      0.359431             3.013747             -9.066918
| 16>   H                      -0.343331            2.073376             -10.435032
| 17>   C                      -2.924564            5.498797             -7.355316
| 18>   O                      -1.679141            5.641330             -8.018581
| 19>   H                      -1.829826            5.123271             -8.801257
| 20>   H                      -3.053214            4.501298             -6.949332
| 21>   H                      -2.907165            6.077077             -6.498244
| 22>   H                      -3.788851            5.797470             -7.897356
| 23> *
| 24>
| 25> #Run DFT-D3 single point of the molecule with dimer basis set
| 26> $new_job
| 27> %base "9-217_DFT_A"
| 28> ! wB97X-D3 def2-TZVP TIGHTSCF CHELPG PMODEL
| 29>
| 30> %scf
| 31> MaxIter 1000
| 32> end
| 33>
| 34> * xyz 0 1
| 35>   C                      -0.206556            3.033980             -9.971479
| 36>   O                      -1.467594            3.440619             -9.661603
| 37>   H                      -2.003820            3.248809             -10.476668
| 38>   H                      0.300107             3.682332             -10.724849
| 39>   H                      0.359431             3.013747             -9.066918
| 40>   H                      -0.343331            2.073376             -10.435032
| 41>   C                    : -2.924564            5.498797             -7.355316
| 42>   O                    : -1.679141            5.641330             -8.018581
| 43>   H                    : -1.829826            5.123271             -8.801257
| 44>   H                    : -3.053214            4.501298             -6.949332
| 45>   H                    : -2.907165            6.077077             -6.498244
| 46>   H                    : -3.788851            5.797470             -7.897356
| 47> *
| 48>
| 49> #Run DFT-D3 single point of the particle with dimer basis set
| 50> $new_job
| 51> %base "9-217_DFT_B"
| 52> ! wB97X-D3 def2-TZVP TIGHTSCF CHELPG PMODEL
| 53>
| 54> %scf
| 55> MaxIter 1000
| 56> end
| 57>
| 58> * xyz 0 1
| 59>   C                    : -0.206556            3.033980             -9.971479
| 60>   O                    : -1.467594            3.440619             -9.661603
| 61>   H                    : -2.003820            3.248809             -10.476668
| 62>   H                    : 0.300107             3.682332             -10.724849
| 63>   H                    : 0.359431             3.013747             -9.066918
| 64>   H                    : -0.343331            2.073376             -10.435032
| 65>   C                      -2.924564            5.498797             -7.355316
| 66>   O                      -1.679141            5.641330             -8.018581
| 67>   H                      -1.829826            5.123271             -8.801257
| 68>   H                      -3.053214            4.501298             -6.949332
| 69>   H                      -2.907165            6.077077             -6.498244
| 70>   H                      -3.788851            5.797470             -7.897356
| 71> *
| 72>
| 73>                          ****END OF INPUT****
 Total Charge           Charge          ....    0
 Multiplicity           Mult            ....    1
 Number of Electrons    NEL             ....   36
Dispersion correction           -0.001688295
FINAL SINGLE POINT ENERGY      -231.467049999396
Dispersion correction           -0.000195314
FINAL SINGLE POINT ENERGY      -115.729434567619

CARTESIAN COORDINATES (ANGSTROEM)
---------------------------------
  C     -0.206556    3.033980   -9.971479
  O     -1.467594    3.440619   -9.661603
  H     -2.003820    3.248809  -10.476668
  H      0.300107    3.682332  -10.724849
  H      0.359431    3.013747   -9.066918
  H     -0.343331    2.073376  -10.435032
  C     -2.924564    5.498797   -7.355316
  O     -1.679141    5.641330   -8.018581
  H     -1.829826    5.123271   -8.801257
  H     -3.053214    4.501298   -6.949332
  H     -2.907165    6.077077   -6.498244
  H     -3.788851    5.797470   -7.897356

 Multiplicity           Mult            ....    1
 Number of Electrons    NEL             ....   18
 Basis Dimension        Dim             ....  172

ORBITAL ENERGIES
----------------

  NO   OCC          E(Eh)            E(eV)
   0   2.0000     -19.234060      -523.3854
   1   2.0000     -10.301768      -280.3254
   2   2.0000      -1.142434       -31.0872
   3   2.0000      -0.804719       -21.8975
   4   2.0000      -0.611628       -16.6433
   5   2.0000      -0.548070       -14.9137
   6   2.0000      -0.528893       -14.3919
   7   2.0000      -0.444389       -12.0924
   8   2.0000      -0.378656       -10.3038
   9   0.0000       0.074841         2.0365
  10   0.0000       0.132474         3.6048
  11   0.0000       0.157371         4.2823
  12   0.0000       0.171460         4.6657
  13   0.0000       0.188335         5.1249

MULLIKEN ATOMIC CHARGES
-----------------------
   0 C :   -0.003734
   1 O :   -0.005478
   2 H :   -0.000339
   3 H :    0.000095
   4 H :   -0.000967
   5 H :    0.000001
   6 C :   -0.178395
   7 O :   -0.453136
   8 H :    0.311749
   9 H :    0.100837
  10 H :    0.119172
  11 H :    0.110197
Sum of atomic charges:   -0.0000000

LOEWDIN ATOMIC CHARGES
----------------------
   0 C :   -0.005318
   1 O :   -0.022909
   2 H :   -0.001371
   3 H :   -0.000153
   4 H :   -0.000943
   5 H :   -0.000113
   6 C :   -0.377010
   7 O :   -0.052247
   8 H :    0.174754
   9 H :    0.096876
  10 H :    0.096839
  11 H :    0.091595

  Mayer bond orders larger than 0.1
B(  6-C ,  7-O ) :   1.0104 B(  6-C ,  9-H ) :   0.9765 B(  6-C , 10-H ) :   0.9784
B(  6-C , 11-H ) :   0.9764 B(  7-O ,  8-H ) :   0.9095

Dispersion correction           -0.000222211
FINAL SINGLE POINT ENERGY      -115.731802519683

DIPOLE MOMENT
-------------
                                X             Y             Z
Electronic contribution:      1.63928       0.32688      -0.82904
Nuclear contribution   :     -2.22672      -0.67263       0.64371
                        -----------------------------------------
Total Dipole Moment    :     -0.58744      -0.34575      -0.18533
                        -----------------------------------------
Magnitude (a.u.)       :      0.70638
Magnitude (Debye)      :      1.79548

Rotational constants in cm-1:     4.539678     0.833294     0.809452
Rotational constants in MHz : 136096.134510 24981.533650 24266.771013

                             ****ORCA TERMINATED NORMALLY****
TOTAL RUN TIME: 0 days 0 hours 0 minutes 45 seconds 404 msec
