                         Program Version 4.1.2  - RELEASE  -
|  1> #Run DFT-D3 single point of the dimer
|  2> ! wB97X-D3 def2-TZVP TIGHTSCF CHELPG PMODEL PAL8
|  3>
|  4> %base "7-107_DFT_AB"
|  5>
|  6> %scf
|  7> MaxIter 1000
|  8> end
|  9>
| 10> * xyz 0 1
| 11>   C                      -2.638835            -6.614666            -7.420561
| 12>   O                      -2.992376            -6.578243            -8.791841
| 13>   H                      -2.217192            -6.413573            -9.277582
| 14>   H                      -1.667935            -6.968071            -7.283540
| 15>   H                      -2.582873            -5.608869            -6.989358
| 16>   H                      -3.339959            -7.212623            -6.807963
| 17>   C                      0.250011             -4.939870            -9.098217
| 18>   O                      -0.441961            -5.751926            -9.961690
| 19>   H                      -0.625828            -5.199031            -10.682039
| 20>   H                      -0.335278            -4.196950            -8.611610
| 21>   H                      0.758752             -5.478672            -8.240622
| 22>   H                      1.011601             -4.397912            -9.617754
| 23> *
| 24>
| 25> #Run DFT-D3 single point of the molecule with dimer basis set
| 26> $new_job
| 27> %base "7-107_DFT_A"
| 28> ! wB97X-D3 def2-TZVP TIGHTSCF CHELPG PMODEL
| 29>
| 30> %scf
| 31> MaxIter 1000
| 32> end
| 33>
| 34> * xyz 0 1
| 35>   C                      -2.638835            -6.614666            -7.420561
| 36>   O                      -2.992376            -6.578243            -8.791841
| 37>   H                      -2.217192            -6.413573            -9.277582
| 38>   H                      -1.667935            -6.968071            -7.283540
| 39>   H                      -2.582873            -5.608869            -6.989358
| 40>   H                      -3.339959            -7.212623            -6.807963
| 41>   C                    : 0.250011             -4.939870            -9.098217
| 42>   O                    : -0.441961            -5.751926            -9.961690
| 43>   H                    : -0.625828            -5.199031            -10.682039
| 44>   H                    : -0.335278            -4.196950            -8.611610
| 45>   H                    : 0.758752             -5.478672            -8.240622
| 46>   H                    : 1.011601             -4.397912            -9.617754
| 47> *
| 48>
| 49> #Run DFT-D3 single point of the particle with dimer basis set
| 50> $new_job
| 51> %base "7-107_DFT_B"
| 52> ! wB97X-D3 def2-TZVP TIGHTSCF CHELPG PMODEL
| 53>
| 54> %scf
| 55> MaxIter 1000
| 56> end
| 57>
| 58> * xyz 0 1
| 59>   C                    : -2.638835            -6.614666            -7.420561
| 60>   O                    : -2.992376            -6.578243            -8.791841
| 61>   H                    : -2.217192            -6.413573            -9.277582
| 62>   H                    : -1.667935            -6.968071            -7.283540
| 63>   H                    : -2.582873            -5.608869            -6.989358
| 64>   H                    : -3.339959            -7.212623            -6.807963
| 65>   C                      0.250011             -4.939870            -9.098217
| 66>   O                      -0.441961            -5.751926            -9.961690
| 67>   H                      -0.625828            -5.199031            -10.682039
| 68>   H                      -0.335278            -4.196950            -8.611610
| 69>   H                      0.758752             -5.478672            -8.240622
| 70>   H                      1.011601             -4.397912            -9.617754
| 71> *
| 72>
| 73>                          ****END OF INPUT****
 Total Charge           Charge          ....    0
 Multiplicity           Mult            ....    1
 Number of Electrons    NEL             ....   36
Dispersion correction           -0.002176166
FINAL SINGLE POINT ENERGY      -231.471057953260
Dispersion correction           -0.000235168
FINAL SINGLE POINT ENERGY      -115.732576225219

CARTESIAN COORDINATES (ANGSTROEM)
---------------------------------
  C     -2.638835   -6.614666   -7.420561
  O     -2.992376   -6.578243   -8.791841
  H     -2.217192   -6.413573   -9.277582
  H     -1.667935   -6.968071   -7.283540
  H     -2.582873   -5.608869   -6.989358
  H     -3.339959   -7.212623   -6.807963
  C      0.250011   -4.939870   -9.098217
  O     -0.441961   -5.751926   -9.961690
  H     -0.625828   -5.199031  -10.682039
  H     -0.335278   -4.196950   -8.611610
  H      0.758752   -5.478672   -8.240622
  H      1.011601   -4.397912   -9.617754

 Multiplicity           Mult            ....    1
 Number of Electrons    NEL             ....   18
 Basis Dimension        Dim             ....  172

ORBITAL ENERGIES
----------------

  NO   OCC          E(Eh)            E(eV)
   0   2.0000     -19.231836      -523.3249
   1   2.0000     -10.307836      -280.4905
   2   2.0000      -1.161819       -31.6147
   3   2.0000      -0.797967       -21.7138
   4   2.0000      -0.627721       -17.0812
   5   2.0000      -0.549905       -14.9637
   6   2.0000      -0.532902       -14.5010
   7   2.0000      -0.435509       -11.8508
   8   2.0000      -0.374745       -10.1973
   9   0.0000       0.095515         2.5991
  10   0.0000       0.129370         3.5203
  11   0.0000       0.152350         4.1457
  12   0.0000       0.187000         5.0885
  13   0.0000       0.195346         5.3156

MULLIKEN ATOMIC CHARGES
-----------------------
   0 C :    0.007376
   1 O :   -0.002914
   2 H :   -0.011689
   3 H :   -0.001494
   4 H :   -0.000983
   5 H :    0.000127
   6 C :   -0.175694
   7 O :   -0.444165
   8 H :    0.311292
   9 H :    0.102286
  10 H :    0.112251
  11 H :    0.103608
Sum of atomic charges:    0.0000000

LOEWDIN ATOMIC CHARGES
----------------------
   0 C :   -0.003548
   1 O :   -0.005296
   2 H :   -0.038585
   3 H :   -0.000922
   4 H :   -0.000437
   5 H :   -0.000025
   6 C :   -0.417128
   7 O :    0.013710
   8 H :    0.157051
   9 H :    0.087028
  10 H :    0.116926
  11 H :    0.091227

  Mayer bond orders larger than 0.1
B(  6-C ,  7-O ) :   0.9949 B(  6-C ,  9-H ) :   0.9766 B(  6-C , 10-H ) :   0.9752
B(  6-C , 11-H ) :   0.9814 B(  7-O ,  8-H ) :   0.9042

Dispersion correction           -0.000213559
FINAL SINGLE POINT ENERGY      -115.730485500974

DIPOLE MOMENT
-------------
                                X             Y             Z
Electronic contribution:     -0.98421      -1.24544      -1.13898
Nuclear contribution   :      1.13509       1.91470       0.98931
                        -----------------------------------------
Total Dipole Moment    :      0.15088       0.66926      -0.14967
                        -----------------------------------------
Magnitude (a.u.)       :      0.70219
Magnitude (Debye)      :      1.78482

Rotational constants in cm-1:     4.497668     0.873046     0.834719
Rotational constants in MHz : 134836.687086 26173.259364 25024.244795

                             ****ORCA TERMINATED NORMALLY****
TOTAL RUN TIME: 0 days 0 hours 1 minutes 14 seconds 50 msec
