                         Program Version 4.1.2  - RELEASE  -
|  1> #Run DFT-D3 single point of the dimer
|  2> ! wB97X-D3 def2-TZVP TIGHTSCF CHELPG PMODEL PAL8
|  3>
|  4> %base "14-220_DFT_AB"
|  5>
|  6> %scf
|  7> MaxIter 1000
|  8> end
|  9>
| 10> * xyz 0 1
| 11>   C                      -7.231096            0.734802             6.355933
| 12>   O                      -7.747945            -0.137764            5.435867
| 13>   H                      -7.369196            -1.030215            5.518210
| 14>   H                      -6.828257            0.153118             7.179129
| 15>   H                      -6.361936            1.306457             6.030149
| 16>   H                      -7.932546            1.299147             6.803414
| 17>   C                      -11.155548           -0.822552            6.754615
| 18>   O                      -10.728350           0.440371             6.262734
| 19>   H                      -9.795255            0.466871             6.093088
| 20>   H                      -10.660736           -1.725024            6.336719
| 21>   H                      -11.032600           -0.778458            7.834103
| 22>   H                      -12.215550           -1.059023            6.570492
| 23> *
| 24>
| 25> #Run DFT-D3 single point of the molecule with dimer basis set
| 26> $new_job
| 27> %base "14-220_DFT_A"
| 28> ! wB97X-D3 def2-TZVP TIGHTSCF CHELPG PMODEL
| 29>
| 30> %scf
| 31> MaxIter 1000
| 32> end
| 33>
| 34> * xyz 0 1
| 35>   C                      -7.231096            0.734802             6.355933
| 36>   O                      -7.747945            -0.137764            5.435867
| 37>   H                      -7.369196            -1.030215            5.518210
| 38>   H                      -6.828257            0.153118             7.179129
| 39>   H                      -6.361936            1.306457             6.030149
| 40>   H                      -7.932546            1.299147             6.803414
| 41>   C                    : -11.155548           -0.822552            6.754615
| 42>   O                    : -10.728350           0.440371             6.262734
| 43>   H                    : -9.795255            0.466871             6.093088
| 44>   H                    : -10.660736           -1.725024            6.336719
| 45>   H                    : -11.032600           -0.778458            7.834103
| 46>   H                    : -12.215550           -1.059023            6.570492
| 47> *
| 48>
| 49> #Run DFT-D3 single point of the particle with dimer basis set
| 50> $new_job
| 51> %base "14-220_DFT_B"
| 52> ! wB97X-D3 def2-TZVP TIGHTSCF CHELPG PMODEL
| 53>
| 54> %scf
| 55> MaxIter 1000
| 56> end
| 57>
| 58> * xyz 0 1
| 59>   C                    : -7.231096            0.734802             6.355933
| 60>   O                    : -7.747945            -0.137764            5.435867
| 61>   H                    : -7.369196            -1.030215            5.518210
| 62>   H                    : -6.828257            0.153118             7.179129
| 63>   H                    : -6.361936            1.306457             6.030149
| 64>   H                    : -7.932546            1.299147             6.803414
| 65>   C                      -11.155548           -0.822552            6.754615
| 66>   O                      -10.728350           0.440371             6.262734
| 67>   H                      -9.795255            0.466871             6.093088
| 68>   H                      -10.660736           -1.725024            6.336719
| 69>   H                      -11.032600           -0.778458            7.834103
| 70>   H                      -12.215550           -1.059023            6.570492
| 71> *
| 72>
| 73>                          ****END OF INPUT****
 Total Charge           Charge          ....    0
 Multiplicity           Mult            ....    1
 Number of Electrons    NEL             ....   36
Dispersion correction           -0.001870607
FINAL SINGLE POINT ENERGY      -231.462825032805
Dispersion correction           -0.000224980
FINAL SINGLE POINT ENERGY      -115.725649601373

CARTESIAN COORDINATES (ANGSTROEM)
---------------------------------
  C     -7.231096    0.734802    6.355933
  O     -7.747945   -0.137764    5.435867
  H     -7.369196   -1.030215    5.518210
  H     -6.828257    0.153118    7.179129
  H     -6.361936    1.306457    6.030149
  H     -7.932546    1.299147    6.803414
  C    -11.155548   -0.822552    6.754615
  O    -10.728350    0.440371    6.262734
  H     -9.795255    0.466871    6.093088
  H    -10.660736   -1.725024    6.336719
  H    -11.032600   -0.778458    7.834103
  H    -12.215550   -1.059023    6.570492

 Multiplicity           Mult            ....    1
 Number of Electrons    NEL             ....   18
 Basis Dimension        Dim             ....  172

ORBITAL ENERGIES
----------------

  NO   OCC          E(Eh)            E(eV)
   0   2.0000     -19.230091      -523.2774
   1   2.0000     -10.316079      -280.7148
   2   2.0000      -1.134401       -30.8686
   3   2.0000      -0.799176       -21.7467
   4   2.0000      -0.612503       -16.6671
   5   2.0000      -0.543882       -14.7998
   6   2.0000      -0.524416       -14.2701
   7   2.0000      -0.426798       -11.6138
   8   2.0000      -0.374590       -10.1931
   9   0.0000       0.070566         1.9202
  10   0.0000       0.136519         3.7149
  11   0.0000       0.151735         4.1289
  12   0.0000       0.160594         4.3700
  13   0.0000       0.190997         5.1973

MULLIKEN ATOMIC CHARGES
-----------------------
   0 C :   -0.002649
   1 O :   -0.001073
   2 H :   -0.000015
   3 H :    0.000460
   4 H :   -0.000276
   5 H :   -0.004810
   6 C :   -0.166376
   7 O :   -0.474231
   8 H :    0.314938
   9 H :    0.103487
  10 H :    0.111232
  11 H :    0.119314
Sum of atomic charges:   -0.0000000

LOEWDIN ATOMIC CHARGES
----------------------
   0 C :   -0.008742
   1 O :   -0.007654
   2 H :   -0.000462
   3 H :   -0.000117
   4 H :   -0.000143
   5 H :   -0.004449
   6 C :   -0.383273
   7 O :   -0.065614
   8 H :    0.165578
   9 H :    0.099207
  10 H :    0.096903
  11 H :    0.108765

  Mayer bond orders larger than 0.1
B(  6-C ,  7-O ) :   0.9877 B(  6-C ,  9-H ) :   0.9713 B(  6-C , 10-H ) :   0.9832
B(  6-C , 11-H ) :   0.9709 B(  7-O ,  8-H ) :   0.9076

Dispersion correction           -0.000267897
FINAL SINGLE POINT ENERGY      -115.732414844587

DIPOLE MOMENT
-------------
                                X             Y             Z
Electronic contribution:      0.45960       1.68523      -0.68896
Nuclear contribution   :     -0.04482      -2.19760       0.76717
                        -----------------------------------------
Total Dipole Moment    :      0.41477      -0.51237       0.07821
                        -----------------------------------------
Magnitude (a.u.)       :      0.66384
Magnitude (Debye)      :      1.68734

Rotational constants in cm-1:     4.453102     0.806902     0.786525
Rotational constants in MHz : 133500.642357 24190.310330 23579.440601

                             ****ORCA TERMINATED NORMALLY****
TOTAL RUN TIME: 0 days 0 hours 1 minutes 10 seconds 588 msec
