                         Program Version 4.1.2  - RELEASE  -
|  1> #Run DFT-D3 single point of the dimer
|  2> ! wB97X-D3 def2-TZVP TIGHTSCF CHELPG PMODEL PAL8
|  3>
|  4> %base "1-154_DFT_AB"
|  5>
|  6> %scf
|  7> MaxIter 1000
|  8> end
|  9>
| 10> * xyz 0 1
| 11>   C                      -10.737285           -10.905899           -8.526970
| 12>   O                      -11.491148           -9.799804            -8.017945
| 13>   H                      -11.618391           -9.202291            -8.727251
| 14>   H                      -11.160848           -11.255895           -9.449243
| 15>   H                      -9.693300            -10.777547           -8.716372
| 16>   H                      -10.901061           -11.684010           -7.796133
| 17>   C                      -9.917695            -6.771640            -11.480742
| 18>   O                      -10.379273           -7.468041            -10.321750
| 19>   H                      -10.399778           -6.797954            -9.638099
| 20>   H                      -9.683152            -7.503796            -12.254542
| 21>   H                      -10.721337           -6.171460            -11.894603
| 22>   H                      -9.119196            -6.020222            -11.364647
| 23> *
| 24>
| 25> #Run DFT-D3 single point of the molecule with dimer basis set
| 26> $new_job
| 27> %base "1-154_DFT_A"
| 28> ! wB97X-D3 def2-TZVP TIGHTSCF CHELPG PMODEL
| 29>
| 30> %scf
| 31> MaxIter 1000
| 32> end
| 33>
| 34> * xyz 0 1
| 35>   C                      -10.737285           -10.905899           -8.526970
| 36>   O                      -11.491148           -9.799804            -8.017945
| 37>   H                      -11.618391           -9.202291            -8.727251
| 38>   H                      -11.160848           -11.255895           -9.449243
| 39>   H                      -9.693300            -10.777547           -8.716372
| 40>   H                      -10.901061           -11.684010           -7.796133
| 41>   C                    : -9.917695            -6.771640            -11.480742
| 42>   O                    : -10.379273           -7.468041            -10.321750
| 43>   H                    : -10.399778           -6.797954            -9.638099
| 44>   H                    : -9.683152            -7.503796            -12.254542
| 45>   H                    : -10.721337           -6.171460            -11.894603
| 46>   H                    : -9.119196            -6.020222            -11.364647
| 47> *
| 48>
| 49> #Run DFT-D3 single point of the particle with dimer basis set
| 50> $new_job
| 51> %base "1-154_DFT_B"
| 52> ! wB97X-D3 def2-TZVP TIGHTSCF CHELPG PMODEL
| 53>
| 54> %scf
| 55> MaxIter 1000
| 56> end
| 57>
| 58> * xyz 0 1
| 59>   C                    : -10.737285           -10.905899           -8.526970
| 60>   O                    : -11.491148           -9.799804            -8.017945
| 61>   H                    : -11.618391           -9.202291            -8.727251
| 62>   H                    : -11.160848           -11.255895           -9.449243
| 63>   H                    : -9.693300            -10.777547           -8.716372
| 64>   H                    : -10.901061           -11.684010           -7.796133
| 65>   C                      -9.917695            -6.771640            -11.480742
| 66>   O                      -10.379273           -7.468041            -10.321750
| 67>   H                      -10.399778           -6.797954            -9.638099
| 68>   H                      -9.683152            -7.503796            -12.254542
| 69>   H                      -10.721337           -6.171460            -11.894603
| 70>   H                      -9.119196            -6.020222            -11.364647
| 71> *
| 72>
| 73>                          ****END OF INPUT****
 Total Charge           Charge          ....    0
 Multiplicity           Mult            ....    1
 Number of Electrons    NEL             ....   36
Dispersion correction           -0.001322205
FINAL SINGLE POINT ENERGY      -231.471654887880
Dispersion correction           -0.000243110
FINAL SINGLE POINT ENERGY      -115.733874182301

CARTESIAN COORDINATES (ANGSTROEM)
---------------------------------
  C    -10.737285  -10.905899   -8.526970
  O    -11.491148   -9.799804   -8.017945
  H    -11.618391   -9.202291   -8.727251
  H    -11.160848  -11.255895   -9.449243
  H     -9.693300  -10.777547   -8.716372
  H    -10.901061  -11.684010   -7.796133
  C     -9.917695   -6.771640  -11.480742
  O    -10.379273   -7.468041  -10.321750
  H    -10.399778   -6.797954   -9.638099
  H     -9.683152   -7.503796  -12.254542
  H    -10.721337   -6.171460  -11.894603
  H     -9.119196   -6.020222  -11.364647

 Multiplicity           Mult            ....    1
 Number of Electrons    NEL             ....   18
 Basis Dimension        Dim             ....  172

ORBITAL ENERGIES
----------------

  NO   OCC          E(Eh)            E(eV)
   0   2.0000     -19.234491      -523.3971
   1   2.0000     -10.313912      -280.6558
   2   2.0000      -1.136416       -30.9235
   3   2.0000      -0.796994       -21.6873
   4   2.0000      -0.614045       -16.7090
   5   2.0000      -0.530828       -14.4446
   6   2.0000      -0.525268       -14.2933
   7   2.0000      -0.448148       -12.1947
   8   2.0000      -0.372952       -10.1485
   9   0.0000       0.097909         2.6642
  10   0.0000       0.121009         3.2928
  11   0.0000       0.151395         4.1197
  12   0.0000       0.190899         5.1946
  13   0.0000       0.195815         5.3284

MULLIKEN ATOMIC CHARGES
-----------------------
   0 C :    0.000186
   1 O :    0.000514
   2 H :   -0.005175
   3 H :   -0.000350
   4 H :   -0.001250
   5 H :   -0.000160
   6 C :   -0.180486
   7 O :   -0.457328
   8 H :    0.311790
   9 H :    0.123631
  10 H :    0.103829
  11 H :    0.104799
Sum of atomic charges:   -0.0000000

LOEWDIN ATOMIC CHARGES
----------------------
   0 C :   -0.002158
   1 O :   -0.000615
   2 H :   -0.007957
   3 H :   -0.000112
   4 H :   -0.000545
   5 H :   -0.000033
   6 C :   -0.381965
   7 O :   -0.074067
   8 H :    0.168578
   9 H :    0.109139
  10 H :    0.093022
  11 H :    0.096712

  Mayer bond orders larger than 0.1
B(  6-C ,  7-O ) :   0.9964 B(  6-C ,  9-H ) :   0.9772 B(  6-C , 10-H ) :   0.9767
B(  6-C , 11-H ) :   0.9672 B(  7-O ,  8-H ) :   0.9019

Dispersion correction           -0.000247214
FINAL SINGLE POINT ENERGY      -115.733512501552

DIPOLE MOMENT
-------------
                                X             Y             Z
Electronic contribution:     -0.49358      -1.07590       1.48744
Nuclear contribution   :      0.65436       1.78590      -1.53109
                        -----------------------------------------
Total Dipole Moment    :      0.16079       0.71000      -0.04365
                        -----------------------------------------
Magnitude (a.u.)       :      0.72929
Magnitude (Debye)      :      1.85370

Rotational constants in cm-1:     4.348962     0.821409     0.781318
Rotational constants in MHz : 130378.599861 24625.222169 23423.337476

                             ****ORCA TERMINATED NORMALLY****
TOTAL RUN TIME: 0 days 0 hours 6 minutes 0 seconds 457 msec
