                         Program Version 4.1.2  - RELEASE  -
|  1> #Run DFT-D3 single point of the dimer
|  2> ! wB97X-D3 def2-TZVP TIGHTSCF CHELPG PMODEL PAL8
|  3>
|  4> %base "21-201_DFT_AB"
|  5>
|  6> %scf
|  7> MaxIter 1000
|  8> end
|  9>
| 10> * xyz 0 1
| 11>   C                      5.320291             -2.197871            3.138490
| 12>   O                      6.016178             -1.444388            2.229891
| 13>   H                      5.855802             -0.529282            2.452323
| 14>   H                      5.084570             -3.182776            2.646354
| 15>   H                      5.926100             -2.518909            4.004506
| 16>   H                      4.393442             -1.702306            3.476821
| 17>   C                      8.727121             -2.504574            3.760396
| 18>   O                      8.990788             -1.628839            2.667121
| 19>   H                      8.091965             -1.591906            2.333231
| 20>   H                      8.052797             -2.090911            4.608840
| 21>   H                      8.315774             -3.449508            3.437598
| 22>   H                      9.642225             -2.649931            4.349798
| 23> *
| 24>
| 25> #Run DFT-D3 single point of the molecule with dimer basis set
| 26> $new_job
| 27> %base "21-201_DFT_A"
| 28> ! wB97X-D3 def2-TZVP TIGHTSCF CHELPG PMODEL
| 29>
| 30> %scf
| 31> MaxIter 1000
| 32> end
| 33>
| 34> * xyz 0 1
| 35>   C                      5.320291             -2.197871            3.138490
| 36>   O                      6.016178             -1.444388            2.229891
| 37>   H                      5.855802             -0.529282            2.452323
| 38>   H                      5.084570             -3.182776            2.646354
| 39>   H                      5.926100             -2.518909            4.004506
| 40>   H                      4.393442             -1.702306            3.476821
| 41>   C                    : 8.727121             -2.504574            3.760396
| 42>   O                    : 8.990788             -1.628839            2.667121
| 43>   H                    : 8.091965             -1.591906            2.333231
| 44>   H                    : 8.052797             -2.090911            4.608840
| 45>   H                    : 8.315774             -3.449508            3.437598
| 46>   H                    : 9.642225             -2.649931            4.349798
| 47> *
| 48>
| 49> #Run DFT-D3 single point of the particle with dimer basis set
| 50> $new_job
| 51> %base "21-201_DFT_B"
| 52> ! wB97X-D3 def2-TZVP TIGHTSCF CHELPG PMODEL
| 53>
| 54> %scf
| 55> MaxIter 1000
| 56> end
| 57>
| 58> * xyz 0 1
| 59>   C                    : 5.320291             -2.197871            3.138490
| 60>   O                    : 6.016178             -1.444388            2.229891
| 61>   H                    : 5.855802             -0.529282            2.452323
| 62>   H                    : 5.084570             -3.182776            2.646354
| 63>   H                    : 5.926100             -2.518909            4.004506
| 64>   H                    : 4.393442             -1.702306            3.476821
| 65>   C                      8.727121             -2.504574            3.760396
| 66>   O                      8.990788             -1.628839            2.667121
| 67>   H                      8.091965             -1.591906            2.333231
| 68>   H                      8.052797             -2.090911            4.608840
| 69>   H                      8.315774             -3.449508            3.437598
| 70>   H                      9.642225             -2.649931            4.349798
| 71> *
| 72>
| 73>                          ****END OF INPUT****
 Total Charge           Charge          ....    0
 Multiplicity           Mult            ....    1
 Number of Electrons    NEL             ....   36
Dispersion correction           -0.002332695
FINAL SINGLE POINT ENERGY      -231.470692771646
Dispersion correction           -0.000233471
FINAL SINGLE POINT ENERGY      -115.733919276381

CARTESIAN COORDINATES (ANGSTROEM)
---------------------------------
  C      5.320291   -2.197871    3.138490
  O      6.016178   -1.444388    2.229891
  H      5.855802   -0.529282    2.452323
  H      5.084570   -3.182776    2.646354
  H      5.926100   -2.518909    4.004506
  H      4.393442   -1.702306    3.476821
  C      8.727121   -2.504574    3.760396
  O      8.990788   -1.628839    2.667121
  H      8.091965   -1.591906    2.333231
  H      8.052797   -2.090911    4.608840
  H      8.315774   -3.449508    3.437598
  H      9.642225   -2.649931    4.349798

 Multiplicity           Mult            ....    1
 Number of Electrons    NEL             ....   18
 Basis Dimension        Dim             ....  172

ORBITAL ENERGIES
----------------

  NO   OCC          E(Eh)            E(eV)
   0   2.0000     -19.239116      -523.5230
   1   2.0000     -10.320619      -280.8383
   2   2.0000      -1.143918       -31.1276
   3   2.0000      -0.789857       -21.4931
   4   2.0000      -0.608938       -16.5700
   5   2.0000      -0.544187       -14.8081
   6   2.0000      -0.519859       -14.1461
   7   2.0000      -0.443965       -12.0809
   8   2.0000      -0.377789       -10.2802
   9   0.0000       0.071139         1.9358
  10   0.0000       0.133686         3.6378
  11   0.0000       0.145091         3.9481
  12   0.0000       0.162190         4.4134
  13   0.0000       0.196235         5.3398

MULLIKEN ATOMIC CHARGES
-----------------------
   0 C :    0.003877
   1 O :   -0.002498
   2 H :   -0.000669
   3 H :   -0.000530
   4 H :   -0.005503
   5 H :   -0.000112
   6 C :   -0.201697
   7 O :   -0.442838
   8 H :    0.312734
   9 H :    0.098271
  10 H :    0.111828
  11 H :    0.127136
Sum of atomic charges:    0.0000000

LOEWDIN ATOMIC CHARGES
----------------------
   0 C :   -0.009114
   1 O :   -0.013221
   2 H :   -0.001733
   3 H :   -0.000189
   4 H :   -0.008878
   5 H :   -0.000055
   6 C :   -0.390909
   7 O :   -0.067442
   8 H :    0.178935
   9 H :    0.109640
  10 H :    0.093820
  11 H :    0.109146

  Mayer bond orders larger than 0.1
B(  6-C ,  7-O ) :   1.0058 B(  6-C ,  9-H ) :   0.9677 B(  6-C , 10-H ) :   0.9744
B(  6-C , 11-H ) :   0.9726 B(  7-O ,  8-H ) :   0.9125

Dispersion correction           -0.000243027
FINAL SINGLE POINT ENERGY      -115.728973960271

DIPOLE MOMENT
-------------
                                X             Y             Z
Electronic contribution:      0.54383       1.12923      -1.57676
Nuclear contribution   :     -1.15252      -1.44098       1.78463
                        -----------------------------------------
Total Dipole Moment    :     -0.60869      -0.31174       0.20787
                        -----------------------------------------
Magnitude (a.u.)       :      0.71477
Magnitude (Debye)      :      1.81680

Rotational constants in cm-1:     4.201741     0.819082     0.790545
Rotational constants in MHz : 125965.022329 24555.450491 23699.939033

                             ****ORCA TERMINATED NORMALLY****
TOTAL RUN TIME: 0 days 0 hours 1 minutes 6 seconds 863 msec
