                         Program Version 4.1.2  - RELEASE  -
|  1> #Run DFT-D3 single point of the dimer
|  2> ! wB97X-D3 def2-TZVP TIGHTSCF CHELPG PMODEL PAL8
|  3>
|  4> %base "16-86_DFT_AB"
|  5>
|  6> %scf
|  7> MaxIter 1000
|  8> end
|  9>
| 10> * xyz 0 1
| 11>   C                      1.485028             2.866668             11.191932
| 12>   O                      1.771618             3.996363             10.331948
| 13>   H                      2.698560             4.135901             10.339584
| 14>   H                      1.582231             2.996211             12.246738
| 15>   H                      0.440987             2.521089             11.096234
| 16>   H                      2.100099             1.998036             10.935745
| 17>   C                      0.616315             -1.722564            7.867964
| 18>   O                      -0.312856            -0.731527            7.352278
| 19>   H                      -0.617789            -0.343711            8.129740
| 20>   H                      1.133022             -2.386465            7.183482
| 21>   H                      1.368434             -1.159946            8.432065
| 22>   H                      0.099027             -2.352631            8.520119
| 23> *
| 24>
| 25> #Run DFT-D3 single point of the molecule with dimer basis set
| 26> $new_job
| 27> %base "16-86_DFT_A"
| 28> ! wB97X-D3 def2-TZVP TIGHTSCF CHELPG PMODEL
| 29>
| 30> %scf
| 31> MaxIter 1000
| 32> end
| 33>
| 34> * xyz 0 1
| 35>   C                      1.485028             2.866668             11.191932
| 36>   O                      1.771618             3.996363             10.331948
| 37>   H                      2.698560             4.135901             10.339584
| 38>   H                      1.582231             2.996211             12.246738
| 39>   H                      0.440987             2.521089             11.096234
| 40>   H                      2.100099             1.998036             10.935745
| 41>   C                    : 0.616315             -1.722564            7.867964
| 42>   O                    : -0.312856            -0.731527            7.352278
| 43>   H                    : -0.617789            -0.343711            8.129740
| 44>   H                    : 1.133022             -2.386465            7.183482
| 45>   H                    : 1.368434             -1.159946            8.432065
| 46>   H                    : 0.099027             -2.352631            8.520119
| 47> *
| 48>
| 49> #Run DFT-D3 single point of the particle with dimer basis set
| 50> $new_job
| 51> %base "16-86_DFT_B"
| 52> ! wB97X-D3 def2-TZVP TIGHTSCF CHELPG PMODEL
| 53>
| 54> %scf
| 55> MaxIter 1000
| 56> end
| 57>
| 58> * xyz 0 1
| 59>   C                    : 1.485028             2.866668             11.191932
| 60>   O                    : 1.771618             3.996363             10.331948
| 61>   H                    : 2.698560             4.135901             10.339584
| 62>   H                    : 1.582231             2.996211             12.246738
| 63>   H                    : 0.440987             2.521089             11.096234
| 64>   H                    : 2.100099             1.998036             10.935745
| 65>   C                      0.616315             -1.722564            7.867964
| 66>   O                      -0.312856            -0.731527            7.352278
| 67>   H                      -0.617789            -0.343711            8.129740
| 68>   H                      1.133022             -2.386465            7.183482
| 69>   H                      1.368434             -1.159946            8.432065
| 70>   H                      0.099027             -2.352631            8.520119
| 71> *
| 72>
| 73>                          ****END OF INPUT****
 Total Charge           Charge          ....    0
 Multiplicity           Mult            ....    1
 Number of Electrons    NEL             ....   36
Dispersion correction           -0.000686637
FINAL SINGLE POINT ENERGY      -231.458926620788
Dispersion correction           -0.000271295
FINAL SINGLE POINT ENERGY      -115.732314514415

CARTESIAN COORDINATES (ANGSTROEM)
---------------------------------
  C      1.485028    2.866668   11.191932
  O      1.771618    3.996363   10.331948
  H      2.698560    4.135901   10.339584
  H      1.582231    2.996211   12.246738
  H      0.440987    2.521089   11.096234
  H      2.100099    1.998036   10.935745
  C      0.616315   -1.722564    7.867964
  O     -0.312856   -0.731527    7.352278
  H     -0.617789   -0.343711    8.129740
  H      1.133022   -2.386465    7.183482
  H      1.368434   -1.159946    8.432065
  H      0.099027   -2.352631    8.520119

 Multiplicity           Mult            ....    1
 Number of Electrons    NEL             ....   18
 Basis Dimension        Dim             ....  172

ORBITAL ENERGIES
----------------

  NO   OCC          E(Eh)            E(eV)
   0   2.0000     -19.225882      -523.1628
   1   2.0000     -10.311716      -280.5961
   2   2.0000      -1.136843       -30.9351
   3   2.0000      -0.803071       -21.8527
   4   2.0000      -0.604416       -16.4470
   5   2.0000      -0.546718       -14.8769
   6   2.0000      -0.532687       -14.4951
   7   2.0000      -0.439008       -11.9460
   8   2.0000      -0.375080       -10.2064
   9   0.0000       0.078613         2.1392
  10   0.0000       0.117152         3.1879
  11   0.0000       0.151986         4.1358
  12   0.0000       0.162615         4.4250
  13   0.0000       0.181992         4.9523

MULLIKEN ATOMIC CHARGES
-----------------------
   0 C :    0.000017
   1 O :    0.000002
   2 H :   -0.000000
   3 H :    0.000000
   4 H :   -0.000034
   5 H :   -0.000061
   6 C :   -0.179728
   7 O :   -0.467769
   8 H :    0.306401
   9 H :    0.122632
  10 H :    0.106920
  11 H :    0.111620
Sum of atomic charges:    0.0000000

LOEWDIN ATOMIC CHARGES
----------------------
   0 C :   -0.000027
   1 O :   -0.000001
   2 H :   -0.000000
   3 H :   -0.000001
   4 H :   -0.000021
   5 H :   -0.000039
   6 C :   -0.348213
   7 O :   -0.086718
   8 H :    0.142768
   9 H :    0.107184
  10 H :    0.099183
  11 H :    0.085885

  Mayer bond orders larger than 0.1
B(  6-C ,  7-O ) :   0.9817 B(  6-C ,  9-H ) :   0.9714 B(  6-C , 10-H ) :   0.9871
B(  6-C , 11-H ) :   0.9813 B(  7-O ,  8-H ) :   0.9120

Dispersion correction           -0.000219427
FINAL SINGLE POINT ENERGY      -115.726694535126

DIPOLE MOMENT
-------------
                                X             Y             Z
Electronic contribution:     -1.14230       1.12371      -0.90004
Nuclear contribution   :      1.33864      -1.31891       1.61290
                        -----------------------------------------
Total Dipole Moment    :      0.19634      -0.19520       0.71286
                        -----------------------------------------
Magnitude (a.u.)       :      0.76474
Magnitude (Debye)      :      1.94381

Rotational constants in cm-1:     4.505749     0.803121     0.777786
Rotational constants in MHz : 135078.956395 24076.957788 23317.440600

                             ****ORCA TERMINATED NORMALLY****
TOTAL RUN TIME: 0 days 0 hours 0 minutes 46 seconds 641 msec
