                         Program Version 4.1.2  - RELEASE  -
|  1> #Run DFT-D3 single point of the dimer
|  2> ! wB97X-D3 def2-TZVP TIGHTSCF CHELPG PMODEL PAL8
|  3>
|  4> %base "7-169_DFT_AB"
|  5>
|  6> %scf
|  7> MaxIter 1000
|  8> end
|  9>
| 10> * xyz 0 1
| 11>   C                      5.394271             -7.391507            6.068928
| 12>   O                      6.338932             -6.613026            5.334504
| 13>   H                      5.890581             -5.838206            4.986211
| 14>   H                      5.228551             -7.017428            7.094204
| 15>   H                      4.454310             -7.434298            5.467661
| 16>   H                      5.557189             -8.465244            6.210366
| 17>   C                      8.738346             -9.010118            5.505787
| 18>   O                      9.170748             -7.674791            5.784526
| 19>   H                      8.339969             -7.234517            5.861715
| 20>   H                      8.388053             -9.606850            6.383983
| 21>   H                      8.061818             -9.060184            4.618617
| 22>   H                      9.608296             -9.529607            5.086231
| 23> *
| 24>
| 25> #Run DFT-D3 single point of the molecule with dimer basis set
| 26> $new_job
| 27> %base "7-169_DFT_A"
| 28> ! wB97X-D3 def2-TZVP TIGHTSCF CHELPG PMODEL
| 29>
| 30> %scf
| 31> MaxIter 1000
| 32> end
| 33>
| 34> * xyz 0 1
| 35>   C                      5.394271             -7.391507            6.068928
| 36>   O                      6.338932             -6.613026            5.334504
| 37>   H                      5.890581             -5.838206            4.986211
| 38>   H                      5.228551             -7.017428            7.094204
| 39>   H                      4.454310             -7.434298            5.467661
| 40>   H                      5.557189             -8.465244            6.210366
| 41>   C                    : 8.738346             -9.010118            5.505787
| 42>   O                    : 9.170748             -7.674791            5.784526
| 43>   H                    : 8.339969             -7.234517            5.861715
| 44>   H                    : 8.388053             -9.606850            6.383983
| 45>   H                    : 8.061818             -9.060184            4.618617
| 46>   H                    : 9.608296             -9.529607            5.086231
| 47> *
| 48>
| 49> #Run DFT-D3 single point of the particle with dimer basis set
| 50> $new_job
| 51> %base "7-169_DFT_B"
| 52> ! wB97X-D3 def2-TZVP TIGHTSCF CHELPG PMODEL
| 53>
| 54> %scf
| 55> MaxIter 1000
| 56> end
| 57>
| 58> * xyz 0 1
| 59>   C                    : 5.394271             -7.391507            6.068928
| 60>   O                    : 6.338932             -6.613026            5.334504
| 61>   H                    : 5.890581             -5.838206            4.986211
| 62>   H                    : 5.228551             -7.017428            7.094204
| 63>   H                    : 4.454310             -7.434298            5.467661
| 64>   H                    : 5.557189             -8.465244            6.210366
| 65>   C                      8.738346             -9.010118            5.505787
| 66>   O                      9.170748             -7.674791            5.784526
| 67>   H                      8.339969             -7.234517            5.861715
| 68>   H                      8.388053             -9.606850            6.383983
| 69>   H                      8.061818             -9.060184            4.618617
| 70>   H                      9.608296             -9.529607            5.086231
| 71> *
| 72>
| 73>                          ****END OF INPUT****
 Total Charge           Charge          ....    0
 Multiplicity           Mult            ....    1
 Number of Electrons    NEL             ....   36
Dispersion correction           -0.002113536
FINAL SINGLE POINT ENERGY      -231.468539685515
Dispersion correction           -0.000262646
FINAL SINGLE POINT ENERGY      -115.729381859897

CARTESIAN COORDINATES (ANGSTROEM)
---------------------------------
  C      5.394271   -7.391507    6.068928
  O      6.338932   -6.613026    5.334504
  H      5.890581   -5.838206    4.986211
  H      5.228551   -7.017428    7.094204
  H      4.454310   -7.434298    5.467661
  H      5.557189   -8.465244    6.210366
  C      8.738346   -9.010118    5.505787
  O      9.170748   -7.674791    5.784526
  H      8.339969   -7.234517    5.861715
  H      8.388053   -9.606850    6.383983
  H      8.061818   -9.060184    4.618617
  H      9.608296   -9.529607    5.086231

 Multiplicity           Mult            ....    1
 Number of Electrons    NEL             ....   18
 Basis Dimension        Dim             ....  172

ORBITAL ENERGIES
----------------

  NO   OCC          E(Eh)            E(eV)
   0   2.0000     -19.234557      -523.3989
   1   2.0000     -10.319167      -280.7988
   2   2.0000      -1.141238       -31.0547
   3   2.0000      -0.792629       -21.5685
   4   2.0000      -0.605580       -16.4787
   5   2.0000      -0.546556       -14.8725
   6   2.0000      -0.519802       -14.1445
   7   2.0000      -0.435203       -11.8425
   8   2.0000      -0.381373       -10.3777
   9   0.0000       0.068773         1.8714
  10   0.0000       0.138970         3.7816
  11   0.0000       0.139817         3.8046
  12   0.0000       0.163123         4.4388
  13   0.0000       0.189733         5.1629

MULLIKEN ATOMIC CHARGES
-----------------------
   0 C :   -0.000936
   1 O :   -0.002621
   2 H :   -0.000250
   3 H :    0.000168
   4 H :   -0.000037
   5 H :   -0.000758
   6 C :   -0.198919
   7 O :   -0.449790
   8 H :    0.309334
   9 H :    0.111970
  10 H :    0.108823
  11 H :    0.123016
Sum of atomic charges:    0.0000000

LOEWDIN ATOMIC CHARGES
----------------------
   0 C :   -0.005040
   1 O :   -0.010938
   2 H :   -0.000490
   3 H :   -0.000086
   4 H :   -0.000081
   5 H :   -0.001412
   6 C :   -0.389784
   7 O :   -0.067889
   8 H :    0.161670
   9 H :    0.101976
  10 H :    0.102513
  11 H :    0.109559

  Mayer bond orders larger than 0.1
B(  6-C ,  7-O ) :   1.0024 B(  6-C ,  9-H ) :   0.9650 B(  6-C , 10-H ) :   0.9739
B(  6-C , 11-H ) :   0.9774 B(  7-O ,  8-H ) :   0.9177

Dispersion correction           -0.000251396
FINAL SINGLE POINT ENERGY      -115.731710350175

DIPOLE MOMENT
-------------
                                X             Y             Z
Electronic contribution:      0.61516       1.74631       0.49054
Nuclear contribution   :     -1.26214      -1.99279      -0.57974
                        -----------------------------------------
Total Dipole Moment    :     -0.64697      -0.24648      -0.08920
                        -----------------------------------------
Magnitude (a.u.)       :      0.69806
Magnitude (Debye)      :      1.77432

Rotational constants in cm-1:     4.206273     0.809765     0.794624
Rotational constants in MHz : 126100.897288 24276.131990 23822.221163

                             ****ORCA TERMINATED NORMALLY****
TOTAL RUN TIME: 0 days 0 hours 1 minutes 14 seconds 147 msec
