                         Program Version 4.1.2  - RELEASE  -
|  1> #Run DFT-D3 single point of the dimer
|  2> ! wB97X-D3 def2-TZVP TIGHTSCF CHELPG PMODEL PAL8
|  3>
|  4> %base "1-128_DFT_AB"
|  5>
|  6> %scf
|  7> MaxIter 1000
|  8> end
|  9>
| 10> * xyz 0 1
| 11>   C                      8.306979             -1.199292            -5.182348
| 12>   O                      7.537905             -1.703815            -6.246899
| 13>   H                      7.832907             -1.390369            -7.097220
| 14>   H                      8.184739             -0.143854            -5.200148
| 15>   H                      8.096430             -1.585496            -4.205000
| 16>   H                      9.355720             -1.370345            -5.333518
| 17>   C                      11.544669            -3.345478            -10.102156
| 18>   O                      10.883767            -2.931228            -8.923766
| 19>   H                      11.462142            -2.790318            -8.181137
| 20>   H                      10.835078            -3.253117            -10.951907
| 21>   H                      12.494490            -2.843856            -10.328078
| 22>   H                      11.796707            -4.402151            -10.094575
| 23> *
| 24>
| 25> #Run DFT-D3 single point of the molecule with dimer basis set
| 26> $new_job
| 27> %base "1-128_DFT_A"
| 28> ! wB97X-D3 def2-TZVP TIGHTSCF CHELPG PMODEL
| 29>
| 30> %scf
| 31> MaxIter 1000
| 32> end
| 33>
| 34> * xyz 0 1
| 35>   C                      8.306979             -1.199292            -5.182348
| 36>   O                      7.537905             -1.703815            -6.246899
| 37>   H                      7.832907             -1.390369            -7.097220
| 38>   H                      8.184739             -0.143854            -5.200148
| 39>   H                      8.096430             -1.585496            -4.205000
| 40>   H                      9.355720             -1.370345            -5.333518
| 41>   C                    : 11.544669            -3.345478            -10.102156
| 42>   O                    : 10.883767            -2.931228            -8.923766
| 43>   H                    : 11.462142            -2.790318            -8.181137
| 44>   H                    : 10.835078            -3.253117            -10.951907
| 45>   H                    : 12.494490            -2.843856            -10.328078
| 46>   H                    : 11.796707            -4.402151            -10.094575
| 47> *
| 48>
| 49> #Run DFT-D3 single point of the particle with dimer basis set
| 50> $new_job
| 51> %base "1-128_DFT_B"
| 52> ! wB97X-D3 def2-TZVP TIGHTSCF CHELPG PMODEL
| 53>
| 54> %scf
| 55> MaxIter 1000
| 56> end
| 57>
| 58> * xyz 0 1
| 59>   C                    : 8.306979             -1.199292            -5.182348
| 60>   O                    : 7.537905             -1.703815            -6.246899
| 61>   H                    : 7.832907             -1.390369            -7.097220
| 62>   H                    : 8.184739             -0.143854            -5.200148
| 63>   H                    : 8.096430             -1.585496            -4.205000
| 64>   H                    : 9.355720             -1.370345            -5.333518
| 65>   C                      11.544669            -3.345478            -10.102156
| 66>   O                      10.883767            -2.931228            -8.923766
| 67>   H                      11.462142            -2.790318            -8.181137
| 68>   H                      10.835078            -3.253117            -10.951907
| 69>   H                      12.494490            -2.843856            -10.328078
| 70>   H                      11.796707            -4.402151            -10.094575
| 71> *
| 72>
| 73>                          ****END OF INPUT****
 Total Charge           Charge          ....    0
 Multiplicity           Mult            ....    1
 Number of Electrons    NEL             ....   36
Dispersion correction           -0.000793363
FINAL SINGLE POINT ENERGY      -231.466754333535
Dispersion correction           -0.000227317
FINAL SINGLE POINT ENERGY      -115.731169476826

CARTESIAN COORDINATES (ANGSTROEM)
---------------------------------
  C      8.306979   -1.199292   -5.182348
  O      7.537905   -1.703815   -6.246899
  H      7.832907   -1.390369   -7.097220
  H      8.184739   -0.143854   -5.200148
  H      8.096430   -1.585496   -4.205000
  H      9.355720   -1.370345   -5.333518
  C     11.544669   -3.345478  -10.102156
  O     10.883767   -2.931228   -8.923766
  H     11.462142   -2.790318   -8.181137
  H     10.835078   -3.253117  -10.951907
  H     12.494490   -2.843856  -10.328078
  H     11.796707   -4.402151  -10.094575

 Multiplicity           Mult            ....    1
 Number of Electrons    NEL             ....   18
 Basis Dimension        Dim             ....  172

ORBITAL ENERGIES
----------------

  NO   OCC          E(Eh)            E(eV)
   0   2.0000     -19.229424      -523.2592
   1   2.0000     -10.314734      -280.6782
   2   2.0000      -1.134634       -30.8750
   3   2.0000      -0.799289       -21.7498
   4   2.0000      -0.617401       -16.8003
   5   2.0000      -0.535101       -14.5608
   6   2.0000      -0.525648       -14.3036
   7   2.0000      -0.431220       -11.7341
   8   2.0000      -0.372339       -10.1319
   9   0.0000       0.088963         2.4208
  10   0.0000       0.120374         3.2755
  11   0.0000       0.150032         4.0826
  12   0.0000       0.173352         4.7171
  13   0.0000       0.198711         5.4072

MULLIKEN ATOMIC CHARGES
-----------------------
   0 C :    0.000273
   1 O :    0.000035
   2 H :   -0.000960
   3 H :   -0.000002
   4 H :   -0.000003
   5 H :   -0.000329
   6 C :   -0.149735
   7 O :   -0.483510
   8 H :    0.315908
   9 H :    0.118333
  10 H :    0.100894
  11 H :    0.099095
Sum of atomic charges:   -0.0000000

LOEWDIN ATOMIC CHARGES
----------------------
   0 C :   -0.000074
   1 O :   -0.000039
   2 H :   -0.000607
   3 H :   -0.000001
   4 H :   -0.000001
   5 H :   -0.000074
   6 C :   -0.387602
   7 O :   -0.072193
   8 H :    0.161427
   9 H :    0.113137
  10 H :    0.094624
  11 H :    0.091402

  Mayer bond orders larger than 0.1
B(  6-C ,  7-O ) :   1.0005 B(  6-C ,  9-H ) :   0.9749 B(  6-C , 10-H ) :   0.9731
B(  6-C , 11-H ) :   0.9747 B(  7-O ,  8-H ) :   0.8956

Dispersion correction           -0.000268739
FINAL SINGLE POINT ENERGY      -115.734734625367

DIPOLE MOMENT
-------------
                                X             Y             Z
Electronic contribution:     -0.91311       0.61362       1.50708
Nuclear contribution   :      1.56934      -0.69735      -1.50021
                        -----------------------------------------
Total Dipole Moment    :      0.65623      -0.08373       0.00687
                        -----------------------------------------
Magnitude (a.u.)       :      0.66158
Magnitude (Debye)      :      1.68161

Rotational constants in cm-1:     4.440851     0.821005     0.786896
Rotational constants in MHz : 133133.365337 24613.122836 23590.541964

                             ****ORCA TERMINATED NORMALLY****
TOTAL RUN TIME: 0 days 0 hours 5 minutes 38 seconds 415 msec
