                         Program Version 4.1.2  - RELEASE  -
|  1> #Run DFT-D3 single point of the dimer
|  2> ! wB97X-D3 def2-TZVP TIGHTSCF CHELPG PMODEL PAL8
|  3>
|  4> %base "22-122_DFT_AB"
|  5>
|  6> %scf
|  7> MaxIter 1000
|  8> end
|  9>
| 10> * xyz 0 1
| 11>   C                      4.528630             2.039462             -5.128029
| 12>   O                      4.867166             0.760606             -4.647254
| 13>   H                      4.537975             0.701861             -3.774986
| 14>   H                      3.432986             2.102369             -5.175460
| 15>   H                      4.983056             2.835476             -4.470874
| 16>   H                      5.000534             2.221187             -6.109668
| 17>   C                      3.680089             -2.891072            -5.754529
| 18>   O                      4.708801             -2.510868            -4.915442
| 19>   H                      4.904022             -1.557423            -4.987716
| 20>   H                      3.258538             -2.075596            -6.336842
| 21>   H                      3.851655             -3.787714            -6.399860
| 22>   H                      2.863482             -3.084857            -5.079649
| 23> *
| 24>
| 25> #Run DFT-D3 single point of the molecule with dimer basis set
| 26> $new_job
| 27> %base "22-122_DFT_A"
| 28> ! wB97X-D3 def2-TZVP TIGHTSCF CHELPG PMODEL
| 29>
| 30> %scf
| 31> MaxIter 1000
| 32> end
| 33>
| 34> * xyz 0 1
| 35>   C                      4.528630             2.039462             -5.128029
| 36>   O                      4.867166             0.760606             -4.647254
| 37>   H                      4.537975             0.701861             -3.774986
| 38>   H                      3.432986             2.102369             -5.175460
| 39>   H                      4.983056             2.835476             -4.470874
| 40>   H                      5.000534             2.221187             -6.109668
| 41>   C                    : 3.680089             -2.891072            -5.754529
| 42>   O                    : 4.708801             -2.510868            -4.915442
| 43>   H                    : 4.904022             -1.557423            -4.987716
| 44>   H                    : 3.258538             -2.075596            -6.336842
| 45>   H                    : 3.851655             -3.787714            -6.399860
| 46>   H                    : 2.863482             -3.084857            -5.079649
| 47> *
| 48>
| 49> #Run DFT-D3 single point of the particle with dimer basis set
| 50> $new_job
| 51> %base "22-122_DFT_B"
| 52> ! wB97X-D3 def2-TZVP TIGHTSCF CHELPG PMODEL
| 53>
| 54> %scf
| 55> MaxIter 1000
| 56> end
| 57>
| 58> * xyz 0 1
| 59>   C                    : 4.528630             2.039462             -5.128029
| 60>   O                    : 4.867166             0.760606             -4.647254
| 61>   H                    : 4.537975             0.701861             -3.774986
| 62>   H                    : 3.432986             2.102369             -5.175460
| 63>   H                    : 4.983056             2.835476             -4.470874
| 64>   H                    : 5.000534             2.221187             -6.109668
| 65>   C                      3.680089             -2.891072            -5.754529
| 66>   O                      4.708801             -2.510868            -4.915442
| 67>   H                      4.904022             -1.557423            -4.987716
| 68>   H                      3.258538             -2.075596            -6.336842
| 69>   H                      3.851655             -3.787714            -6.399860
| 70>   H                      2.863482             -3.084857            -5.079649
| 71> *
| 72>
| 73>                          ****END OF INPUT****
 Total Charge           Charge          ....    0
 Multiplicity           Mult            ....    1
 Number of Electrons    NEL             ....   36
Dispersion correction           -0.001354515
FINAL SINGLE POINT ENERGY      -231.470024245679
Dispersion correction           -0.000226650
FINAL SINGLE POINT ENERGY      -115.734631698941

CARTESIAN COORDINATES (ANGSTROEM)
---------------------------------
  C      4.528630    2.039462   -5.128029
  O      4.867166    0.760606   -4.647254
  H      4.537975    0.701861   -3.774986
  H      3.432986    2.102369   -5.175460
  H      4.983056    2.835476   -4.470874
  H      5.000534    2.221187   -6.109668
  C      3.680089   -2.891072   -5.754529
  O      4.708801   -2.510868   -4.915442
  H      4.904022   -1.557423   -4.987716
  H      3.258538   -2.075596   -6.336842
  H      3.851655   -3.787714   -6.399860
  H      2.863482   -3.084857   -5.079649

 Multiplicity           Mult            ....    1
 Number of Electrons    NEL             ....   18
 Basis Dimension        Dim             ....  172

ORBITAL ENERGIES
----------------

  NO   OCC          E(Eh)            E(eV)
   0   2.0000     -19.229945      -523.2734
   1   2.0000     -10.309170      -280.5268
   2   2.0000      -1.141886       -31.0723
   3   2.0000      -0.794778       -21.6270
   4   2.0000      -0.619427       -16.8555
   5   2.0000      -0.545381       -14.8406
   6   2.0000      -0.527060       -14.3420
   7   2.0000      -0.427274       -11.6267
   8   2.0000      -0.367703       -10.0057
   9   0.0000       0.069031         1.8784
  10   0.0000       0.123437         3.3589
  11   0.0000       0.148820         4.0496
  12   0.0000       0.172541         4.6951
  13   0.0000       0.189331         5.1520

MULLIKEN ATOMIC CHARGES
-----------------------
   0 C :   -0.000254
   1 O :   -0.001216
   2 H :   -0.001404
   3 H :   -0.000018
   4 H :    0.000006
   5 H :    0.000039
   6 C :   -0.161940
   7 O :   -0.474254
   8 H :    0.318528
   9 H :    0.104379
  10 H :    0.110481
  11 H :    0.105653
Sum of atomic charges:    0.0000000

LOEWDIN ATOMIC CHARGES
----------------------
   0 C :   -0.000518
   1 O :   -0.007029
   2 H :   -0.001849
   3 H :   -0.000015
   4 H :   -0.000014
   5 H :   -0.000016
   6 C :   -0.415073
   7 O :   -0.057872
   8 H :    0.183252
   9 H :    0.095145
  10 H :    0.106294
  11 H :    0.097696

  Mayer bond orders larger than 0.1
B(  6-C ,  7-O ) :   0.9944 B(  6-C ,  9-H ) :   0.9814 B(  6-C , 10-H ) :   0.9684
B(  6-C , 11-H ) :   0.9828 B(  7-O ,  8-H ) :   0.8988

Dispersion correction           -0.000241812
FINAL SINGLE POINT ENERGY      -115.728753617995

DIPOLE MOMENT
-------------
                                X             Y             Z
Electronic contribution:      1.50198       0.34482       1.02752
Nuclear contribution   :     -1.79099       0.15817      -1.39060
                        -----------------------------------------
Total Dipole Moment    :     -0.28901       0.50299      -0.36308
                        -----------------------------------------
Magnitude (a.u.)       :      0.68436
Magnitude (Debye)      :      1.73951

Rotational constants in cm-1:     4.390518     0.856177     0.823162
Rotational constants in MHz : 131624.414616 25667.555492 24677.766495

                             ****ORCA TERMINATED NORMALLY****
TOTAL RUN TIME: 0 days 0 hours 1 minutes 7 seconds 770 msec
