                         Program Version 4.1.2  - RELEASE  -
|  1> #Run DFT-D3 single point of the dimer
|  2> ! wB97X-D3 def2-TZVP TIGHTSCF CHELPG PMODEL PAL8
|  3>
|  4> %base "16-30_DFT_AB"
|  5>
|  6> %scf
|  7> MaxIter 1000
|  8> end
|  9>
| 10> * xyz 0 1
| 11>   C                      -9.948473            -1.812941            5.438624
| 12>   O                      -9.656483            -1.904055            6.869065
| 13>   H                      -8.898172            -2.436655            7.042660
| 14>   H                      -10.795136           -1.169837            5.194730
| 15>   H                      -9.039130            -1.454169            4.871001
| 16>   H                      -10.203844           -2.769139            4.921275
| 17>   C                      -9.562317            -5.281374            8.166314
| 18>   O                      -10.127318           -6.133071            7.157659
| 19>   H                      -9.389755            -6.622976            6.760071
| 20>   H                      -8.786559            -5.869834            8.759080
| 21>   H                      -8.888842            -4.470125            7.708908
| 22>   H                      -10.226890           -4.897641            8.880417
| 23> *
| 24>
| 25> #Run DFT-D3 single point of the molecule with dimer basis set
| 26> $new_job
| 27> %base "16-30_DFT_A"
| 28> ! wB97X-D3 def2-TZVP TIGHTSCF CHELPG PMODEL
| 29>
| 30> %scf
| 31> MaxIter 1000
| 32> end
| 33>
| 34> * xyz 0 1
| 35>   C                      -9.948473            -1.812941            5.438624
| 36>   O                      -9.656483            -1.904055            6.869065
| 37>   H                      -8.898172            -2.436655            7.042660
| 38>   H                      -10.795136           -1.169837            5.194730
| 39>   H                      -9.039130            -1.454169            4.871001
| 40>   H                      -10.203844           -2.769139            4.921275
| 41>   C                    : -9.562317            -5.281374            8.166314
| 42>   O                    : -10.127318           -6.133071            7.157659
| 43>   H                    : -9.389755            -6.622976            6.760071
| 44>   H                    : -8.786559            -5.869834            8.759080
| 45>   H                    : -8.888842            -4.470125            7.708908
| 46>   H                    : -10.226890           -4.897641            8.880417
| 47> *
| 48>
| 49> #Run DFT-D3 single point of the particle with dimer basis set
| 50> $new_job
| 51> %base "16-30_DFT_B"
| 52> ! wB97X-D3 def2-TZVP TIGHTSCF CHELPG PMODEL
| 53>
| 54> %scf
| 55> MaxIter 1000
| 56> end
| 57>
| 58> * xyz 0 1
| 59>   C                    : -9.948473            -1.812941            5.438624
| 60>   O                    : -9.656483            -1.904055            6.869065
| 61>   H                    : -8.898172            -2.436655            7.042660
| 62>   H                    : -10.795136           -1.169837            5.194730
| 63>   H                    : -9.039130            -1.454169            4.871001
| 64>   H                    : -10.203844           -2.769139            4.921275
| 65>   C                      -9.562317            -5.281374            8.166314
| 66>   O                      -10.127318           -6.133071            7.157659
| 67>   H                      -9.389755            -6.622976            6.760071
| 68>   H                      -8.786559            -5.869834            8.759080
| 69>   H                      -8.888842            -4.470125            7.708908
| 70>   H                      -10.226890           -4.897641            8.880417
| 71> *
| 72>
| 73>                          ****END OF INPUT****
 Total Charge           Charge          ....    0
 Multiplicity           Mult            ....    1
 Number of Electrons    NEL             ....   36
Dispersion correction           -0.001575298
FINAL SINGLE POINT ENERGY      -231.458990780998
Dispersion correction           -0.000296861
FINAL SINGLE POINT ENERGY      -115.730837952220

CARTESIAN COORDINATES (ANGSTROEM)
---------------------------------
  C     -9.948473   -1.812941    5.438624
  O     -9.656483   -1.904055    6.869065
  H     -8.898172   -2.436655    7.042660
  H    -10.795136   -1.169837    5.194730
  H     -9.039130   -1.454169    4.871001
  H    -10.203844   -2.769139    4.921275
  C     -9.562317   -5.281374    8.166314
  O    -10.127318   -6.133071    7.157659
  H     -9.389755   -6.622976    6.760071
  H     -8.786559   -5.869834    8.759080
  H     -8.888842   -4.470125    7.708908
  H    -10.226890   -4.897641    8.880417

 Multiplicity           Mult            ....    1
 Number of Electrons    NEL             ....   18
 Basis Dimension        Dim             ....  172

ORBITAL ENERGIES
----------------

  NO   OCC          E(Eh)            E(eV)
   0   2.0000     -19.234088      -523.3861
   1   2.0000     -10.322459      -280.8884
   2   2.0000      -1.129906       -30.7463
   3   2.0000      -0.793667       -21.5968
   4   2.0000      -0.606473       -16.5030
   5   2.0000      -0.541676       -14.7398
   6   2.0000      -0.520494       -14.1634
   7   2.0000      -0.437977       -11.9180
   8   2.0000      -0.370089       -10.0706
   9   0.0000       0.087787         2.3888
  10   0.0000       0.115598         3.1456
  11   0.0000       0.144345         3.9278
  12   0.0000       0.177863         4.8399
  13   0.0000       0.197079         5.3628

MULLIKEN ATOMIC CHARGES
-----------------------
   0 C :    0.000665
   1 O :    0.000160
   2 H :   -0.001026
   3 H :    0.000009
   4 H :   -0.000045
   5 H :   -0.000527
   6 C :   -0.188202
   7 O :   -0.471537
   8 H :    0.319634
   9 H :    0.101640
  10 H :    0.102976
  11 H :    0.136254
Sum of atomic charges:    0.0000000

LOEWDIN ATOMIC CHARGES
----------------------
   0 C :   -0.000487
   1 O :   -0.001884
   2 H :   -0.009978
   3 H :   -0.000004
   4 H :   -0.000004
   5 H :   -0.000326
   6 C :   -0.374698
   7 O :   -0.096522
   8 H :    0.176530
   9 H :    0.101608
  10 H :    0.109472
  11 H :    0.096293

  Mayer bond orders larger than 0.1
B(  6-C ,  7-O ) :   0.9918 B(  6-C ,  9-H ) :   0.9805 B(  6-C , 10-H ) :   0.9705
B(  6-C , 11-H ) :   0.9694 B(  7-O ,  8-H ) :   0.8960

Dispersion correction           -0.000254935
FINAL SINGLE POINT ENERGY      -115.728417553616

DIPOLE MOMENT
-------------
                                X             Y             Z
Electronic contribution:     -1.16156      -0.97308      -1.25194
Nuclear contribution   :      1.83909       0.98707       1.42616
                        -----------------------------------------
Total Dipole Moment    :      0.67753       0.01399       0.17421
                        -----------------------------------------
Magnitude (a.u.)       :      0.69971
Magnitude (Debye)      :      1.77853

Rotational constants in cm-1:     4.209765     0.803701     0.772762
Rotational constants in MHz : 126205.570130 24094.361032 23166.834785

                             ****ORCA TERMINATED NORMALLY****
TOTAL RUN TIME: 0 days 0 hours 1 minutes 4 seconds 910 msec
