                         Program Version 4.1.2  - RELEASE  -
|  1> #Run DFT-D3 single point of the dimer
|  2> ! wB97X-D3 def2-TZVP TIGHTSCF CHELPG PMODEL PAL8
|  3>
|  4> %base "4-150_DFT_AB"
|  5>
|  6> %scf
|  7> MaxIter 1000
|  8> end
|  9>
| 10> * xyz 0 1
| 11>   C                      -7.165838            1.970965             -4.316710
| 12>   O                      -8.140504            2.659230             -3.460284
| 13>   H                      -7.664392            2.899198             -2.666859
| 14>   H                      -6.972118            0.987659             -3.975152
| 15>   H                      -7.564475            1.801484             -5.267749
| 16>   H                      -6.156702            2.463355             -4.387189
| 17>   C                      -8.589574            6.130416             -1.375605
| 18>   O                      -9.930195            6.243223             -1.774311
| 19>   H                      -10.297952           5.420813             -1.545800
| 20>   H                      -8.562136            5.487636             -0.475464
| 21>   H                      -7.952221            5.669713             -2.124242
| 22>   H                      -8.029760            6.994471             -1.218246
| 23> *
| 24>
| 25> #Run DFT-D3 single point of the molecule with dimer basis set
| 26> $new_job
| 27> %base "4-150_DFT_A"
| 28> ! wB97X-D3 def2-TZVP TIGHTSCF CHELPG PMODEL
| 29>
| 30> %scf
| 31> MaxIter 1000
| 32> end
| 33>
| 34> * xyz 0 1
| 35>   C                      -7.165838            1.970965             -4.316710
| 36>   O                      -8.140504            2.659230             -3.460284
| 37>   H                      -7.664392            2.899198             -2.666859
| 38>   H                      -6.972118            0.987659             -3.975152
| 39>   H                      -7.564475            1.801484             -5.267749
| 40>   H                      -6.156702            2.463355             -4.387189
| 41>   C                    : -8.589574            6.130416             -1.375605
| 42>   O                    : -9.930195            6.243223             -1.774311
| 43>   H                    : -10.297952           5.420813             -1.545800
| 44>   H                    : -8.562136            5.487636             -0.475464
| 45>   H                    : -7.952221            5.669713             -2.124242
| 46>   H                    : -8.029760            6.994471             -1.218246
| 47> *
| 48>
| 49> #Run DFT-D3 single point of the particle with dimer basis set
| 50> $new_job
| 51> %base "4-150_DFT_B"
| 52> ! wB97X-D3 def2-TZVP TIGHTSCF CHELPG PMODEL
| 53>
| 54> %scf
| 55> MaxIter 1000
| 56> end
| 57>
| 58> * xyz 0 1
| 59>   C                    : -7.165838            1.970965             -4.316710
| 60>   O                    : -8.140504            2.659230             -3.460284
| 61>   H                    : -7.664392            2.899198             -2.666859
| 62>   H                    : -6.972118            0.987659             -3.975152
| 63>   H                    : -7.564475            1.801484             -5.267749
| 64>   H                    : -6.156702            2.463355             -4.387189
| 65>   C                      -8.589574            6.130416             -1.375605
| 66>   O                      -9.930195            6.243223             -1.774311
| 67>   H                      -10.297952           5.420813             -1.545800
| 68>   H                      -8.562136            5.487636             -0.475464
| 69>   H                      -7.952221            5.669713             -2.124242
| 70>   H                      -8.029760            6.994471             -1.218246
| 71> *
| 72>
| 73>                          ****END OF INPUT****
 Total Charge           Charge          ....    0
 Multiplicity           Mult            ....    1
 Number of Electrons    NEL             ....   36
Dispersion correction           -0.001159055
FINAL SINGLE POINT ENERGY      -231.458491739555
Dispersion correction           -0.000265872
FINAL SINGLE POINT ENERGY      -115.730725347898

CARTESIAN COORDINATES (ANGSTROEM)
---------------------------------
  C     -7.165838    1.970965   -4.316710
  O     -8.140504    2.659230   -3.460284
  H     -7.664392    2.899198   -2.666859
  H     -6.972118    0.987659   -3.975152
  H     -7.564475    1.801484   -5.267749
  H     -6.156702    2.463355   -4.387189
  C     -8.589574    6.130416   -1.375605
  O     -9.930195    6.243223   -1.774311
  H    -10.297952    5.420813   -1.545800
  H     -8.562136    5.487636   -0.475464
  H     -7.952221    5.669713   -2.124242
  H     -8.029760    6.994471   -1.218246

 Multiplicity           Mult            ....    1
 Number of Electrons    NEL             ....   18
 Basis Dimension        Dim             ....  172

ORBITAL ENERGIES
----------------

  NO   OCC          E(Eh)            E(eV)
   0   2.0000     -19.229808      -523.2697
   1   2.0000     -10.308178      -280.4998
   2   2.0000      -1.149633       -31.2831
   3   2.0000      -0.803178       -21.8556
   4   2.0000      -0.616471       -16.7750
   5   2.0000      -0.551129       -14.9970
   6   2.0000      -0.532941       -14.5020
   7   2.0000      -0.437147       -11.8954
   8   2.0000      -0.372508       -10.1365
   9   0.0000       0.082013         2.2317
  10   0.0000       0.114995         3.1292
  11   0.0000       0.152179         4.1410
  12   0.0000       0.175677         4.7804
  13   0.0000       0.190843         5.1931

MULLIKEN ATOMIC CHARGES
-----------------------
   0 C :    0.000185
   1 O :    0.000244
   2 H :   -0.000481
   3 H :   -0.000020
   4 H :   -0.000014
   5 H :   -0.000041
   6 C :   -0.174199
   7 O :   -0.456410
   8 H :    0.313044
   9 H :    0.096738
  10 H :    0.097473
  11 H :    0.123483
Sum of atomic charges:    0.0000000

LOEWDIN ATOMIC CHARGES
----------------------
   0 C :   -0.000090
   1 O :   -0.000393
   2 H :   -0.001601
   3 H :   -0.000001
   4 H :   -0.000001
   5 H :   -0.000016
   6 C :   -0.389509
   7 O :   -0.051860
   8 H :    0.154646
   9 H :    0.100662
  10 H :    0.093539
  11 H :    0.094624

  Mayer bond orders larger than 0.1
B(  6-C ,  7-O ) :   1.0074 B(  6-C ,  9-H ) :   0.9944 B(  6-C , 10-H ) :   0.9732
B(  6-C , 11-H ) :   0.9750 B(  7-O ,  8-H ) :   0.9068

Dispersion correction           -0.000225313
FINAL SINGLE POINT ENERGY      -115.727173528440

DIPOLE MOMENT
-------------
                                X             Y             Z
Electronic contribution:     -1.80659       0.43910      -0.55792
Nuclear contribution   :      2.10557      -0.98842       0.85779
                        -----------------------------------------
Total Dipole Moment    :      0.29898      -0.54932       0.29987
                        -----------------------------------------
Magnitude (a.u.)       :      0.69359
Magnitude (Debye)      :      1.76297

Rotational constants in cm-1:     4.563263     0.845202     0.808828
Rotational constants in MHz : 136803.177628 25338.512548 24248.064368

                             ****ORCA TERMINATED NORMALLY****
TOTAL RUN TIME: 0 days 0 hours 1 minutes 35 seconds 298 msec
