                         Program Version 4.1.2  - RELEASE  -
|  1> #Run DFT-D3 single point of the dimer
|  2> ! wB97X-D3 def2-TZVP TIGHTSCF CHELPG PMODEL PAL8
|  3>
|  4> %base "16-60_DFT_AB"
|  5>
|  6> %scf
|  7> MaxIter 1000
|  8> end
|  9>
| 10> * xyz 0 1
| 11>   C                      8.058946             -9.033042            0.461038
| 12>   O                      8.872390             -8.090761            1.090432
| 13>   H                      8.823240             -8.265778            1.999192
| 14>   H                      7.747471             -8.809037            -0.550858
| 15>   H                      8.601848             -9.949009            0.269711
| 16>   H                      7.118040             -9.192842            0.968932
| 17>   C                      3.517834             -8.747606            1.460186
| 18>   O                      4.829382             -8.235508            1.418514
| 19>   H                      5.082431             -8.293517            0.508124
| 20>   H                      3.325254             -9.482731            0.759865
| 21>   H                      3.268235             -9.300667            2.413864
| 22>   H                      2.728976             -7.938269            1.480270
| 23> *
| 24>
| 25> #Run DFT-D3 single point of the molecule with dimer basis set
| 26> $new_job
| 27> %base "16-60_DFT_A"
| 28> ! wB97X-D3 def2-TZVP TIGHTSCF CHELPG PMODEL
| 29>
| 30> %scf
| 31> MaxIter 1000
| 32> end
| 33>
| 34> * xyz 0 1
| 35>   C                      8.058946             -9.033042            0.461038
| 36>   O                      8.872390             -8.090761            1.090432
| 37>   H                      8.823240             -8.265778            1.999192
| 38>   H                      7.747471             -8.809037            -0.550858
| 39>   H                      8.601848             -9.949009            0.269711
| 40>   H                      7.118040             -9.192842            0.968932
| 41>   C                    : 3.517834             -8.747606            1.460186
| 42>   O                    : 4.829382             -8.235508            1.418514
| 43>   H                    : 5.082431             -8.293517            0.508124
| 44>   H                    : 3.325254             -9.482731            0.759865
| 45>   H                    : 3.268235             -9.300667            2.413864
| 46>   H                    : 2.728976             -7.938269            1.480270
| 47> *
| 48>
| 49> #Run DFT-D3 single point of the particle with dimer basis set
| 50> $new_job
| 51> %base "16-60_DFT_B"
| 52> ! wB97X-D3 def2-TZVP TIGHTSCF CHELPG PMODEL
| 53>
| 54> %scf
| 55> MaxIter 1000
| 56> end
| 57>
| 58> * xyz 0 1
| 59>   C                    : 8.058946             -9.033042            0.461038
| 60>   O                    : 8.872390             -8.090761            1.090432
| 61>   H                    : 8.823240             -8.265778            1.999192
| 62>   H                    : 7.747471             -8.809037            -0.550858
| 63>   H                    : 8.601848             -9.949009            0.269711
| 64>   H                    : 7.118040             -9.192842            0.968932
| 65>   C                      3.517834             -8.747606            1.460186
| 66>   O                      4.829382             -8.235508            1.418514
| 67>   H                      5.082431             -8.293517            0.508124
| 68>   H                      3.325254             -9.482731            0.759865
| 69>   H                      3.268235             -9.300667            2.413864
| 70>   H                      2.728976             -7.938269            1.480270
| 71> *
| 72>
| 73>                          ****END OF INPUT****
 Total Charge           Charge          ....    0
 Multiplicity           Mult            ....    1
 Number of Electrons    NEL             ....   36
Dispersion correction           -0.001453147
FINAL SINGLE POINT ENERGY      -231.460718978314
Dispersion correction           -0.000234318
FINAL SINGLE POINT ENERGY      -115.730677920350

CARTESIAN COORDINATES (ANGSTROEM)
---------------------------------
  C      8.058946   -9.033042    0.461038
  O      8.872390   -8.090761    1.090432
  H      8.823240   -8.265778    1.999192
  H      7.747471   -8.809037   -0.550858
  H      8.601848   -9.949009    0.269711
  H      7.118040   -9.192842    0.968932
  C      3.517834   -8.747606    1.460186
  O      4.829382   -8.235508    1.418514
  H      5.082431   -8.293517    0.508124
  H      3.325254   -9.482731    0.759865
  H      3.268235   -9.300667    2.413864
  H      2.728976   -7.938269    1.480270

 Multiplicity           Mult            ....    1
 Number of Electrons    NEL             ....   18
 Basis Dimension        Dim             ....  172

ORBITAL ENERGIES
----------------

  NO   OCC          E(Eh)            E(eV)
   0   2.0000     -19.235425      -523.4225
   1   2.0000     -10.314489      -280.6715
   2   2.0000      -1.145682       -31.1756
   3   2.0000      -0.798131       -21.7183
   4   2.0000      -0.619842       -16.8668
   5   2.0000      -0.541802       -14.7432
   6   2.0000      -0.526359       -14.3229
   7   2.0000      -0.436852       -11.8874
   8   2.0000      -0.375480       -10.2173
   9   0.0000       0.086891         2.3644
  10   0.0000       0.126865         3.4522
  11   0.0000       0.150299         4.0898
  12   0.0000       0.173840         4.7304
  13   0.0000       0.197636         5.3780

MULLIKEN ATOMIC CHARGES
-----------------------
   0 C :    0.007037
   1 O :   -0.000288
   2 H :   -0.000260
   3 H :   -0.000195
   4 H :   -0.000244
   5 H :   -0.018564
   6 C :   -0.182202
   7 O :   -0.449469
   8 H :    0.318280
   9 H :    0.117111
  10 H :    0.110199
  11 H :    0.098595
Sum of atomic charges:   -0.0000000

LOEWDIN ATOMIC CHARGES
----------------------
   0 C :   -0.005506
   1 O :   -0.000038
   2 H :   -0.000090
   3 H :   -0.000430
   4 H :   -0.000023
   5 H :   -0.012604
   6 C :   -0.397600
   7 O :   -0.048987
   8 H :    0.167390
   9 H :    0.082802
  10 H :    0.112358
  11 H :    0.102727

  Mayer bond orders larger than 0.1
B(  6-C ,  7-O ) :   1.0136 B(  6-C ,  9-H ) :   0.9792 B(  6-C , 10-H ) :   0.9760
B(  6-C , 11-H ) :   0.9737 B(  7-O ,  8-H ) :   0.8995

Dispersion correction           -0.000254398
FINAL SINGLE POINT ENERGY      -115.729001825582

DIPOLE MOMENT
-------------
                                X             Y             Z
Electronic contribution:      1.82435       0.70407      -0.09220
Nuclear contribution   :     -2.17443      -0.97606      -0.47846
                        -----------------------------------------
Total Dipole Moment    :     -0.35008      -0.27199      -0.57066
                        -----------------------------------------
Magnitude (a.u.)       :      0.72262
Magnitude (Debye)      :      1.83676

Rotational constants in cm-1:     4.428281     0.823370     0.801166
Rotational constants in MHz : 132756.519023 24683.996727 24018.344208

                             ****ORCA TERMINATED NORMALLY****
TOTAL RUN TIME: 0 days 0 hours 1 minutes 1 seconds 464 msec
