                         Program Version 4.1.2  - RELEASE  -
|  1> #Run DFT-D3 single point of the dimer
|  2> ! wB97X-D3 def2-TZVP TIGHTSCF CHELPG PMODEL PAL8
|  3>
|  4> %base "8-183_DFT_AB"
|  5>
|  6> %scf
|  7> MaxIter 1000
|  8> end
|  9>
| 10> * xyz 0 1
| 11>   C                      -3.902687            -2.047055            -9.767899
| 12>   O                      -3.783327            -2.023162            -8.364810
| 13>   H                      -4.423023            -2.616315            -8.035842
| 14>   H                      -3.310654            -1.327274            -10.263219
| 15>   H                      -3.476127            -2.942526            -10.229169
| 16>   H                      -4.961791            -1.855243            -10.025167
| 17>   C                      -0.151003            -2.035609            -8.821723
| 18>   O                      -0.924824            -1.536299            -7.733373
| 19>   H                      -1.828442            -1.692329            -7.979716
| 20>   H                      -0.282953            -1.539425            -9.797442
| 21>   H                      0.915134             -1.846635            -8.655497
| 22>   H                      -0.344206            -3.076921            -8.978535
| 23> *
| 24>
| 25> #Run DFT-D3 single point of the molecule with dimer basis set
| 26> $new_job
| 27> %base "8-183_DFT_A"
| 28> ! wB97X-D3 def2-TZVP TIGHTSCF CHELPG PMODEL
| 29>
| 30> %scf
| 31> MaxIter 1000
| 32> end
| 33>
| 34> * xyz 0 1
| 35>   C                      -3.902687            -2.047055            -9.767899
| 36>   O                      -3.783327            -2.023162            -8.364810
| 37>   H                      -4.423023            -2.616315            -8.035842
| 38>   H                      -3.310654            -1.327274            -10.263219
| 39>   H                      -3.476127            -2.942526            -10.229169
| 40>   H                      -4.961791            -1.855243            -10.025167
| 41>   C                    : -0.151003            -2.035609            -8.821723
| 42>   O                    : -0.924824            -1.536299            -7.733373
| 43>   H                    : -1.828442            -1.692329            -7.979716
| 44>   H                    : -0.282953            -1.539425            -9.797442
| 45>   H                    : 0.915134             -1.846635            -8.655497
| 46>   H                    : -0.344206            -3.076921            -8.978535
| 47> *
| 48>
| 49> #Run DFT-D3 single point of the particle with dimer basis set
| 50> $new_job
| 51> %base "8-183_DFT_B"
| 52> ! wB97X-D3 def2-TZVP TIGHTSCF CHELPG PMODEL
| 53>
| 54> %scf
| 55> MaxIter 1000
| 56> end
| 57>
| 58> * xyz 0 1
| 59>   C                    : -3.902687            -2.047055            -9.767899
| 60>   O                    : -3.783327            -2.023162            -8.364810
| 61>   H                    : -4.423023            -2.616315            -8.035842
| 62>   H                    : -3.310654            -1.327274            -10.263219
| 63>   H                    : -3.476127            -2.942526            -10.229169
| 64>   H                    : -4.961791            -1.855243            -10.025167
| 65>   C                      -0.151003            -2.035609            -8.821723
| 66>   O                      -0.924824            -1.536299            -7.733373
| 67>   H                      -1.828442            -1.692329            -7.979716
| 68>   H                      -0.282953            -1.539425            -9.797442
| 69>   H                      0.915134             -1.846635            -8.655497
| 70>   H                      -0.344206            -3.076921            -8.978535
| 71> *
| 72>
| 73>                          ****END OF INPUT****
 Total Charge           Charge          ....    0
 Multiplicity           Mult            ....    1
 Number of Electrons    NEL             ....   36
Dispersion correction           -0.002043874
FINAL SINGLE POINT ENERGY      -231.473475964216
Dispersion correction           -0.000232750
FINAL SINGLE POINT ENERGY      -115.731601551178

CARTESIAN COORDINATES (ANGSTROEM)
---------------------------------
  C     -3.902687   -2.047055   -9.767899
  O     -3.783327   -2.023162   -8.364810
  H     -4.423023   -2.616315   -8.035842
  H     -3.310654   -1.327274  -10.263219
  H     -3.476127   -2.942526  -10.229169
  H     -4.961791   -1.855243  -10.025167
  C     -0.151003   -2.035609   -8.821723
  O     -0.924824   -1.536299   -7.733373
  H     -1.828442   -1.692329   -7.979716
  H     -0.282953   -1.539425   -9.797442
  H      0.915134   -1.846635   -8.655497
  H     -0.344206   -3.076921   -8.978535

 Multiplicity           Mult            ....    1
 Number of Electrons    NEL             ....   18
 Basis Dimension        Dim             ....  172

ORBITAL ENERGIES
----------------

  NO   OCC          E(Eh)            E(eV)
   0   2.0000     -19.233214      -523.3624
   1   2.0000     -10.312724      -280.6235
   2   2.0000      -1.137975       -30.9659
   3   2.0000      -0.798714       -21.7341
   4   2.0000      -0.612067       -16.6552
   5   2.0000      -0.546510       -14.8713
   6   2.0000      -0.519999       -14.1499
   7   2.0000      -0.439055       -11.9473
   8   2.0000      -0.376695       -10.2504
   9   0.0000       0.068262         1.8575
  10   0.0000       0.137432         3.7397
  11   0.0000       0.144508         3.9323
  12   0.0000       0.167091         4.5468
  13   0.0000       0.186042         5.0625

MULLIKEN ATOMIC CHARGES
-----------------------
   0 C :   -0.002034
   1 O :   -0.001539
   2 H :   -0.000081
   3 H :   -0.000181
   4 H :   -0.000164
   5 H :   -0.000078
   6 C :   -0.185417
   7 O :   -0.462571
   8 H :    0.310668
   9 H :    0.101748
  10 H :    0.127149
  11 H :    0.112500
Sum of atomic charges:    0.0000000

LOEWDIN ATOMIC CHARGES
----------------------
   0 C :   -0.005989
   1 O :   -0.015410
   2 H :   -0.000833
   3 H :   -0.000942
   4 H :   -0.000314
   5 H :   -0.000108
   6 C :   -0.380615
   7 O :   -0.065132
   8 H :    0.169726
   9 H :    0.096627
  10 H :    0.111199
  11 H :    0.091791

  Mayer bond orders larger than 0.1
B(  6-C ,  7-O ) :   0.9957 B(  6-C ,  9-H ) :   0.9696 B(  6-C , 10-H ) :   0.9748
B(  6-C , 11-H ) :   0.9788 B(  7-O ,  8-H ) :   0.9125

Dispersion correction           -0.000246510
FINAL SINGLE POINT ENERGY      -115.734400824134

DIPOLE MOMENT
-------------
                                X             Y             Z
Electronic contribution:     -0.92371       0.65104       1.54281
Nuclear contribution   :      0.67667      -0.94245      -2.13315
                        -----------------------------------------
Total Dipole Moment    :     -0.24705      -0.29142      -0.59034
                        -----------------------------------------
Magnitude (a.u.)       :      0.70317
Magnitude (Debye)      :      1.78732

Rotational constants in cm-1:     4.416876     0.817560     0.787064
Rotational constants in MHz : 132414.602736 24509.843451 23595.578373

                             ****ORCA TERMINATED NORMALLY****
TOTAL RUN TIME: 0 days 0 hours 0 minutes 45 seconds 967 msec
