                         Program Version 4.1.2  - RELEASE  -
|  1> #Run DFT-D3 single point of the dimer
|  2> ! wB97X-D3 def2-TZVP TIGHTSCF CHELPG PMODEL PAL8
|  3>
|  4> %base "12-66_DFT_AB"
|  5>
|  6> %scf
|  7> MaxIter 1000
|  8> end
|  9>
| 10> * xyz 0 1
| 11>   C                      6.939438             8.381128             7.470866
| 12>   O                      6.725867             7.125149             6.925908
| 13>   H                      6.458362             6.563001             7.707976
| 14>   H                      6.795791             9.090185             6.659182
| 15>   H                      6.342889             8.682943             8.259780
| 16>   H                      7.982865             8.432314             7.760599
| 17>   C                      4.501213             9.694876             2.436544
| 18>   O                      3.663614             8.551303             2.178854
| 19>   H                      3.863532             7.881030             2.839845
| 20>   H                      5.518683             9.629017             1.891389
| 21>   H                      4.050312             10.602869            2.109450
| 22>   H                      4.865483             9.896784             3.449164
| 23> *
| 24>
| 25> #Run DFT-D3 single point of the molecule with dimer basis set
| 26> $new_job
| 27> %base "12-66_DFT_A"
| 28> ! wB97X-D3 def2-TZVP TIGHTSCF CHELPG PMODEL
| 29>
| 30> %scf
| 31> MaxIter 1000
| 32> end
| 33>
| 34> * xyz 0 1
| 35>   C                      6.939438             8.381128             7.470866
| 36>   O                      6.725867             7.125149             6.925908
| 37>   H                      6.458362             6.563001             7.707976
| 38>   H                      6.795791             9.090185             6.659182
| 39>   H                      6.342889             8.682943             8.259780
| 40>   H                      7.982865             8.432314             7.760599
| 41>   C                    : 4.501213             9.694876             2.436544
| 42>   O                    : 3.663614             8.551303             2.178854
| 43>   H                    : 3.863532             7.881030             2.839845
| 44>   H                    : 5.518683             9.629017             1.891389
| 45>   H                    : 4.050312             10.602869            2.109450
| 46>   H                    : 4.865483             9.896784             3.449164
| 47> *
| 48>
| 49> #Run DFT-D3 single point of the particle with dimer basis set
| 50> $new_job
| 51> %base "12-66_DFT_B"
| 52> ! wB97X-D3 def2-TZVP TIGHTSCF CHELPG PMODEL
| 53>
| 54> %scf
| 55> MaxIter 1000
| 56> end
| 57>
| 58> * xyz 0 1
| 59>   C                    : 6.939438             8.381128             7.470866
| 60>   O                    : 6.725867             7.125149             6.925908
| 61>   H                    : 6.458362             6.563001             7.707976
| 62>   H                    : 6.795791             9.090185             6.659182
| 63>   H                    : 6.342889             8.682943             8.259780
| 64>   H                    : 7.982865             8.432314             7.760599
| 65>   C                      4.501213             9.694876             2.436544
| 66>   O                      3.663614             8.551303             2.178854
| 67>   H                      3.863532             7.881030             2.839845
| 68>   H                      5.518683             9.629017             1.891389
| 69>   H                      4.050312             10.602869            2.109450
| 70>   H                      4.865483             9.896784             3.449164
| 71> *
| 72>
| 73>                          ****END OF INPUT****
 Total Charge           Charge          ....    0
 Multiplicity           Mult            ....    1
 Number of Electrons    NEL             ....   36
Dispersion correction           -0.000689909
FINAL SINGLE POINT ENERGY      -231.459757477110
Dispersion correction           -0.000215229
FINAL SINGLE POINT ENERGY      -115.729545544739

CARTESIAN COORDINATES (ANGSTROEM)
---------------------------------
  C      6.939438    8.381128    7.470866
  O      6.725867    7.125149    6.925908
  H      6.458362    6.563001    7.707976
  H      6.795791    9.090185    6.659182
  H      6.342889    8.682943    8.259780
  H      7.982865    8.432314    7.760599
  C      4.501213    9.694876    2.436544
  O      3.663614    8.551303    2.178854
  H      3.863532    7.881030    2.839845
  H      5.518683    9.629017    1.891389
  H      4.050312   10.602869    2.109450
  H      4.865483    9.896784    3.449164

 Multiplicity           Mult            ....    1
 Number of Electrons    NEL             ....   18
 Basis Dimension        Dim             ....  172

ORBITAL ENERGIES
----------------

  NO   OCC          E(Eh)            E(eV)
   0   2.0000     -19.237139      -523.4692
   1   2.0000     -10.319248      -280.8010
   2   2.0000      -1.130644       -30.7664
   3   2.0000      -0.798081       -21.7169
   4   2.0000      -0.613173       -16.6853
   5   2.0000      -0.531507       -14.4631
   6   2.0000      -0.516405       -14.0521
   7   2.0000      -0.443506       -12.0684
   8   2.0000      -0.373662       -10.1679
   9   0.0000       0.080222         2.1829
  10   0.0000       0.114134         3.1057
  11   0.0000       0.140733         3.8295
  12   0.0000       0.164368         4.4727
  13   0.0000       0.180076         4.9001

MULLIKEN ATOMIC CHARGES
-----------------------
   0 C :   -0.000002
   1 O :   -0.000003
   2 H :   -0.000000
   3 H :   -0.000046
   4 H :    0.000001
   5 H :   -0.000001
   6 C :   -0.178682
   7 O :   -0.468366
   8 H :    0.316441
   9 H :    0.094869
  10 H :    0.125689
  11 H :    0.110100
Sum of atomic charges:   -0.0000000

LOEWDIN ATOMIC CHARGES
----------------------
   0 C :   -0.000032
   1 O :   -0.000001
   2 H :   -0.000000
   3 H :   -0.000118
   4 H :   -0.000000
   5 H :   -0.000000
   6 C :   -0.379886
   7 O :   -0.089704
   8 H :    0.170087
   9 H :    0.104566
  10 H :    0.099275
  11 H :    0.095814

  Mayer bond orders larger than 0.1
B(  6-C ,  7-O ) :   1.0107 B(  6-C ,  9-H ) :   0.9741 B(  6-C , 10-H ) :   0.9756
B(  6-C , 11-H ) :   0.9692 B(  7-O ,  8-H ) :   0.8992

Dispersion correction           -0.000292033
FINAL SINGLE POINT ENERGY      -115.729473643389

DIPOLE MOMENT
-------------
                                X             Y             Z
Electronic contribution:     -1.35766      -1.46311      -0.37310
Nuclear contribution   :      1.80356       1.50336       0.92657
                        -----------------------------------------
Total Dipole Moment    :      0.44590       0.04025       0.55347
                        -----------------------------------------
Magnitude (a.u.)       :      0.71188
Magnitude (Debye)      :      1.80945

Rotational constants in cm-1:     4.422492     0.786949     0.761267
Rotational constants in MHz : 132582.978105 23592.150225 22822.196406

                             ****ORCA TERMINATED NORMALLY****
TOTAL RUN TIME: 0 days 0 hours 0 minutes 56 seconds 954 msec
