                         Program Version 4.1.2  - RELEASE  -
|  1> #Run DFT-D3 single point of the dimer
|  2> ! wB97X-D3 def2-TZVP TIGHTSCF CHELPG PMODEL PAL8
|  3>
|  4> %base "18-130_DFT_AB"
|  5>
|  6> %scf
|  7> MaxIter 1000
|  8> end
|  9>
| 10> * xyz 0 1
| 11>   C                      -10.286534           10.673882            3.793278
| 12>   O                      -8.910454            10.924553            3.478608
| 13>   H                      -8.508359            11.084379            4.307705
| 14>   H                      -10.933284           10.835216            2.948469
| 15>   H                      -10.407705           9.686016             4.147224
| 16>   H                      -10.547487           11.323331            4.581449
| 17>   C                      -7.055349            10.135915            6.214749
| 18>   O                      -7.405501            11.491460            6.002087
| 19>   H                      -7.257205            12.054520            6.777185
| 20>   H                      -6.416464            9.677373             5.397483
| 21>   H                      -6.474330            10.030082            7.137446
| 22>   H                      -7.946947            9.449948             6.394496
| 23> *
| 24>
| 25> #Run DFT-D3 single point of the molecule with dimer basis set
| 26> $new_job
| 27> %base "18-130_DFT_A"
| 28> ! wB97X-D3 def2-TZVP TIGHTSCF CHELPG PMODEL
| 29>
| 30> %scf
| 31> MaxIter 1000
| 32> end
| 33>
| 34> * xyz 0 1
| 35>   C                      -10.286534           10.673882            3.793278
| 36>   O                      -8.910454            10.924553            3.478608
| 37>   H                      -8.508359            11.084379            4.307705
| 38>   H                      -10.933284           10.835216            2.948469
| 39>   H                      -10.407705           9.686016             4.147224
| 40>   H                      -10.547487           11.323331            4.581449
| 41>   C                    : -7.055349            10.135915            6.214749
| 42>   O                    : -7.405501            11.491460            6.002087
| 43>   H                    : -7.257205            12.054520            6.777185
| 44>   H                    : -6.416464            9.677373             5.397483
| 45>   H                    : -6.474330            10.030082            7.137446
| 46>   H                    : -7.946947            9.449948             6.394496
| 47> *
| 48>
| 49> #Run DFT-D3 single point of the particle with dimer basis set
| 50> $new_job
| 51> %base "18-130_DFT_B"
| 52> ! wB97X-D3 def2-TZVP TIGHTSCF CHELPG PMODEL
| 53>
| 54> %scf
| 55> MaxIter 1000
| 56> end
| 57>
| 58> * xyz 0 1
| 59>   C                    : -10.286534           10.673882            3.793278
| 60>   O                    : -8.910454            10.924553            3.478608
| 61>   H                    : -8.508359            11.084379            4.307705
| 62>   H                    : -10.933284           10.835216            2.948469
| 63>   H                    : -10.407705           9.686016             4.147224
| 64>   H                    : -10.547487           11.323331            4.581449
| 65>   C                      -7.055349            10.135915            6.214749
| 66>   O                      -7.405501            11.491460            6.002087
| 67>   H                      -7.257205            12.054520            6.777185
| 68>   H                      -6.416464            9.677373             5.397483
| 69>   H                      -6.474330            10.030082            7.137446
| 70>   H                      -7.946947            9.449948             6.394496
| 71> *
| 72>
| 73>                          ****END OF INPUT****
 Total Charge           Charge          ....    0
 Multiplicity           Mult            ....    1
 Number of Electrons    NEL             ....   36
Dispersion correction           -0.001943773
FINAL SINGLE POINT ENERGY      -231.470970212478
Dispersion correction           -0.000212735
FINAL SINGLE POINT ENERGY      -115.732929680447

CARTESIAN COORDINATES (ANGSTROEM)
---------------------------------
  C    -10.286534   10.673882    3.793278
  O     -8.910454   10.924553    3.478608
  H     -8.508359   11.084379    4.307705
  H    -10.933284   10.835216    2.948469
  H    -10.407705    9.686016    4.147224
  H    -10.547487   11.323331    4.581449
  C     -7.055349   10.135915    6.214749
  O     -7.405501   11.491460    6.002087
  H     -7.257205   12.054520    6.777185
  H     -6.416464    9.677373    5.397483
  H     -6.474330   10.030082    7.137446
  H     -7.946947    9.449948    6.394496

 Multiplicity           Mult            ....    1
 Number of Electrons    NEL             ....   18
 Basis Dimension        Dim             ....  172

ORBITAL ENERGIES
----------------

  NO   OCC          E(Eh)            E(eV)
   0   2.0000     -19.232879      -523.3532
   1   2.0000     -10.323618      -280.9199
   2   2.0000      -1.132350       -30.8128
   3   2.0000      -0.791881       -21.5482
   4   2.0000      -0.615003       -16.7351
   5   2.0000      -0.531430       -14.4609
   6   2.0000      -0.526273       -14.3206
   7   2.0000      -0.424569       -11.5531
   8   2.0000      -0.374001       -10.1771
   9   0.0000       0.096501         2.6259
  10   0.0000       0.121693         3.3114
  11   0.0000       0.144570         3.9340
  12   0.0000       0.186483         5.0745
  13   0.0000       0.191355         5.2070

MULLIKEN ATOMIC CHARGES
-----------------------
   0 C :    0.001474
   1 O :   -0.001192
   2 H :    0.000693
   3 H :   -0.000101
   4 H :   -0.000307
   5 H :   -0.002838
   6 C :   -0.174874
   7 O :   -0.482624
   8 H :    0.320930
   9 H :    0.120854
  10 H :    0.110949
  11 H :    0.107036
Sum of atomic charges:   -0.0000000

LOEWDIN ATOMIC CHARGES
----------------------
   0 C :   -0.001844
   1 O :   -0.002731
   2 H :   -0.027074
   3 H :   -0.000016
   4 H :   -0.000238
   5 H :   -0.000904
   6 C :   -0.393649
   7 O :   -0.061682
   8 H :    0.174613
   9 H :    0.111926
  10 H :    0.096692
  11 H :    0.104908

  Mayer bond orders larger than 0.1
B(  6-C ,  7-O ) :   0.9996 B(  6-C ,  9-H ) :   0.9715 B(  6-C , 10-H ) :   0.9776
B(  6-C , 11-H ) :   0.9688 B(  7-O ,  8-H ) :   0.8909

Dispersion correction           -0.000277702
FINAL SINGLE POINT ENERGY      -115.731346343955

DIPOLE MOMENT
-------------
                                X             Y             Z
Electronic contribution:     -0.48523       1.81985      -0.45925
Nuclear contribution   :      0.75716      -1.98220       1.09166
                        -----------------------------------------
Total Dipole Moment    :      0.27193      -0.16235       0.63241
                        -----------------------------------------
Magnitude (a.u.)       :      0.70728
Magnitude (Debye)      :      1.79776

Rotational constants in cm-1:     4.282064     0.804188     0.782194
Rotational constants in MHz : 128373.051795 24108.953514 23449.582435

                             ****ORCA TERMINATED NORMALLY****
TOTAL RUN TIME: 0 days 0 hours 0 minutes 56 seconds 796 msec
