                         Program Version 4.1.2  - RELEASE  -
|  1> #Run DFT-D3 single point of the dimer
|  2> ! wB97X-D3 def2-TZVP TIGHTSCF CHELPG PMODEL PAL8
|  3>
|  4> %base "12-205_DFT_AB"
|  5>
|  6> %scf
|  7> MaxIter 1000
|  8> end
|  9>
| 10> * xyz 0 1
| 11>   C                      -9.041128            7.108343             4.678222
| 12>   O                      -8.063156            7.959100             5.297418
| 13>   H                      -8.602774            8.629575             5.673982
| 14>   H                      -8.511217            6.497852             4.034014
| 15>   H                      -9.565376            6.519665             5.399782
| 16>   H                      -9.755183            7.740047             4.094476
| 17>   C                      -4.684964            9.543818             5.077523
| 18>   O                      -4.916414            8.767088             6.234499
| 19>   H                      -5.675565            8.157495             5.938927
| 20>   H                      -3.998904            10.359055            5.346054
| 21>   H                      -4.087212            8.875435             4.456311
| 22>   H                      -5.571175            9.865341             4.530724
| 23> *
| 24>
| 25> #Run DFT-D3 single point of the molecule with dimer basis set
| 26> $new_job
| 27> %base "12-205_DFT_A"
| 28> ! wB97X-D3 def2-TZVP TIGHTSCF CHELPG PMODEL
| 29>
| 30> %scf
| 31> MaxIter 1000
| 32> end
| 33>
| 34> * xyz 0 1
| 35>   C                      -9.041128            7.108343             4.678222
| 36>   O                      -8.063156            7.959100             5.297418
| 37>   H                      -8.602774            8.629575             5.673982
| 38>   H                      -8.511217            6.497852             4.034014
| 39>   H                      -9.565376            6.519665             5.399782
| 40>   H                      -9.755183            7.740047             4.094476
| 41>   C                    : -4.684964            9.543818             5.077523
| 42>   O                    : -4.916414            8.767088             6.234499
| 43>   H                    : -5.675565            8.157495             5.938927
| 44>   H                    : -3.998904            10.359055            5.346054
| 45>   H                    : -4.087212            8.875435             4.456311
| 46>   H                    : -5.571175            9.865341             4.530724
| 47> *
| 48>
| 49> #Run DFT-D3 single point of the particle with dimer basis set
| 50> $new_job
| 51> %base "12-205_DFT_B"
| 52> ! wB97X-D3 def2-TZVP TIGHTSCF CHELPG PMODEL
| 53>
| 54> %scf
| 55> MaxIter 1000
| 56> end
| 57>
| 58> * xyz 0 1
| 59>   C                    : -9.041128            7.108343             4.678222
| 60>   O                    : -8.063156            7.959100             5.297418
| 61>   H                    : -8.602774            8.629575             5.673982
| 62>   H                    : -8.511217            6.497852             4.034014
| 63>   H                    : -9.565376            6.519665             5.399782
| 64>   H                    : -9.755183            7.740047             4.094476
| 65>   C                      -4.684964            9.543818             5.077523
| 66>   O                      -4.916414            8.767088             6.234499
| 67>   H                      -5.675565            8.157495             5.938927
| 68>   H                      -3.998904            10.359055            5.346054
| 69>   H                      -4.087212            8.875435             4.456311
| 70>   H                      -5.571175            9.865341             4.530724
| 71> *
| 72>
| 73>                          ****END OF INPUT****
 Total Charge           Charge          ....    0
 Multiplicity           Mult            ....    1
 Number of Electrons    NEL             ....   36
Dispersion correction           -0.001396291
FINAL SINGLE POINT ENERGY      -231.468092225400
Dispersion correction           -0.000213665
FINAL SINGLE POINT ENERGY      -115.732727083401

CARTESIAN COORDINATES (ANGSTROEM)
---------------------------------
  C     -9.041128    7.108343    4.678222
  O     -8.063156    7.959100    5.297418
  H     -8.602774    8.629575    5.673982
  H     -8.511217    6.497852    4.034014
  H     -9.565376    6.519665    5.399782
  H     -9.755183    7.740047    4.094476
  C     -4.684964    9.543818    5.077523
  O     -4.916414    8.767088    6.234499
  H     -5.675565    8.157495    5.938927
  H     -3.998904   10.359055    5.346054
  H     -4.087212    8.875435    4.456311
  H     -5.571175    9.865341    4.530724

 Multiplicity           Mult            ....    1
 Number of Electrons    NEL             ....   18
 Basis Dimension        Dim             ....  172

ORBITAL ENERGIES
----------------

  NO   OCC          E(Eh)            E(eV)
   0   2.0000     -19.234096      -523.3864
   1   2.0000     -10.311458      -280.5890
   2   2.0000      -1.129879       -30.7456
   3   2.0000      -0.786882       -21.4121
   4   2.0000      -0.605528       -16.4773
   5   2.0000      -0.541664       -14.7394
   6   2.0000      -0.522776       -14.2255
   7   2.0000      -0.441521       -12.0144
   8   2.0000      -0.366495        -9.9728
   9   0.0000       0.068511         1.8643
  10   0.0000       0.118626         3.2280
  11   0.0000       0.154244         4.1972
  12   0.0000       0.165488         4.5032
  13   0.0000       0.188443         5.1278

MULLIKEN ATOMIC CHARGES
-----------------------
   0 C :   -0.000541
   1 O :   -0.001883
   2 H :   -0.000450
   3 H :    0.000013
   4 H :    0.000028
   5 H :    0.000001
   6 C :   -0.177281
   7 O :   -0.465220
   8 H :    0.313895
   9 H :    0.118670
  10 H :    0.104619
  11 H :    0.108149
Sum of atomic charges:   -0.0000000

LOEWDIN ATOMIC CHARGES
----------------------
   0 C :   -0.000431
   1 O :   -0.005448
   2 H :   -0.000644
   3 H :   -0.000032
   4 H :   -0.000007
   5 H :   -0.000011
   6 C :   -0.396516
   7 O :   -0.099012
   8 H :    0.202968
   9 H :    0.109575
  10 H :    0.096134
  11 H :    0.093425

  Mayer bond orders larger than 0.1
B(  6-C ,  7-O ) :   0.9929 B(  6-C ,  9-H ) :   0.9721 B(  6-C , 10-H ) :   0.9914
B(  6-C , 11-H ) :   0.9667 B(  7-O ,  8-H ) :   0.8989

Dispersion correction           -0.000217321
FINAL SINGLE POINT ENERGY      -115.728955539124

DIPOLE MOMENT
-------------
                                X             Y             Z
Electronic contribution:     -0.30050      -0.76272       1.57074
Nuclear contribution   :     -0.05408       0.69727      -2.19056
                        -----------------------------------------
Total Dipole Moment    :     -0.35458      -0.06546      -0.61981
                        -----------------------------------------
Magnitude (a.u.)       :      0.71706
Magnitude (Debye)      :      1.82263

Rotational constants in cm-1:     4.090516     0.850012     0.806842
Rotational constants in MHz : 122630.592961 25482.716776 24188.522484

                             ****ORCA TERMINATED NORMALLY****
TOTAL RUN TIME: 0 days 0 hours 1 minutes 11 seconds 766 msec
