                         Program Version 4.1.2  - RELEASE  -
|  1> #Run DFT-D3 single point of the dimer
|  2> ! wB97X-D3 def2-TZVP TIGHTSCF CHELPG PMODEL PAL8
|  3>
|  4> %base "16-206_DFT_AB"
|  5>
|  6> %scf
|  7> MaxIter 1000
|  8> end
|  9>
| 10> * xyz 0 1
| 11>   C                      5.692317             -5.416236            10.598718
| 12>   O                      4.594151             -6.221990            10.637493
| 13>   H                      4.007334             -5.770975            10.020073
| 14>   H                      6.214354             -5.317533            11.589979
| 15>   H                      6.364559             -5.729289            9.777125
| 16>   H                      5.299963             -4.342257            10.394742
| 17>   C                      0.911363             -8.439596            9.086391
| 18>   O                      2.026675             -7.599376            9.425141
| 19>   H                      2.761438             -8.201270            9.323782
| 20>   H                      0.176568             -8.332073            9.896364
| 21>   H                      0.433024             -8.229368            8.098772
| 22>   H                      1.205850             -9.505201            9.067586
| 23> *
| 24>
| 25> #Run DFT-D3 single point of the molecule with dimer basis set
| 26> $new_job
| 27> %base "16-206_DFT_A"
| 28> ! wB97X-D3 def2-TZVP TIGHTSCF CHELPG PMODEL
| 29>
| 30> %scf
| 31> MaxIter 1000
| 32> end
| 33>
| 34> * xyz 0 1
| 35>   C                      5.692317             -5.416236            10.598718
| 36>   O                      4.594151             -6.221990            10.637493
| 37>   H                      4.007334             -5.770975            10.020073
| 38>   H                      6.214354             -5.317533            11.589979
| 39>   H                      6.364559             -5.729289            9.777125
| 40>   H                      5.299963             -4.342257            10.394742
| 41>   C                    : 0.911363             -8.439596            9.086391
| 42>   O                    : 2.026675             -7.599376            9.425141
| 43>   H                    : 2.761438             -8.201270            9.323782
| 44>   H                    : 0.176568             -8.332073            9.896364
| 45>   H                    : 0.433024             -8.229368            8.098772
| 46>   H                    : 1.205850             -9.505201            9.067586
| 47> *
| 48>
| 49> #Run DFT-D3 single point of the particle with dimer basis set
| 50> $new_job
| 51> %base "16-206_DFT_B"
| 52> ! wB97X-D3 def2-TZVP TIGHTSCF CHELPG PMODEL
| 53>
| 54> %scf
| 55> MaxIter 1000
| 56> end
| 57>
| 58> * xyz 0 1
| 59>   C                    : 5.692317             -5.416236            10.598718
| 60>   O                    : 4.594151             -6.221990            10.637493
| 61>   H                    : 4.007334             -5.770975            10.020073
| 62>   H                    : 6.214354             -5.317533            11.589979
| 63>   H                    : 6.364559             -5.729289            9.777125
| 64>   H                    : 5.299963             -4.342257            10.394742
| 65>   C                      0.911363             -8.439596            9.086391
| 66>   O                      2.026675             -7.599376            9.425141
| 67>   H                      2.761438             -8.201270            9.323782
| 68>   H                      0.176568             -8.332073            9.896364
| 69>   H                      0.433024             -8.229368            8.098772
| 70>   H                      1.205850             -9.505201            9.067586
| 71> *
| 72>
| 73>                          ****END OF INPUT****
 Total Charge           Charge          ....    0
 Multiplicity           Mult            ....    1
 Number of Electrons    NEL             ....   36
Dispersion correction           -0.001195141
FINAL SINGLE POINT ENERGY      -231.463000050516
Dispersion correction           -0.000210553
FINAL SINGLE POINT ENERGY      -115.726621818238

CARTESIAN COORDINATES (ANGSTROEM)
---------------------------------
  C      5.692317   -5.416236   10.598718
  O      4.594151   -6.221990   10.637493
  H      4.007334   -5.770975   10.020073
  H      6.214354   -5.317533   11.589979
  H      6.364559   -5.729289    9.777125
  H      5.299963   -4.342257   10.394742
  C      0.911363   -8.439596    9.086391
  O      2.026675   -7.599376    9.425141
  H      2.761438   -8.201270    9.323782
  H      0.176568   -8.332073    9.896364
  H      0.433024   -8.229368    8.098772
  H      1.205850   -9.505201    9.067586

 Multiplicity           Mult            ....    1
 Number of Electrons    NEL             ....   18
 Basis Dimension        Dim             ....  172

ORBITAL ENERGIES
----------------

  NO   OCC          E(Eh)            E(eV)
   0   2.0000     -19.232995      -523.3564
   1   2.0000     -10.320031      -280.8223
   2   2.0000      -1.135738       -30.9050
   3   2.0000      -0.791382       -21.5346
   4   2.0000      -0.609257       -16.5787
   5   2.0000      -0.538428       -14.6514
   6   2.0000      -0.520934       -14.1753
   7   2.0000      -0.441050       -12.0016
   8   2.0000      -0.376724       -10.2512
   9   0.0000       0.092030         2.5043
  10   0.0000       0.115088         3.1317
  11   0.0000       0.150004         4.0818
  12   0.0000       0.187738         5.1086
  13   0.0000       0.198875         5.4117

MULLIKEN ATOMIC CHARGES
-----------------------
   0 C :    0.000158
   1 O :   -0.000342
   2 H :   -0.004940
   3 H :    0.000011
   4 H :   -0.000018
   5 H :    0.000033
   6 C :   -0.189937
   7 O :   -0.454224
   8 H :    0.315693
   9 H :    0.118969
  10 H :    0.107857
  11 H :    0.106741
Sum of atomic charges:   -0.0000000

LOEWDIN ATOMIC CHARGES
----------------------
   0 C :   -0.000155
   1 O :   -0.002699
   2 H :   -0.006009
   3 H :   -0.000003
   4 H :   -0.000005
   5 H :   -0.000004
   6 C :   -0.377845
   7 O :   -0.085548
   8 H :    0.168333
   9 H :    0.104023
  10 H :    0.101336
  11 H :    0.098575

  Mayer bond orders larger than 0.1
B(  6-C ,  7-O ) :   1.0057 B(  6-C ,  9-H ) :   0.9788 B(  6-C , 10-H ) :   0.9662
B(  6-C , 11-H ) :   0.9835 B(  7-O ,  8-H ) :   0.9029

Dispersion correction           -0.000252862
FINAL SINGLE POINT ENERGY      -115.733202182009

DIPOLE MOMENT
-------------
                                X             Y             Z
Electronic contribution:      1.34817       1.24909       0.41366
Nuclear contribution   :     -1.31814      -1.98580      -0.59868
                        -----------------------------------------
Total Dipole Moment    :      0.03004      -0.73671      -0.18502
                        -----------------------------------------
Magnitude (a.u.)       :      0.76018
Magnitude (Debye)      :      1.93223

Rotational constants in cm-1:     4.185104     0.811441     0.784444
Rotational constants in MHz : 125466.258432 24326.379727 23517.048381

                             ****ORCA TERMINATED NORMALLY****
TOTAL RUN TIME: 0 days 0 hours 0 minutes 55 seconds 853 msec
