                         Program Version 4.1.2  - RELEASE  -
|  1> #Run DFT-D3 single point of the dimer
|  2> ! wB97X-D3 def2-TZVP TIGHTSCF CHELPG PMODEL PAL8
|  3>
|  4> %base "7-138_DFT_AB"
|  5>
|  6> %scf
|  7> MaxIter 1000
|  8> end
|  9>
| 10> * xyz 0 1
| 11>   C                      -6.417568            5.724779             -9.595401
| 12>   O                      -6.496729            5.320561             -10.985951
| 13>   H                      -5.837591            4.593481             -11.037787
| 14>   H                      -5.394733            5.521762             -9.256778
| 15>   H                      -6.775722            6.772513             -9.423022
| 16>   H                      -7.171860            5.219922             -8.997641
| 17>   C                      -8.073983            1.833345             -9.588540
| 18>   O                      -7.130411            2.584063             -8.864001
| 19>   H                      -6.456292            1.998703             -8.551465
| 20>   H                      -8.235140            0.778497             -9.290424
| 21>   H                      -9.112701            2.244961             -9.539074
| 22>   H                      -7.848559            1.591181             -10.633758
| 23> *
| 24>
| 25> #Run DFT-D3 single point of the molecule with dimer basis set
| 26> $new_job
| 27> %base "7-138_DFT_A"
| 28> ! wB97X-D3 def2-TZVP TIGHTSCF CHELPG PMODEL
| 29>
| 30> %scf
| 31> MaxIter 1000
| 32> end
| 33>
| 34> * xyz 0 1
| 35>   C                      -6.417568            5.724779             -9.595401
| 36>   O                      -6.496729            5.320561             -10.985951
| 37>   H                      -5.837591            4.593481             -11.037787
| 38>   H                      -5.394733            5.521762             -9.256778
| 39>   H                      -6.775722            6.772513             -9.423022
| 40>   H                      -7.171860            5.219922             -8.997641
| 41>   C                    : -8.073983            1.833345             -9.588540
| 42>   O                    : -7.130411            2.584063             -8.864001
| 43>   H                    : -6.456292            1.998703             -8.551465
| 44>   H                    : -8.235140            0.778497             -9.290424
| 45>   H                    : -9.112701            2.244961             -9.539074
| 46>   H                    : -7.848559            1.591181             -10.633758
| 47> *
| 48>
| 49> #Run DFT-D3 single point of the particle with dimer basis set
| 50> $new_job
| 51> %base "7-138_DFT_B"
| 52> ! wB97X-D3 def2-TZVP TIGHTSCF CHELPG PMODEL
| 53>
| 54> %scf
| 55> MaxIter 1000
| 56> end
| 57>
| 58> * xyz 0 1
| 59>   C                    : -6.417568            5.724779             -9.595401
| 60>   O                    : -6.496729            5.320561             -10.985951
| 61>   H                    : -5.837591            4.593481             -11.037787
| 62>   H                    : -5.394733            5.521762             -9.256778
| 63>   H                    : -6.775722            6.772513             -9.423022
| 64>   H                    : -7.171860            5.219922             -8.997641
| 65>   C                      -8.073983            1.833345             -9.588540
| 66>   O                      -7.130411            2.584063             -8.864001
| 67>   H                      -6.456292            1.998703             -8.551465
| 68>   H                      -8.235140            0.778497             -9.290424
| 69>   H                      -9.112701            2.244961             -9.539074
| 70>   H                      -7.848559            1.591181             -10.633758
| 71> *
| 72>
| 73>                          ****END OF INPUT****
 Total Charge           Charge          ....    0
 Multiplicity           Mult            ....    1
 Number of Electrons    NEL             ....   36
Dispersion correction           -0.001857792
FINAL SINGLE POINT ENERGY      -231.459805203033
Dispersion correction           -0.000248476
FINAL SINGLE POINT ENERGY      -115.729324042853

CARTESIAN COORDINATES (ANGSTROEM)
---------------------------------
  C     -6.417568    5.724779   -9.595401
  O     -6.496729    5.320561  -10.985951
  H     -5.837591    4.593481  -11.037787
  H     -5.394733    5.521762   -9.256778
  H     -6.775722    6.772513   -9.423022
  H     -7.171860    5.219922   -8.997641
  C     -8.073983    1.833345   -9.588540
  O     -7.130411    2.584063   -8.864001
  H     -6.456292    1.998703   -8.551465
  H     -8.235140    0.778497   -9.290424
  H     -9.112701    2.244961   -9.539074
  H     -7.848559    1.591181  -10.633758

 Multiplicity           Mult            ....    1
 Number of Electrons    NEL             ....   18
 Basis Dimension        Dim             ....  172

ORBITAL ENERGIES
----------------

  NO   OCC          E(Eh)            E(eV)
   0   2.0000     -19.238231      -523.4989
   1   2.0000     -10.317648      -280.7575
   2   2.0000      -1.145364       -31.1669
   3   2.0000      -0.799180       -21.7468
   4   2.0000      -0.626351       -17.0439
   5   2.0000      -0.534478       -14.5439
   6   2.0000      -0.521900       -14.2016
   7   2.0000      -0.435683       -11.8555
   8   2.0000      -0.375888       -10.2284
   9   0.0000       0.098400         2.6776
  10   0.0000       0.127548         3.4707
  11   0.0000       0.145523         3.9599
  12   0.0000       0.175459         4.7745
  13   0.0000       0.192371         5.2347

MULLIKEN ATOMIC CHARGES
-----------------------
   0 C :    0.008189
   1 O :   -0.000704
   2 H :   -0.002698
   3 H :   -0.001925
   4 H :   -0.000243
   5 H :   -0.008176
   6 C :   -0.181757
   7 O :   -0.455035
   8 H :    0.315244
   9 H :    0.101902
  10 H :    0.123650
  11 H :    0.101554
Sum of atomic charges:   -0.0000000

LOEWDIN ATOMIC CHARGES
----------------------
   0 C :   -0.010299
   1 O :   -0.000569
   2 H :   -0.001836
   3 H :   -0.000765
   4 H :   -0.000087
   5 H :   -0.007508
   6 C :   -0.410684
   7 O :   -0.038511
   8 H :    0.164194
   9 H :    0.098699
  10 H :    0.113093
  11 H :    0.094273

  Mayer bond orders larger than 0.1
B(  6-C ,  7-O ) :   1.0077 B(  6-C ,  9-H ) :   0.9721 B(  6-C , 10-H ) :   0.9758
B(  6-C , 11-H ) :   0.9676 B(  7-O ,  8-H ) :   0.8982

Dispersion correction           -0.000277076
FINAL SINGLE POINT ENERGY      -115.728953043611

DIPOLE MOMENT
-------------
                                X             Y             Z
Electronic contribution:      1.30852       1.28215       1.01895
Nuclear contribution   :     -1.23382      -1.99130      -1.07404
                        -----------------------------------------
Total Dipole Moment    :      0.07470      -0.70915      -0.05509
                        -----------------------------------------
Magnitude (a.u.)       :      0.71520
Magnitude (Debye)      :      1.81788

Rotational constants in cm-1:     4.539100     0.815944     0.782167
Rotational constants in MHz : 136078.806625 24461.391101 23448.783749

                             ****ORCA TERMINATED NORMALLY****
TOTAL RUN TIME: 0 days 0 hours 1 minutes 4 seconds 950 msec
