                         Program Version 4.1.2  - RELEASE  -
|  1> #Run DFT-D3 single point of the dimer
|  2> ! wB97X-D3 def2-TZVP TIGHTSCF CHELPG PMODEL PAL8
|  3>
|  4> %base "12-119_DFT_AB"
|  5>
|  6> %scf
|  7> MaxIter 1000
|  8> end
|  9>
| 10> * xyz 0 1
| 11>   C                      0.458656             -0.930274            -4.011846
| 12>   O                      1.515919             -0.989407            -3.097757
| 13>   H                      2.343066             -1.128490            -3.561394
| 14>   H                      0.659038             -0.054227            -4.714166
| 15>   H                      0.496070             -1.799020            -4.676867
| 16>   H                      -0.554769            -0.926448            -3.628725
| 17>   C                      3.342125             -5.023051            -5.318537
| 18>   O                      2.887319             -4.274273            -6.430763
| 19>   H                      3.572304             -4.139006            -7.111828
| 20>   H                      4.340022             -4.689167            -5.002145
| 21>   H                      2.573758             -5.014004            -4.521684
| 22>   H                      3.464078             -6.125490            -5.575400
| 23> *
| 24>
| 25> #Run DFT-D3 single point of the molecule with dimer basis set
| 26> $new_job
| 27> %base "12-119_DFT_A"
| 28> ! wB97X-D3 def2-TZVP TIGHTSCF CHELPG PMODEL
| 29>
| 30> %scf
| 31> MaxIter 1000
| 32> end
| 33>
| 34> * xyz 0 1
| 35>   C                      0.458656             -0.930274            -4.011846
| 36>   O                      1.515919             -0.989407            -3.097757
| 37>   H                      2.343066             -1.128490            -3.561394
| 38>   H                      0.659038             -0.054227            -4.714166
| 39>   H                      0.496070             -1.799020            -4.676867
| 40>   H                      -0.554769            -0.926448            -3.628725
| 41>   C                    : 3.342125             -5.023051            -5.318537
| 42>   O                    : 2.887319             -4.274273            -6.430763
| 43>   H                    : 3.572304             -4.139006            -7.111828
| 44>   H                    : 4.340022             -4.689167            -5.002145
| 45>   H                    : 2.573758             -5.014004            -4.521684
| 46>   H                    : 3.464078             -6.125490            -5.575400
| 47> *
| 48>
| 49> #Run DFT-D3 single point of the particle with dimer basis set
| 50> $new_job
| 51> %base "12-119_DFT_B"
| 52> ! wB97X-D3 def2-TZVP TIGHTSCF CHELPG PMODEL
| 53>
| 54> %scf
| 55> MaxIter 1000
| 56> end
| 57>
| 58> * xyz 0 1
| 59>   C                    : 0.458656             -0.930274            -4.011846
| 60>   O                    : 1.515919             -0.989407            -3.097757
| 61>   H                    : 2.343066             -1.128490            -3.561394
| 62>   H                    : 0.659038             -0.054227            -4.714166
| 63>   H                    : 0.496070             -1.799020            -4.676867
| 64>   H                    : -0.554769            -0.926448            -3.628725
| 65>   C                      3.342125             -5.023051            -5.318537
| 66>   O                      2.887319             -4.274273            -6.430763
| 67>   H                      3.572304             -4.139006            -7.111828
| 68>   H                      4.340022             -4.689167            -5.002145
| 69>   H                      2.573758             -5.014004            -4.521684
| 70>   H                      3.464078             -6.125490            -5.575400
| 71> *
| 72>
| 73>                          ****END OF INPUT****
 Total Charge           Charge          ....    0
 Multiplicity           Mult            ....    1
 Number of Electrons    NEL             ....   36
Dispersion correction           -0.000918591
FINAL SINGLE POINT ENERGY      -231.465513402818
Dispersion correction           -0.000231921
FINAL SINGLE POINT ENERGY      -115.730490660937

CARTESIAN COORDINATES (ANGSTROEM)
---------------------------------
  C      0.458656   -0.930274   -4.011846
  O      1.515919   -0.989407   -3.097757
  H      2.343066   -1.128490   -3.561394
  H      0.659038   -0.054227   -4.714166
  H      0.496070   -1.799020   -4.676867
  H     -0.554769   -0.926448   -3.628725
  C      3.342125   -5.023051   -5.318537
  O      2.887319   -4.274273   -6.430763
  H      3.572304   -4.139006   -7.111828
  H      4.340022   -4.689167   -5.002145
  H      2.573758   -5.014004   -4.521684
  H      3.464078   -6.125490   -5.575400

 Multiplicity           Mult            ....    1
 Number of Electrons    NEL             ....   18
 Basis Dimension        Dim             ....  172

ORBITAL ENERGIES
----------------

  NO   OCC          E(Eh)            E(eV)
   0   2.0000     -19.229918      -523.2727
   1   2.0000     -10.321492      -280.8621
   2   2.0000      -1.129768       -30.7426
   3   2.0000      -0.792008       -21.5516
   4   2.0000      -0.610372       -16.6091
   5   2.0000      -0.537715       -14.6320
   6   2.0000      -0.523380       -14.2419
   7   2.0000      -0.430096       -11.7035
   8   2.0000      -0.368703       -10.0329
   9   0.0000       0.091457         2.4887
  10   0.0000       0.115734         3.1493
  11   0.0000       0.149362         4.0644
  12   0.0000       0.171911         4.6779
  13   0.0000       0.187638         5.1059

MULLIKEN ATOMIC CHARGES
-----------------------
   0 C :    0.000478
   1 O :    0.000042
   2 H :   -0.000153
   3 H :    0.000005
   4 H :   -0.001687
   5 H :   -0.000037
   6 C :   -0.147881
   7 O :   -0.485114
   8 H :    0.317699
   9 H :    0.099179
  10 H :    0.123797
  11 H :    0.093671
Sum of atomic charges:    0.0000000

LOEWDIN ATOMIC CHARGES
----------------------
   0 C :   -0.000196
   1 O :   -0.000018
   2 H :   -0.000100
   3 H :   -0.000003
   4 H :   -0.000536
   5 H :   -0.000004
   6 C :   -0.389095
   7 O :   -0.089423
   8 H :    0.175863
   9 H :    0.093755
  10 H :    0.111156
  11 H :    0.098601

  Mayer bond orders larger than 0.1
B(  6-C ,  7-O ) :   0.9954 B(  6-C ,  9-H ) :   0.9779 B(  6-C , 10-H ) :   0.9714
B(  6-C , 11-H ) :   0.9732 B(  7-O ,  8-H ) :   0.8917

Dispersion correction           -0.000261690
FINAL SINGLE POINT ENERGY      -115.733751380489

DIPOLE MOMENT
-------------
                                X             Y             Z
Electronic contribution:     -0.70055       1.08708      -1.29993
Nuclear contribution   :      1.32560      -1.29542       1.30788
                        -----------------------------------------
Total Dipole Moment    :      0.62505      -0.20834       0.00795
                        -----------------------------------------
Magnitude (a.u.)       :      0.65891
Magnitude (Debye)      :      1.67481

Rotational constants in cm-1:     4.203085     0.821103     0.786783
Rotational constants in MHz : 126005.325934 24616.061452 23587.172607

                             ****ORCA TERMINATED NORMALLY****
TOTAL RUN TIME: 0 days 0 hours 1 minutes 9 seconds 893 msec
