                         Program Version 4.1.2  - RELEASE  -
|  1> #Run DFT-D3 single point of the dimer
|  2> ! wB97X-D3 def2-TZVP TIGHTSCF CHELPG PMODEL PAL8
|  3>
|  4> %base "11-96_DFT_AB"
|  5>
|  6> %scf
|  7> MaxIter 1000
|  8> end
|  9>
| 10> * xyz 0 1
| 11>   C                      -3.641882            -6.013494            -3.653541
| 12>   O                      -3.109496            -5.033797            -2.834084
| 13>   H                      -2.177298            -4.956198            -2.865698
| 14>   H                      -3.149717            -6.980031            -3.450855
| 15>   H                      -4.734627            -6.165777            -3.567122
| 16>   H                      -3.537758            -5.813317            -4.687027
| 17>   C                      -8.009871            -4.711269            -2.147200
| 18>   O                      -8.298918            -5.552520            -1.027599
| 19>   H                      -8.177552            -5.122342            -0.191332
| 20>   H                      -8.178726            -5.149591            -3.108748
| 21>   H                      -8.576040            -3.788171            -2.055177
| 22>   H                      -7.060665            -4.281000            -2.058181
| 23> *
| 24>
| 25> #Run DFT-D3 single point of the molecule with dimer basis set
| 26> $new_job
| 27> %base "11-96_DFT_A"
| 28> ! wB97X-D3 def2-TZVP TIGHTSCF CHELPG PMODEL
| 29>
| 30> %scf
| 31> MaxIter 1000
| 32> end
| 33>
| 34> * xyz 0 1
| 35>   C                      -3.641882            -6.013494            -3.653541
| 36>   O                      -3.109496            -5.033797            -2.834084
| 37>   H                      -2.177298            -4.956198            -2.865698
| 38>   H                      -3.149717            -6.980031            -3.450855
| 39>   H                      -4.734627            -6.165777            -3.567122
| 40>   H                      -3.537758            -5.813317            -4.687027
| 41>   C                    : -8.009871            -4.711269            -2.147200
| 42>   O                    : -8.298918            -5.552520            -1.027599
| 43>   H                    : -8.177552            -5.122342            -0.191332
| 44>   H                    : -8.178726            -5.149591            -3.108748
| 45>   H                    : -8.576040            -3.788171            -2.055177
| 46>   H                    : -7.060665            -4.281000            -2.058181
| 47> *
| 48>
| 49> #Run DFT-D3 single point of the particle with dimer basis set
| 50> $new_job
| 51> %base "11-96_DFT_B"
| 52> ! wB97X-D3 def2-TZVP TIGHTSCF CHELPG PMODEL
| 53>
| 54> %scf
| 55> MaxIter 1000
| 56> end
| 57>
| 58> * xyz 0 1
| 59>   C                    : -3.641882            -6.013494            -3.653541
| 60>   O                    : -3.109496            -5.033797            -2.834084
| 61>   H                    : -2.177298            -4.956198            -2.865698
| 62>   H                    : -3.149717            -6.980031            -3.450855
| 63>   H                    : -4.734627            -6.165777            -3.567122
| 64>   H                    : -3.537758            -5.813317            -4.687027
| 65>   C                      -8.009871            -4.711269            -2.147200
| 66>   O                      -8.298918            -5.552520            -1.027599
| 67>   H                      -8.177552            -5.122342            -0.191332
| 68>   H                      -8.178726            -5.149591            -3.108748
| 69>   H                      -8.576040            -3.788171            -2.055177
| 70>   H                      -7.060665            -4.281000            -2.058181
| 71> *
| 72>
| 73>                          ****END OF INPUT****
 Total Charge           Charge          ....    0
 Multiplicity           Mult            ....    1
 Number of Electrons    NEL             ....   36
Dispersion correction           -0.000915849
FINAL SINGLE POINT ENERGY      -231.460152048227
Dispersion correction           -0.000242879
FINAL SINGLE POINT ENERGY      -115.731576150772

CARTESIAN COORDINATES (ANGSTROEM)
---------------------------------
  C     -3.641882   -6.013494   -3.653541
  O     -3.109496   -5.033797   -2.834084
  H     -2.177298   -4.956198   -2.865698
  H     -3.149717   -6.980031   -3.450855
  H     -4.734627   -6.165777   -3.567122
  H     -3.537758   -5.813317   -4.687027
  C     -8.009871   -4.711269   -2.147200
  O     -8.298918   -5.552520   -1.027599
  H     -8.177552   -5.122342   -0.191332
  H     -8.178726   -5.149591   -3.108748
  H     -8.576040   -3.788171   -2.055177
  H     -7.060665   -4.281000   -2.058181

 Multiplicity           Mult            ....    1
 Number of Electrons    NEL             ....   18
 Basis Dimension        Dim             ....  172

ORBITAL ENERGIES
----------------

  NO   OCC          E(Eh)            E(eV)
   0   2.0000     -19.224784      -523.1330
   1   2.0000     -10.307055      -280.4692
   2   2.0000      -1.128857       -30.7178
   3   2.0000      -0.806897       -21.9568
   4   2.0000      -0.617180       -16.7943
   5   2.0000      -0.541268       -14.7286
   6   2.0000      -0.527222       -14.3464
   7   2.0000      -0.434397       -11.8206
   8   2.0000      -0.367096        -9.9892
   9   0.0000       0.085876         2.3368
  10   0.0000       0.116748         3.1769
  11   0.0000       0.149026         4.0552
  12   0.0000       0.165000         4.4899
  13   0.0000       0.192105         5.2275

MULLIKEN ATOMIC CHARGES
-----------------------
   0 C :   -0.000477
   1 O :   -0.000015
   2 H :   -0.000005
   3 H :   -0.000006
   4 H :    0.000549
   5 H :    0.000058
   6 C :   -0.157892
   7 O :   -0.491891
   8 H :    0.314495
   9 H :    0.129228
  10 H :    0.099728
  11 H :    0.106229
Sum of atomic charges:    0.0000000

LOEWDIN ATOMIC CHARGES
----------------------
   0 C :   -0.000323
   1 O :   -0.000033
   2 H :   -0.000003
   3 H :   -0.000005
   4 H :   -0.000279
   5 H :   -0.000003
   6 C :   -0.360516
   7 O :   -0.086629
   8 H :    0.158820
   9 H :    0.106116
  10 H :    0.096147
  11 H :    0.086707

  Mayer bond orders larger than 0.1
B(  6-C ,  7-O ) :   0.9853 B(  6-C ,  9-H ) :   0.9707 B(  6-C , 10-H ) :   0.9828
B(  6-C , 11-H ) :   0.9793 B(  7-O ,  8-H ) :   0.8973

Dispersion correction           -0.000237372
FINAL SINGLE POINT ENERGY      -115.727741670374

DIPOLE MOMENT
-------------
                                X             Y             Z
Electronic contribution:     -0.36190      -1.31701       1.19708
Nuclear contribution   :      0.57758       1.98317      -1.12620
                        -----------------------------------------
Total Dipole Moment    :      0.21569       0.66616       0.07088
                        -----------------------------------------
Magnitude (a.u.)       :      0.70379
Magnitude (Debye)      :      1.78889

Rotational constants in cm-1:     4.615945     0.819321     0.778135
Rotational constants in MHz : 138382.543680 24562.616014 23327.904958

                             ****ORCA TERMINATED NORMALLY****
TOTAL RUN TIME: 0 days 0 hours 0 minutes 47 seconds 970 msec
