                         Program Version 4.1.2  - RELEASE  -
|  1> #Run DFT-D3 single point of the dimer
|  2> ! wB97X-D3 def2-TZVP TIGHTSCF CHELPG PMODEL PAL8
|  3>
|  4> %base "2-118_DFT_AB"
|  5>
|  6> %scf
|  7> MaxIter 1000
|  8> end
|  9>
| 10> * xyz 0 1
| 11>   C                      -9.194448            -7.165680            8.606012
| 12>   O                      -9.483807            -8.443194            7.922237
| 13>   H                      -8.780202            -9.018449            8.087057
| 14>   H                      -8.510834            -6.560886            7.980636
| 15>   H                      -10.076085           -6.566288            8.744051
| 16>   H                      -8.775180            -7.380842            9.649389
| 17>   C                      -7.148623            -4.404922            7.610721
| 18>   O                      -7.375907            -4.307510            6.230849
| 19>   H                      -6.488589            -4.245088            5.849165
| 20>   H                      -6.923351            -5.494273            7.993890
| 21>   H                      -6.294813            -3.768090            7.952278
| 22>   H                      -8.051423            -4.083976            8.151927
| 23> *
| 24>
| 25> #Run DFT-D3 single point of the molecule with dimer basis set
| 26> $new_job
| 27> %base "2-118_DFT_A"
| 28> ! wB97X-D3 def2-TZVP TIGHTSCF CHELPG PMODEL
| 29>
| 30> %scf
| 31> MaxIter 1000
| 32> end
| 33>
| 34> * xyz 0 1
| 35>   C                      -9.194448            -7.165680            8.606012
| 36>   O                      -9.483807            -8.443194            7.922237
| 37>   H                      -8.780202            -9.018449            8.087057
| 38>   H                      -8.510834            -6.560886            7.980636
| 39>   H                      -10.076085           -6.566288            8.744051
| 40>   H                      -8.775180            -7.380842            9.649389
| 41>   C                    : -7.148623            -4.404922            7.610721
| 42>   O                    : -7.375907            -4.307510            6.230849
| 43>   H                    : -6.488589            -4.245088            5.849165
| 44>   H                    : -6.923351            -5.494273            7.993890
| 45>   H                    : -6.294813            -3.768090            7.952278
| 46>   H                    : -8.051423            -4.083976            8.151927
| 47> *
| 48>
| 49> #Run DFT-D3 single point of the particle with dimer basis set
| 50> $new_job
| 51> %base "2-118_DFT_B"
| 52> ! wB97X-D3 def2-TZVP TIGHTSCF CHELPG PMODEL
| 53>
| 54> %scf
| 55> MaxIter 1000
| 56> end
| 57>
| 58> * xyz 0 1
| 59>   C                    : -9.194448            -7.165680            8.606012
| 60>   O                    : -9.483807            -8.443194            7.922237
| 61>   H                    : -8.780202            -9.018449            8.087057
| 62>   H                    : -8.510834            -6.560886            7.980636
| 63>   H                    : -10.076085           -6.566288            8.744051
| 64>   H                    : -8.775180            -7.380842            9.649389
| 65>   C                      -7.148623            -4.404922            7.610721
| 66>   O                      -7.375907            -4.307510            6.230849
| 67>   H                      -6.488589            -4.245088            5.849165
| 68>   H                      -6.923351            -5.494273            7.993890
| 69>   H                      -6.294813            -3.768090            7.952278
| 70>   H                      -8.051423            -4.083976            8.151927
| 71> *
| 72>
| 73>                          ****END OF INPUT****
 Total Charge           Charge          ....    0
 Multiplicity           Mult            ....    1
 Number of Electrons    NEL             ....   36
Dispersion correction           -0.001670393
FINAL SINGLE POINT ENERGY      -231.461371964990
Dispersion correction           -0.000270809
FINAL SINGLE POINT ENERGY      -115.730527256208

CARTESIAN COORDINATES (ANGSTROEM)
---------------------------------
  C     -9.194448   -7.165680    8.606012
  O     -9.483807   -8.443194    7.922237
  H     -8.780202   -9.018449    8.087057
  H     -8.510834   -6.560886    7.980636
  H    -10.076085   -6.566288    8.744051
  H     -8.775180   -7.380842    9.649389
  C     -7.148623   -4.404922    7.610721
  O     -7.375907   -4.307510    6.230849
  H     -6.488589   -4.245088    5.849165
  H     -6.923351   -5.494273    7.993890
  H     -6.294813   -3.768090    7.952278
  H     -8.051423   -4.083976    8.151927

 Multiplicity           Mult            ....    1
 Number of Electrons    NEL             ....   18
 Basis Dimension        Dim             ....  172

ORBITAL ENERGIES
----------------

  NO   OCC          E(Eh)            E(eV)
   0   2.0000     -19.236949      -523.4640
   1   2.0000     -10.324270      -280.9377
   2   2.0000      -1.144240       -31.1364
   3   2.0000      -0.785563       -21.3763
   4   2.0000      -0.613340       -16.6898
   5   2.0000      -0.530897       -14.4464
   6   2.0000      -0.529402       -14.4058
   7   2.0000      -0.438697       -11.9376
   8   2.0000      -0.372472       -10.1355
   9   0.0000       0.088864         2.4181
  10   0.0000       0.116804         3.1784
  11   0.0000       0.151633         4.1261
  12   0.0000       0.169167         4.6033
  13   0.0000       0.192941         5.2502

MULLIKEN ATOMIC CHARGES
-----------------------
   0 C :   -0.011431
   1 O :   -0.000075
   2 H :   -0.000027
   3 H :    0.018670
   4 H :    0.000293
   5 H :    0.000574
   6 C :   -0.192294
   7 O :   -0.454055
   8 H :    0.317706
   9 H :    0.085571
  10 H :    0.116033
  11 H :    0.119035
Sum of atomic charges:   -0.0000000

LOEWDIN ATOMIC CHARGES
----------------------
   0 C :   -0.009045
   1 O :   -0.000026
   2 H :   -0.000014
   3 H :   -0.014289
   4 H :   -0.000259
   5 H :   -0.000342
   6 C :   -0.406555
   7 O :   -0.065694
   8 H :    0.178153
   9 H :    0.111477
  10 H :    0.097824
  11 H :    0.108771

  Mayer bond orders larger than 0.1
B(  6-C ,  7-O ) :   1.0128 B(  6-C ,  9-H ) :   0.9719 B(  6-C , 10-H ) :   0.9745
B(  6-C , 11-H ) :   0.9741 B(  7-O ,  8-H ) :   0.8981

Dispersion correction           -0.000257914
FINAL SINGLE POINT ENERGY      -115.732569352094

DIPOLE MOMENT
-------------
                                X             Y             Z
Electronic contribution:     -0.48271       0.20438      -1.91280
Nuclear contribution   :      1.10969      -0.15864       2.16911
                        -----------------------------------------
Total Dipole Moment    :      0.62697       0.04573       0.25632
                        -----------------------------------------
Magnitude (a.u.)       :      0.67889
Magnitude (Debye)      :      1.72559

Rotational constants in cm-1:     4.079727     0.832613     0.803287
Rotational constants in MHz : 122307.130008 24961.118846 24081.924477

                             ****ORCA TERMINATED NORMALLY****
TOTAL RUN TIME: 0 days 0 hours 5 minutes 58 seconds 313 msec
