                         Program Version 4.1.2  - RELEASE  -
|  1> #Run DFT-D3 single point of the dimer
|  2> ! wB97X-D3 def2-TZVP TIGHTSCF CHELPG PMODEL PAL8
|  3>
|  4> %base "10-158_DFT_AB"
|  5>
|  6> %scf
|  7> MaxIter 1000
|  8> end
|  9>
| 10> * xyz 0 1
| 11>   C                      -2.030269            -0.860094            4.701773
| 12>   O                      -1.560259            -1.727254            3.739333
| 13>   H                      -2.090679            -1.511563            2.970343
| 14>   H                      -3.112571            -0.850576            4.889874
| 15>   H                      -1.502015            -1.055243            5.669747
| 16>   H                      -1.782010            0.256352             4.478952
| 17>   C                      -0.976261            -4.778894            3.075659
| 18>   O                      -1.981688            -4.680600            4.052134
| 19>   H                      -2.180852            -3.778540            4.143792
| 20>   H                      -0.078852            -4.236185            3.416926
| 21>   H                      -0.658904            -5.813757            2.888926
| 22>   H                      -1.308365            -4.289112            2.135208
| 23> *
| 24>
| 25> #Run DFT-D3 single point of the molecule with dimer basis set
| 26> $new_job
| 27> %base "10-158_DFT_A"
| 28> ! wB97X-D3 def2-TZVP TIGHTSCF CHELPG PMODEL
| 29>
| 30> %scf
| 31> MaxIter 1000
| 32> end
| 33>
| 34> * xyz 0 1
| 35>   C                      -2.030269            -0.860094            4.701773
| 36>   O                      -1.560259            -1.727254            3.739333
| 37>   H                      -2.090679            -1.511563            2.970343
| 38>   H                      -3.112571            -0.850576            4.889874
| 39>   H                      -1.502015            -1.055243            5.669747
| 40>   H                      -1.782010            0.256352             4.478952
| 41>   C                    : -0.976261            -4.778894            3.075659
| 42>   O                    : -1.981688            -4.680600            4.052134
| 43>   H                    : -2.180852            -3.778540            4.143792
| 44>   H                    : -0.078852            -4.236185            3.416926
| 45>   H                    : -0.658904            -5.813757            2.888926
| 46>   H                    : -1.308365            -4.289112            2.135208
| 47> *
| 48>
| 49> #Run DFT-D3 single point of the particle with dimer basis set
| 50> $new_job
| 51> %base "10-158_DFT_B"
| 52> ! wB97X-D3 def2-TZVP TIGHTSCF CHELPG PMODEL
| 53>
| 54> %scf
| 55> MaxIter 1000
| 56> end
| 57>
| 58> * xyz 0 1
| 59>   C                    : -2.030269            -0.860094            4.701773
| 60>   O                    : -1.560259            -1.727254            3.739333
| 61>   H                    : -2.090679            -1.511563            2.970343
| 62>   H                    : -3.112571            -0.850576            4.889874
| 63>   H                    : -1.502015            -1.055243            5.669747
| 64>   H                    : -1.782010            0.256352             4.478952
| 65>   C                      -0.976261            -4.778894            3.075659
| 66>   O                      -1.981688            -4.680600            4.052134
| 67>   H                      -2.180852            -3.778540            4.143792
| 68>   H                      -0.078852            -4.236185            3.416926
| 69>   H                      -0.658904            -5.813757            2.888926
| 70>   H                      -1.308365            -4.289112            2.135208
| 71> *
| 72>
| 73>                          ****END OF INPUT****
 Total Charge           Charge          ....    0
 Multiplicity           Mult            ....    1
 Number of Electrons    NEL             ....   36
Dispersion correction           -0.001967435
FINAL SINGLE POINT ENERGY      -231.473246415460
Dispersion correction           -0.000243085
FINAL SINGLE POINT ENERGY      -115.732390684793

CARTESIAN COORDINATES (ANGSTROEM)
---------------------------------
  C     -2.030269   -0.860094    4.701773
  O     -1.560259   -1.727254    3.739333
  H     -2.090679   -1.511563    2.970343
  H     -3.112571   -0.850576    4.889874
  H     -1.502015   -1.055243    5.669747
  H     -1.782010    0.256352    4.478952
  C     -0.976261   -4.778894    3.075659
  O     -1.981688   -4.680600    4.052134
  H     -2.180852   -3.778540    4.143792
  H     -0.078852   -4.236185    3.416926
  H     -0.658904   -5.813757    2.888926
  H     -1.308365   -4.289112    2.135208

 Multiplicity           Mult            ....    1
 Number of Electrons    NEL             ....   18
 Basis Dimension        Dim             ....  172

ORBITAL ENERGIES
----------------

  NO   OCC          E(Eh)            E(eV)
   0   2.0000     -19.227422      -523.2048
   1   2.0000     -10.316043      -280.7138
   2   2.0000      -1.146505       -31.1980
   3   2.0000      -0.795011       -21.6334
   4   2.0000      -0.615238       -16.7415
   5   2.0000      -0.541222       -14.7274
   6   2.0000      -0.532218       -14.4824
   7   2.0000      -0.435643       -11.8545
   8   2.0000      -0.371811       -10.1175
   9   0.0000       0.067747         1.8435
  10   0.0000       0.130894         3.5618
  11   0.0000       0.154785         4.2119
  12   0.0000       0.164320         4.4714
  13   0.0000       0.188525         5.1300

MULLIKEN ATOMIC CHARGES
-----------------------
   0 C :   -0.001410
   1 O :   -0.001981
   2 H :   -0.000296
   3 H :   -0.000041
   4 H :   -0.000017
   5 H :   -0.000028
   6 C :   -0.169899
   7 O :   -0.458823
   8 H :    0.307515
   9 H :    0.100359
  10 H :    0.124913
  11 H :    0.099708
Sum of atomic charges:   -0.0000000

LOEWDIN ATOMIC CHARGES
----------------------
   0 C :   -0.003274
   1 O :   -0.010695
   2 H :   -0.001405
   3 H :   -0.000167
   4 H :   -0.000192
   5 H :   -0.000062
   6 C :   -0.389740
   7 O :   -0.048139
   8 H :    0.151113
   9 H :    0.095715
  10 H :    0.109350
  11 H :    0.097496

  Mayer bond orders larger than 0.1
B(  6-C ,  7-O ) :   0.9898 B(  6-C ,  9-H ) :   0.9806 B(  6-C , 10-H ) :   0.9706
B(  6-C , 11-H ) :   0.9814 B(  7-O ,  8-H ) :   0.9164

Dispersion correction           -0.000224851
FINAL SINGLE POINT ENERGY      -115.734971003744

DIPOLE MOMENT
-------------
                                X             Y             Z
Electronic contribution:     -1.33970      -0.10595       1.27461
Nuclear contribution   :      1.61263       0.63455      -1.59115
                        -----------------------------------------
Total Dipole Moment    :      0.27293       0.52860      -0.31653
                        -----------------------------------------
Magnitude (a.u.)       :      0.67387
Magnitude (Debye)      :      1.71285

Rotational constants in cm-1:     4.277171     0.841868     0.810527
Rotational constants in MHz : 128226.348281 25238.577080 24299.002071

                             ****ORCA TERMINATED NORMALLY****
TOTAL RUN TIME: 0 days 0 hours 1 minutes 7 seconds 495 msec
