                         Program Version 4.1.2  - RELEASE  -
|  1> #Run DFT-D3 single point of the dimer
|  2> ! wB97X-D3 def2-TZVP TIGHTSCF CHELPG PMODEL PAL8
|  3>
|  4> %base "16-50_DFT_AB"
|  5>
|  6> %scf
|  7> MaxIter 1000
|  8> end
|  9>
| 10> * xyz 0 1
| 11>   C                      3.918612             -5.045741            2.896027
| 12>   O                      4.275113             -3.748419            2.773380
| 13>   H                      5.177996             -3.619790            2.820687
| 14>   H                      3.911424             -5.560728            1.980114
| 15>   H                      4.669848             -5.508734            3.468600
| 16>   H                      2.869578             -5.280809            3.312576
| 17>   C                      5.608818             -4.339067            6.613344
| 18>   O                      6.800231             -4.583821            5.901699
| 19>   H                      6.905804             -3.930152            5.211157
| 20>   H                      4.734001             -4.363559            5.936224
| 21>   H                      5.388047             -5.115316            7.280868
| 22>   H                      5.776462             -3.352235            7.096274
| 23> *
| 24>
| 25> #Run DFT-D3 single point of the molecule with dimer basis set
| 26> $new_job
| 27> %base "16-50_DFT_A"
| 28> ! wB97X-D3 def2-TZVP TIGHTSCF CHELPG PMODEL
| 29>
| 30> %scf
| 31> MaxIter 1000
| 32> end
| 33>
| 34> * xyz 0 1
| 35>   C                      3.918612             -5.045741            2.896027
| 36>   O                      4.275113             -3.748419            2.773380
| 37>   H                      5.177996             -3.619790            2.820687
| 38>   H                      3.911424             -5.560728            1.980114
| 39>   H                      4.669848             -5.508734            3.468600
| 40>   H                      2.869578             -5.280809            3.312576
| 41>   C                    : 5.608818             -4.339067            6.613344
| 42>   O                    : 6.800231             -4.583821            5.901699
| 43>   H                    : 6.905804             -3.930152            5.211157
| 44>   H                    : 4.734001             -4.363559            5.936224
| 45>   H                    : 5.388047             -5.115316            7.280868
| 46>   H                    : 5.776462             -3.352235            7.096274
| 47> *
| 48>
| 49> #Run DFT-D3 single point of the particle with dimer basis set
| 50> $new_job
| 51> %base "16-50_DFT_B"
| 52> ! wB97X-D3 def2-TZVP TIGHTSCF CHELPG PMODEL
| 53>
| 54> %scf
| 55> MaxIter 1000
| 56> end
| 57>
| 58> * xyz 0 1
| 59>   C                    : 3.918612             -5.045741            2.896027
| 60>   O                    : 4.275113             -3.748419            2.773380
| 61>   H                    : 5.177996             -3.619790            2.820687
| 62>   H                    : 3.911424             -5.560728            1.980114
| 63>   H                    : 4.669848             -5.508734            3.468600
| 64>   H                    : 2.869578             -5.280809            3.312576
| 65>   C                      5.608818             -4.339067            6.613344
| 66>   O                      6.800231             -4.583821            5.901699
| 67>   H                      6.905804             -3.930152            5.211157
| 68>   H                      4.734001             -4.363559            5.936224
| 69>   H                      5.388047             -5.115316            7.280868
| 70>   H                      5.776462             -3.352235            7.096274
| 71> *
| 72>
| 73>                          ****END OF INPUT****
 Total Charge           Charge          ....    0
 Multiplicity           Mult            ....    1
 Number of Electrons    NEL             ....   36
Dispersion correction           -0.001777586
FINAL SINGLE POINT ENERGY      -231.455337236620
Dispersion correction           -0.000218031
FINAL SINGLE POINT ENERGY      -115.722214492433

CARTESIAN COORDINATES (ANGSTROEM)
---------------------------------
  C      3.918612   -5.045741    2.896027
  O      4.275113   -3.748419    2.773380
  H      5.177996   -3.619790    2.820687
  H      3.911424   -5.560728    1.980114
  H      4.669848   -5.508734    3.468600
  H      2.869578   -5.280809    3.312576
  C      5.608818   -4.339067    6.613344
  O      6.800231   -4.583821    5.901699
  H      6.905804   -3.930152    5.211157
  H      4.734001   -4.363559    5.936224
  H      5.388047   -5.115316    7.280868
  H      5.776462   -3.352235    7.096274

 Multiplicity           Mult            ....    1
 Number of Electrons    NEL             ....   18
 Basis Dimension        Dim             ....  172

ORBITAL ENERGIES
----------------

  NO   OCC          E(Eh)            E(eV)
   0   2.0000     -19.225722      -523.1585
   1   2.0000     -10.311325      -280.5854
   2   2.0000      -1.136185       -30.9172
   3   2.0000      -0.797736       -21.7075
   4   2.0000      -0.605627       -16.4799
   5   2.0000      -0.555595       -15.1185
   6   2.0000      -0.529124       -14.3982
   7   2.0000      -0.426875       -11.6159
   8   2.0000      -0.370853       -10.0914
   9   0.0000       0.078763         2.1433
  10   0.0000       0.125730         3.4213
  11   0.0000       0.150957         4.1078
  12   0.0000       0.174261         4.7419
  13   0.0000       0.189613         5.1596

MULLIKEN ATOMIC CHARGES
-----------------------
   0 C :    0.002470
   1 O :    0.000016
   2 H :   -0.001293
   3 H :   -0.000003
   4 H :   -0.003397
   5 H :   -0.000342
   6 C :   -0.154951
   7 O :   -0.483812
   8 H :    0.316552
   9 H :    0.092388
  10 H :    0.125432
  11 H :    0.106940
Sum of atomic charges:    0.0000000

LOEWDIN ATOMIC CHARGES
----------------------
   0 C :   -0.003227
   1 O :   -0.000263
   2 H :   -0.000969
   3 H :   -0.000022
   4 H :   -0.002099
   5 H :   -0.000243
   6 C :   -0.380103
   7 O :   -0.076745
   8 H :    0.165458
   9 H :    0.097469
  10 H :    0.097956
  11 H :    0.102788

  Mayer bond orders larger than 0.1
B(  6-C ,  7-O ) :   0.9862 B(  6-C ,  9-H ) :   0.9758 B(  6-C , 10-H ) :   0.9709
B(  6-C , 11-H ) :   0.9892 B(  7-O ,  8-H ) :   0.8985

Dispersion correction           -0.000223075
FINAL SINGLE POINT ENERGY      -115.731999269850

DIPOLE MOMENT
-------------
                                X             Y             Z
Electronic contribution:      1.51042      -0.45802      -0.71375
Nuclear contribution   :     -1.92113       0.94450       0.56685
                        -----------------------------------------
Total Dipole Moment    :     -0.41072       0.48649      -0.14690
                        -----------------------------------------
Magnitude (a.u.)       :      0.65340
Magnitude (Debye)      :      1.66082

Rotational constants in cm-1:     4.284009     0.837506     0.818155
Rotational constants in MHz : 128431.372341 25107.784569 24527.675130

                             ****ORCA TERMINATED NORMALLY****
TOTAL RUN TIME: 0 days 0 hours 1 minutes 6 seconds 901 msec
