                         Program Version 4.1.2  - RELEASE  -
|  1> #Run DFT-D3 single point of the dimer
|  2> ! wB97X-D3 def2-TZVP TIGHTSCF CHELPG PMODEL PAL8
|  3>
|  4> %base "14-168_DFT_AB"
|  5>
|  6> %scf
|  7> MaxIter 1000
|  8> end
|  9>
| 10> * xyz 0 1
| 11>   C                      9.708126             4.409353             0.483278
| 12>   O                      9.397154             5.732201             0.160132
| 13>   H                      8.663138             5.983200             0.719727
| 14>   H                      10.028389            4.405167             1.551040
| 15>   H                      8.824600             3.766350             0.310637
| 16>   H                      10.640476            3.975550             0.074200
| 17>   C                      6.362767             6.570693             1.856183
| 18>   O                      7.477303             5.865457             2.256548
| 19>   H                      7.355264             5.746036             3.215383
| 20>   H                      6.230040             7.373288             2.453346
| 21>   H                      6.401769             6.890055             0.787321
| 22>   H                      5.589501             5.954421             1.999027
| 23> *
| 24>
| 25> #Run DFT-D3 single point of the molecule with dimer basis set
| 26> $new_job
| 27> %base "14-168_DFT_A"
| 28> ! wB97X-D3 def2-TZVP TIGHTSCF CHELPG PMODEL
| 29>
| 30> %scf
| 31> MaxIter 1000
| 32> end
| 33>
| 34> * xyz 0 1
| 35>   C                      9.708126             4.409353             0.483278
| 36>   O                      9.397154             5.732201             0.160132
| 37>   H                      8.663138             5.983200             0.719727
| 38>   H                      10.028389            4.405167             1.551040
| 39>   H                      8.824600             3.766350             0.310637
| 40>   H                      10.640476            3.975550             0.074200
| 41>   C                    : 6.362767             6.570693             1.856183
| 42>   O                    : 7.477303             5.865457             2.256548
| 43>   H                    : 7.355264             5.746036             3.215383
| 44>   H                    : 6.230040             7.373288             2.453346
| 45>   H                    : 6.401769             6.890055             0.787321
| 46>   H                    : 5.589501             5.954421             1.999027
| 47> *
| 48>
| 49> #Run DFT-D3 single point of the particle with dimer basis set
| 50> $new_job
| 51> %base "14-168_DFT_B"
| 52> ! wB97X-D3 def2-TZVP TIGHTSCF CHELPG PMODEL
| 53>
| 54> %scf
| 55> MaxIter 1000
| 56> end
| 57>
| 58> * xyz 0 1
| 59>   C                    : 9.708126             4.409353             0.483278
| 60>   O                    : 9.397154             5.732201             0.160132
| 61>   H                    : 8.663138             5.983200             0.719727
| 62>   H                    : 10.028389            4.405167             1.551040
| 63>   H                    : 8.824600             3.766350             0.310637
| 64>   H                    : 10.640476            3.975550             0.074200
| 65>   C                      6.362767             6.570693             1.856183
| 66>   O                      7.477303             5.865457             2.256548
| 67>   H                      7.355264             5.746036             3.215383
| 68>   H                      6.230040             7.373288             2.453346
| 69>   H                      6.401769             6.890055             0.787321
| 70>   H                      5.589501             5.954421             1.999027
| 71> *
| 72>
| 73>                          ****END OF INPUT****
 Total Charge           Charge          ....    0
 Multiplicity           Mult            ....    1
 Number of Electrons    NEL             ....   36
Dispersion correction           -0.001895129
FINAL SINGLE POINT ENERGY      -231.455861996602
Dispersion correction           -0.000226683
FINAL SINGLE POINT ENERGY      -115.729128314469

CARTESIAN COORDINATES (ANGSTROEM)
---------------------------------
  C      9.708126    4.409353    0.483278
  O      9.397154    5.732201    0.160132
  H      8.663138    5.983200    0.719727
  H     10.028389    4.405167    1.551040
  H      8.824600    3.766350    0.310637
  H     10.640476    3.975550    0.074200
  C      6.362767    6.570693    1.856183
  O      7.477303    5.865457    2.256548
  H      7.355264    5.746036    3.215383
  H      6.230040    7.373288    2.453346
  H      6.401769    6.890055    0.787321
  H      5.589501    5.954421    1.999027

 Multiplicity           Mult            ....    1
 Number of Electrons    NEL             ....   18
 Basis Dimension        Dim             ....  172

ORBITAL ENERGIES
----------------

  NO   OCC          E(Eh)            E(eV)
   0   2.0000     -19.226763      -523.1868
   1   2.0000     -10.290867      -280.0287
   2   2.0000      -1.146557       -31.1994
   3   2.0000      -0.801775       -21.8174
   4   2.0000      -0.619418       -16.8552
   5   2.0000      -0.562902       -15.3173
   6   2.0000      -0.531215       -14.4551
   7   2.0000      -0.434921       -11.8348
   8   2.0000      -0.369702       -10.0601
   9   0.0000       0.100742         2.7413
  10   0.0000       0.128228         3.4893
  11   0.0000       0.157299         4.2803
  12   0.0000       0.188836         5.1385
  13   0.0000       0.209925         5.7124

MULLIKEN ATOMIC CHARGES
-----------------------
   0 C :    0.008501
   1 O :    0.000955
   2 H :   -0.009567
   3 H :   -0.004391
   4 H :   -0.004142
   5 H :   -0.000337
   6 C :   -0.147637
   7 O :   -0.467941
   8 H :    0.308537
   9 H :    0.100233
  10 H :    0.110140
  11 H :    0.105649
Sum of atomic charges:   -0.0000000

LOEWDIN ATOMIC CHARGES
----------------------
   0 C :   -0.011082
   1 O :   -0.004700
   2 H :   -0.032013
   3 H :   -0.002249
   4 H :   -0.001815
   5 H :   -0.000112
   6 C :   -0.383784
   7 O :   -0.018901
   8 H :    0.181936
   9 H :    0.077831
  10 H :    0.118110
  11 H :    0.076777

  Mayer bond orders larger than 0.1
B(  6-C ,  7-O ) :   0.9732 B(  6-C ,  9-H ) :   0.9836 B(  6-C , 10-H ) :   0.9752
B(  6-C , 11-H ) :   0.9901 B(  7-O ,  8-H ) :   0.8972

Dispersion correction           -0.000179061
FINAL SINGLE POINT ENERGY      -115.720051128750

DIPOLE MOMENT
-------------
                                X             Y             Z
Electronic contribution:      1.43551      -0.84613       0.36395
Nuclear contribution   :     -1.97727       1.05479       0.09730
                        -----------------------------------------
Total Dipole Moment    :     -0.54176       0.20866       0.46125
                        -----------------------------------------
Magnitude (a.u.)       :      0.74148
Magnitude (Debye)      :      1.88468

Rotational constants in cm-1:     4.555213     0.894300     0.846899
Rotational constants in MHz : 136561.863774 26810.439858 25389.383604

                             ****ORCA TERMINATED NORMALLY****
TOTAL RUN TIME: 0 days 0 hours 1 minutes 11 seconds 895 msec
