                         Program Version 4.1.2  - RELEASE  -
|  1> #Run DFT geometry optimization
|  2> ! wB97X-D3 def2-TZVP TIGHTSCF Grid5 FinalGrid6 Opt CHELPG PAL4
|  3>
|  4> %base "7_geo_opt"
|  5> %geom MaxIter 500
|  6> end
|  7>
|  8> %geom
|  9>   Constraints
| 10>     { A 5 0 1 C }
| 11>   end
| 12> end
| 13>
| 14>
| 15> * xyz 0 1
| 16>   C                    3.011308             -1.180897            0.598492
| 17>   O                    4.394379             -1.125836            0.875347
| 18>   H                    4.772196             -0.379022            0.412493
| 19>   H                    2.806434             -1.318965            -0.469350
| 20>   H                    2.611632             -2.040265            1.135898
| 21>   H                    2.486408             -0.283776            0.946310
| 22> *
| 23>
| 24>                          ****END OF INPUT****
 Total Charge           Charge          ....    0
 Multiplicity           Mult            ....    1
 Number of Electrons    NEL             ....   18
Dispersion correction           -0.000239000
FINAL SINGLE POINT ENERGY      -115.738048610487
Dispersion correction            ... done
Dispersion correction           -0.000238979
FINAL SINGLE POINT ENERGY      -115.738049853985
Dispersion correction            ... done
                    ***********************HURRAY********************

CARTESIAN COORDINATES (ANGSTROEM)
---------------------------------
  C      3.011287   -1.181062    0.598543
  O      4.394387   -1.126429    0.875522
  H      4.771990   -0.378393    0.412188
  H      2.806708   -1.318892   -0.469349
  H      2.611347   -2.040223    1.135993
  H      2.486638   -0.283761    0.946294

 Multiplicity           Mult            ....    1
 Number of Electrons    NEL             ....   18
 Basis Dimension        Dim             ....   86

ORBITAL ENERGIES
----------------

  NO   OCC          E(Eh)            E(eV)
   0   2.0000     -19.227998      -523.2204
   1   2.0000     -10.315111      -280.6884
   2   2.0000      -1.136748       -30.9325
   3   2.0000      -0.795322       -21.6418
   4   2.0000      -0.611499       -16.6397
   5   2.0000      -0.541858       -14.7447
   6   2.0000      -0.526388       -14.3238
   7   2.0000      -0.433728       -11.8023
   8   2.0000      -0.373550       -10.1648
   9   0.0000       0.116627         3.1736
  10   0.0000       0.156732         4.2649
  11   0.0000       0.202618         5.5135
  12   0.0000       0.205069         5.5802
  13   0.0000       0.226279         6.1574

MULLIKEN ATOMIC CHARGES
-----------------------
   0 C :   -0.150748
   1 O :   -0.477790
   2 H :    0.313016
   3 H :    0.098649
   4 H :    0.118244
   5 H :    0.098629
Sum of atomic charges:   -0.0000000

LOEWDIN ATOMIC CHARGES
----------------------
   0 C :   -0.385003
   1 O :   -0.076249
   2 H :    0.165759
   3 H :    0.093387
   4 H :    0.108663
   5 H :    0.093443

  Mayer bond orders larger than 0.1
B(  0-C ,  1-O ) :   0.9985 B(  0-C ,  3-H ) :   0.9754 B(  0-C ,  4-H ) :   0.9749
B(  0-C ,  5-H ) :   0.9758 B(  1-O ,  2-H ) :   0.9002

Dispersion correction           -0.000238924
FINAL SINGLE POINT ENERGY      -115.738049920514

DIPOLE MOMENT
-------------
                                X             Y             Z
Electronic contribution:      1.75390      -0.02800       0.42025
Nuclear contribution   :     -2.06374       0.47423      -0.81944
                        -----------------------------------------
Total Dipole Moment    :     -0.30983       0.44623      -0.39918
                        -----------------------------------------
Magnitude (a.u.)       :      0.67414
Magnitude (Debye)      :      1.71353

Rotational constants in cm-1:     4.291336     0.833895     0.805028
Rotational constants in MHz : 128651.009016 24999.532367 24134.119716

                             ****ORCA TERMINATED NORMALLY****
TOTAL RUN TIME: 0 days 0 hours 0 minutes 41 seconds 516 msec
