                         Program Version 4.1.2  - RELEASE  -
|  1> #Run DFT-D3 single point of the dimer
|  2> ! wB97X-D3 def2-TZVP TIGHTSCF CHELPG PMODEL PAL8
|  3>
|  4> %base "13-65_DFT_AB"
|  5>
|  6> %scf
|  7> MaxIter 1000
|  8> end
|  9>
| 10> * xyz 0 1
| 11>   C                      6.579677             -4.656054            2.098122
| 12>   O                      6.418017             -5.253259            3.379541
| 13>   H                      5.507121             -5.599913            3.333520
| 14>   H                      5.924402             -3.782596            1.864666
| 15>   H                      7.523478             -4.087973            1.999012
| 16>   H                      6.439044             -5.427651            1.315982
| 17>   C                      3.340212             -5.103759            4.722729
| 18>   O                      4.198028             -6.160828            5.112848
| 19>   H                      3.740715             -6.406466            5.979021
| 20>   H                      3.726197             -4.540154            3.788894
| 21>   H                      2.411893             -5.543951            4.462794
| 22>   H                      3.177969             -4.407597            5.559392
| 23> *
| 24>
| 25> #Run DFT-D3 single point of the molecule with dimer basis set
| 26> $new_job
| 27> %base "13-65_DFT_A"
| 28> ! wB97X-D3 def2-TZVP TIGHTSCF CHELPG PMODEL
| 29>
| 30> %scf
| 31> MaxIter 1000
| 32> end
| 33>
| 34> * xyz 0 1
| 35>   C                      6.579677             -4.656054            2.098122
| 36>   O                      6.418017             -5.253259            3.379541
| 37>   H                      5.507121             -5.599913            3.333520
| 38>   H                      5.924402             -3.782596            1.864666
| 39>   H                      7.523478             -4.087973            1.999012
| 40>   H                      6.439044             -5.427651            1.315982
| 41>   C                    : 3.340212             -5.103759            4.722729
| 42>   O                    : 4.198028             -6.160828            5.112848
| 43>   H                    : 3.740715             -6.406466            5.979021
| 44>   H                    : 3.726197             -4.540154            3.788894
| 45>   H                    : 2.411893             -5.543951            4.462794
| 46>   H                    : 3.177969             -4.407597            5.559392
| 47> *
| 48>
| 49> #Run DFT-D3 single point of the particle with dimer basis set
| 50> $new_job
| 51> %base "13-65_DFT_B"
| 52> ! wB97X-D3 def2-TZVP TIGHTSCF CHELPG PMODEL
| 53>
| 54> %scf
| 55> MaxIter 1000
| 56> end
| 57>
| 58> * xyz 0 1
| 59>   C                    : 6.579677             -4.656054            2.098122
| 60>   O                    : 6.418017             -5.253259            3.379541
| 61>   H                    : 5.507121             -5.599913            3.333520
| 62>   H                    : 5.924402             -3.782596            1.864666
| 63>   H                    : 7.523478             -4.087973            1.999012
| 64>   H                    : 6.439044             -5.427651            1.315982
| 65>   C                      3.340212             -5.103759            4.722729
| 66>   O                      4.198028             -6.160828            5.112848
| 67>   H                      3.740715             -6.406466            5.979021
| 68>   H                      3.726197             -4.540154            3.788894
| 69>   H                      2.411893             -5.543951            4.462794
| 70>   H                      3.177969             -4.407597            5.559392
| 71> *
| 72>
| 73>                          ****END OF INPUT****
 Total Charge           Charge          ....    0
 Multiplicity           Mult            ....    1
 Number of Electrons    NEL             ....   36
Dispersion correction           -0.001722391
FINAL SINGLE POINT ENERGY      -231.458471698766
Dispersion correction           -0.000250269
FINAL SINGLE POINT ENERGY      -115.730380789436

CARTESIAN COORDINATES (ANGSTROEM)
---------------------------------
  C      6.579677   -4.656054    2.098122
  O      6.418017   -5.253259    3.379541
  H      5.507121   -5.599913    3.333520
  H      5.924402   -3.782596    1.864666
  H      7.523478   -4.087973    1.999012
  H      6.439044   -5.427651    1.315982
  C      3.340212   -5.103759    4.722729
  O      4.198028   -6.160828    5.112848
  H      3.740715   -6.406466    5.979021
  H      3.726197   -4.540154    3.788894
  H      2.411893   -5.543951    4.462794
  H      3.177969   -4.407597    5.559392

 Multiplicity           Mult            ....    1
 Number of Electrons    NEL             ....   18
 Basis Dimension        Dim             ....  172

ORBITAL ENERGIES
----------------

  NO   OCC          E(Eh)            E(eV)
   0   2.0000     -19.236099      -523.4409
   1   2.0000     -10.316861      -280.7361
   2   2.0000      -1.133718       -30.8500
   3   2.0000      -0.784017       -21.3342
   4   2.0000      -0.603870       -16.4321
   5   2.0000      -0.547461       -14.8972
   6   2.0000      -0.520338       -14.1591
   7   2.0000      -0.438937       -11.9441
   8   2.0000      -0.371741       -10.1156
   9   0.0000       0.091918         2.5012
  10   0.0000       0.111899         3.0449
  11   0.0000       0.155689         4.2365
  12   0.0000       0.186682         5.0799
  13   0.0000       0.196743         5.3537

MULLIKEN ATOMIC CHARGES
-----------------------
   0 C :   -0.000323
   1 O :    0.000162
   2 H :   -0.002862
   3 H :   -0.000280
   4 H :   -0.000046
   5 H :   -0.000094
   6 C :   -0.186630
   7 O :   -0.454927
   8 H :    0.312319
   9 H :    0.116905
  10 H :    0.108785
  11 H :    0.106991
Sum of atomic charges:    0.0000000

LOEWDIN ATOMIC CHARGES
----------------------
   0 C :   -0.001810
   1 O :   -0.004934
   2 H :   -0.015690
   3 H :   -0.000573
   4 H :   -0.000010
   5 H :   -0.000017
   6 C :   -0.394671
   7 O :   -0.089206
   8 H :    0.202179
   9 H :    0.122817
  10 H :    0.086702
  11 H :    0.095214

  Mayer bond orders larger than 0.1
B(  6-C ,  7-O ) :   0.9829 B(  6-C ,  9-H ) :   0.9730 B(  6-C , 10-H ) :   0.9800
B(  6-C , 11-H ) :   0.9768 B(  7-O ,  8-H ) :   0.8957

Dispersion correction           -0.000211904
FINAL SINGLE POINT ENERGY      -115.727319810228

DIPOLE MOMENT
-------------
                                X             Y             Z
Electronic contribution:      1.23499      -1.33085       0.35699
Nuclear contribution   :     -1.85024       1.57688       0.00892
                        -----------------------------------------
Total Dipole Moment    :     -0.61525       0.24603       0.36591
                        -----------------------------------------
Magnitude (a.u.)       :      0.75693
Magnitude (Debye)      :      1.92397

Rotational constants in cm-1:     4.037408     0.845458     0.800302
Rotational constants in MHz : 121038.434571 25346.188879 23992.463966

                             ****ORCA TERMINATED NORMALLY****
TOTAL RUN TIME: 0 days 0 hours 1 minutes 12 seconds 162 msec
