                         Program Version 4.1.2  - RELEASE  -
|  1> #Run DFT-D3 single point of the dimer
|  2> ! wB97X-D3 def2-TZVP TIGHTSCF CHELPG PMODEL PAL8
|  3>
|  4> %base "15-187_DFT_AB"
|  5>
|  6> %scf
|  7> MaxIter 1000
|  8> end
|  9>
| 10> * xyz 0 1
| 11>   C                      4.586938             5.992063             7.361897
| 12>   O                      3.991304             7.242448             7.064388
| 13>   H                      3.451555             7.473665             7.824999
| 14>   H                      4.995584             5.497128             6.447825
| 15>   H                      5.383443             6.062640             8.101021
| 16>   H                      3.956783             5.324596             7.863803
| 17>   C                      2.602925             9.182474             4.994307
| 18>   O                      2.671112             7.829710             4.564984
| 19>   H                      3.211640             7.419230             5.241456
| 20>   H                      1.881376             9.347039             5.826246
| 21>   H                      3.617656             9.540769             5.392612
| 22>   H                      2.227002             9.782943             4.191151
| 23> *
| 24>
| 25> #Run DFT-D3 single point of the molecule with dimer basis set
| 26> $new_job
| 27> %base "15-187_DFT_A"
| 28> ! wB97X-D3 def2-TZVP TIGHTSCF CHELPG PMODEL
| 29>
| 30> %scf
| 31> MaxIter 1000
| 32> end
| 33>
| 34> * xyz 0 1
| 35>   C                      4.586938             5.992063             7.361897
| 36>   O                      3.991304             7.242448             7.064388
| 37>   H                      3.451555             7.473665             7.824999
| 38>   H                      4.995584             5.497128             6.447825
| 39>   H                      5.383443             6.062640             8.101021
| 40>   H                      3.956783             5.324596             7.863803
| 41>   C                    : 2.602925             9.182474             4.994307
| 42>   O                    : 2.671112             7.829710             4.564984
| 43>   H                    : 3.211640             7.419230             5.241456
| 44>   H                    : 1.881376             9.347039             5.826246
| 45>   H                    : 3.617656             9.540769             5.392612
| 46>   H                    : 2.227002             9.782943             4.191151
| 47> *
| 48>
| 49> #Run DFT-D3 single point of the particle with dimer basis set
| 50> $new_job
| 51> %base "15-187_DFT_B"
| 52> ! wB97X-D3 def2-TZVP TIGHTSCF CHELPG PMODEL
| 53>
| 54> %scf
| 55> MaxIter 1000
| 56> end
| 57>
| 58> * xyz 0 1
| 59>   C                    : 4.586938             5.992063             7.361897
| 60>   O                    : 3.991304             7.242448             7.064388
| 61>   H                    : 3.451555             7.473665             7.824999
| 62>   H                    : 4.995584             5.497128             6.447825
| 63>   H                    : 5.383443             6.062640             8.101021
| 64>   H                    : 3.956783             5.324596             7.863803
| 65>   C                      2.602925             9.182474             4.994307
| 66>   O                      2.671112             7.829710             4.564984
| 67>   H                      3.211640             7.419230             5.241456
| 68>   H                      1.881376             9.347039             5.826246
| 69>   H                      3.617656             9.540769             5.392612
| 70>   H                      2.227002             9.782943             4.191151
| 71> *
| 72>
| 73>                          ****END OF INPUT****
 Total Charge           Charge          ....    0
 Multiplicity           Mult            ....    1
 Number of Electrons    NEL             ....   36
Dispersion correction           -0.001921579
FINAL SINGLE POINT ENERGY      -231.474232802041
Dispersion correction           -0.000239673
FINAL SINGLE POINT ENERGY      -115.732447135473

CARTESIAN COORDINATES (ANGSTROEM)
---------------------------------
  C      4.586938    5.992063    7.361897
  O      3.991304    7.242448    7.064388
  H      3.451555    7.473665    7.824999
  H      4.995584    5.497128    6.447825
  H      5.383443    6.062640    8.101021
  H      3.956783    5.324596    7.863803
  C      2.602925    9.182474    4.994307
  O      2.671112    7.829710    4.564984
  H      3.211640    7.419230    5.241456
  H      1.881376    9.347039    5.826246
  H      3.617656    9.540769    5.392612
  H      2.227002    9.782943    4.191151

 Multiplicity           Mult            ....    1
 Number of Electrons    NEL             ....   18
 Basis Dimension        Dim             ....  172

ORBITAL ENERGIES
----------------

  NO   OCC          E(Eh)            E(eV)
   0   2.0000     -19.234028      -523.3845
   1   2.0000     -10.319860      -280.8177
   2   2.0000      -1.139507       -31.0076
   3   2.0000      -0.791307       -21.5326
   4   2.0000      -0.609874       -16.5955
   5   2.0000      -0.535110       -14.5611
   6   2.0000      -0.527193       -14.3456
   7   2.0000      -0.444215       -12.0877
   8   2.0000      -0.372759       -10.1433
   9   0.0000       0.067650         1.8409
  10   0.0000       0.127945         3.4816
  11   0.0000       0.149261         4.0616
  12   0.0000       0.169989         4.6256
  13   0.0000       0.188099         5.1184

MULLIKEN ATOMIC CHARGES
-----------------------
   0 C :   -0.001835
   1 O :   -0.004144
   2 H :    0.000100
   3 H :   -0.000242
   4 H :    0.000021
   5 H :    0.000154
   6 C :   -0.178146
   7 O :   -0.460744
   8 H :    0.314711
   9 H :    0.101191
  10 H :    0.098997
  11 H :    0.129936
Sum of atomic charges:    0.0000000

LOEWDIN ATOMIC CHARGES
----------------------
   0 C :   -0.003741
   1 O :   -0.017731
   2 H :   -0.001350
   3 H :   -0.000457
   4 H :   -0.000074
   5 H :   -0.000070
   6 C :   -0.387147
   7 O :   -0.068649
   8 H :    0.175836
   9 H :    0.096744
  10 H :    0.104283
  11 H :    0.102355

  Mayer bond orders larger than 0.1
B(  6-C ,  7-O ) :   0.9946 B(  6-C ,  9-H ) :   0.9707 B(  6-C , 10-H ) :   0.9797
B(  6-C , 11-H ) :   0.9750 B(  7-O ,  8-H ) :   0.9108

Dispersion correction           -0.000241334
FINAL SINGLE POINT ENERGY      -115.733623732384

DIPOLE MOMENT
-------------
                                X             Y             Z
Electronic contribution:     -0.01351      -1.73466      -0.78924
Nuclear contribution   :      0.30386       2.00025       1.35392
                        -----------------------------------------
Total Dipole Moment    :      0.29035       0.26559       0.56468
                        -----------------------------------------
Magnitude (a.u.)       :      0.68826
Magnitude (Debye)      :      1.74941

Rotational constants in cm-1:     4.154297     0.830129     0.792190
Rotational constants in MHz : 124542.694313 24886.633895 23749.253171

                             ****ORCA TERMINATED NORMALLY****
TOTAL RUN TIME: 0 days 0 hours 1 minutes 6 seconds 716 msec
