                         Program Version 4.1.2  - RELEASE  -
|  1> #Run DFT-D3 single point of the dimer
|  2> ! wB97X-D3 def2-TZVP TIGHTSCF CHELPG PMODEL PAL8
|  3>
|  4> %base "8-83_DFT_AB"
|  5>
|  6> %scf
|  7> MaxIter 1000
|  8> end
|  9>
| 10> * xyz 0 1
| 11>   C                      6.555521             2.875121             5.302771
| 12>   O                      5.960526             2.912413             6.541502
| 13>   H                      5.034107             2.707951             6.433674
| 14>   H                      6.880396             3.815636             4.981021
| 15>   H                      7.546284             2.419773             5.320943
| 16>   H                      5.929050             2.395693             4.578541
| 17>   C                      5.754893             6.097062             8.882843
| 18>   O                      5.269778             6.465289             10.118696
| 19>   H                      5.525233             7.396811             10.175203
| 20>   H                      5.549808             5.035463             8.641466
| 21>   H                      5.309479             6.610149             8.022095
| 22>   H                      6.883333             6.227854             8.796637
| 23> *
| 24>
| 25> #Run DFT-D3 single point of the molecule with dimer basis set
| 26> $new_job
| 27> %base "8-83_DFT_A"
| 28> ! wB97X-D3 def2-TZVP TIGHTSCF CHELPG PMODEL
| 29>
| 30> %scf
| 31> MaxIter 1000
| 32> end
| 33>
| 34> * xyz 0 1
| 35>   C                      6.555521             2.875121             5.302771
| 36>   O                      5.960526             2.912413             6.541502
| 37>   H                      5.034107             2.707951             6.433674
| 38>   H                      6.880396             3.815636             4.981021
| 39>   H                      7.546284             2.419773             5.320943
| 40>   H                      5.929050             2.395693             4.578541
| 41>   C                    : 5.754893             6.097062             8.882843
| 42>   O                    : 5.269778             6.465289             10.118696
| 43>   H                    : 5.525233             7.396811             10.175203
| 44>   H                    : 5.549808             5.035463             8.641466
| 45>   H                    : 5.309479             6.610149             8.022095
| 46>   H                    : 6.883333             6.227854             8.796637
| 47> *
| 48>
| 49> #Run DFT-D3 single point of the particle with dimer basis set
| 50> $new_job
| 51> %base "8-83_DFT_B"
| 52> ! wB97X-D3 def2-TZVP TIGHTSCF CHELPG PMODEL
| 53>
| 54> %scf
| 55> MaxIter 1000
| 56> end
| 57>
| 58> * xyz 0 1
| 59>   C                    : 6.555521             2.875121             5.302771
| 60>   O                    : 5.960526             2.912413             6.541502
| 61>   H                    : 5.034107             2.707951             6.433674
| 62>   H                    : 6.880396             3.815636             4.981021
| 63>   H                    : 7.546284             2.419773             5.320943
| 64>   H                    : 5.929050             2.395693             4.578541
| 65>   C                      5.754893             6.097062             8.882843
| 66>   O                      5.269778             6.465289             10.118696
| 67>   H                      5.525233             7.396811             10.175203
| 68>   H                      5.549808             5.035463             8.641466
| 69>   H                      5.309479             6.610149             8.022095
| 70>   H                      6.883333             6.227854             8.796637
| 71> *
| 72>
| 73>                          ****END OF INPUT****
 Total Charge           Charge          ....    0
 Multiplicity           Mult            ....    1
 Number of Electrons    NEL             ....   36
Dispersion correction           -0.001086435
FINAL SINGLE POINT ENERGY      -231.462953504164
Dispersion correction           -0.000227656
FINAL SINGLE POINT ENERGY      -115.728777269255

CARTESIAN COORDINATES (ANGSTROEM)
---------------------------------
  C      6.555521    2.875121    5.302771
  O      5.960526    2.912413    6.541502
  H      5.034107    2.707951    6.433674
  H      6.880396    3.815636    4.981021
  H      7.546284    2.419773    5.320943
  H      5.929050    2.395693    4.578541
  C      5.754893    6.097062    8.882843
  O      5.269778    6.465289   10.118696
  H      5.525233    7.396811   10.175203
  H      5.549808    5.035463    8.641466
  H      5.309479    6.610149    8.022095
  H      6.883333    6.227854    8.796637

 Multiplicity           Mult            ....    1
 Number of Electrons    NEL             ....   18
 Basis Dimension        Dim             ....  172

ORBITAL ENERGIES
----------------

  NO   OCC          E(Eh)            E(eV)
   0   2.0000     -19.237984      -523.4922
   1   2.0000     -10.316103      -280.7154
   2   2.0000      -1.153359       -31.3845
   3   2.0000      -0.788577       -21.4583
   4   2.0000      -0.617410       -16.8006
   5   2.0000      -0.543062       -14.7775
   6   2.0000      -0.531685       -14.4679
   7   2.0000      -0.433416       -11.7939
   8   2.0000      -0.374285       -10.1848
   9   0.0000       0.083648         2.2762
  10   0.0000       0.114269         3.1094
  11   0.0000       0.143764         3.9120
  12   0.0000       0.165344         4.4992
  13   0.0000       0.195416         5.3175

MULLIKEN ATOMIC CHARGES
-----------------------
   0 C :   -0.000036
   1 O :   -0.000001
   2 H :   -0.000179
   3 H :    0.000028
   4 H :    0.000002
   5 H :    0.000004
   6 C :   -0.174187
   7 O :   -0.450141
   8 H :    0.319666
   9 H :    0.115546
  10 H :    0.095930
  11 H :    0.093368
Sum of atomic charges:   -0.0000000

LOEWDIN ATOMIC CHARGES
----------------------
   0 C :   -0.000175
   1 O :   -0.001192
   2 H :   -0.000401
   3 H :   -0.000015
   4 H :   -0.000003
   5 H :   -0.000003
   6 C :   -0.434063
   7 O :   -0.047018
   8 H :    0.182649
   9 H :    0.109841
  10 H :    0.091503
  11 H :    0.098878

  Mayer bond orders larger than 0.1
B(  6-C ,  7-O ) :   1.0172 B(  6-C ,  9-H ) :   0.9741 B(  6-C , 10-H ) :   0.9704
B(  6-C , 11-H ) :   0.9773 B(  7-O ,  8-H ) :   0.8967

Dispersion correction           -0.000233856
FINAL SINGLE POINT ENERGY      -115.732956298383

DIPOLE MOMENT
-------------
                                X             Y             Z
Electronic contribution:     -0.80275       0.40118       1.81361
Nuclear contribution   :      1.10891       0.03571      -2.22129
                        -----------------------------------------
Total Dipole Moment    :      0.30616       0.43689      -0.40769
                        -----------------------------------------
Magnitude (a.u.)       :      0.67143
Magnitude (Debye)      :      1.70663

Rotational constants in cm-1:     4.244060     0.856652     0.825078
Rotational constants in MHz : 127233.706491 25681.768486 24735.212871

                             ****ORCA TERMINATED NORMALLY****
TOTAL RUN TIME: 0 days 0 hours 0 minutes 43 seconds 927 msec
