                         Program Version 4.1.2  - RELEASE  -
|  1> #Run DFT-D3 single point of the dimer
|  2> ! wB97X-D3 def2-TZVP TIGHTSCF CHELPG PMODEL PAL8
|  3>
|  4> %base "22-127_DFT_AB"
|  5>
|  6> %scf
|  7> MaxIter 1000
|  8> end
|  9>
| 10> * xyz 0 1
| 11>   C                      -0.749633            2.416253             -3.313901
| 12>   O                      -0.861180            1.452458             -2.250456
| 13>   H                      0.018248             1.215378             -2.084135
| 14>   H                      -1.723585            2.657808             -3.810069
| 15>   H                      -0.325219            3.272619             -2.879507
| 16>   H                      -0.054227            2.091398             -4.053934
| 17>   C                      1.758582             -1.437780            -2.185095
| 18>   O                      1.633150             -0.040761            -2.412999
| 19>   H                      1.922239             0.409102             -1.638238
| 20>   H                      2.724347             -1.540067            -1.692715
| 21>   H                      0.986000             -1.690466            -1.515458
| 22>   H                      1.769196             -1.988602            -3.101469
| 23> *
| 24>
| 25> #Run DFT-D3 single point of the molecule with dimer basis set
| 26> $new_job
| 27> %base "22-127_DFT_A"
| 28> ! wB97X-D3 def2-TZVP TIGHTSCF CHELPG PMODEL
| 29>
| 30> %scf
| 31> MaxIter 1000
| 32> end
| 33>
| 34> * xyz 0 1
| 35>   C                      -0.749633            2.416253             -3.313901
| 36>   O                      -0.861180            1.452458             -2.250456
| 37>   H                      0.018248             1.215378             -2.084135
| 38>   H                      -1.723585            2.657808             -3.810069
| 39>   H                      -0.325219            3.272619             -2.879507
| 40>   H                      -0.054227            2.091398             -4.053934
| 41>   C                    : 1.758582             -1.437780            -2.185095
| 42>   O                    : 1.633150             -0.040761            -2.412999
| 43>   H                    : 1.922239             0.409102             -1.638238
| 44>   H                    : 2.724347             -1.540067            -1.692715
| 45>   H                    : 0.986000             -1.690466            -1.515458
| 46>   H                    : 1.769196             -1.988602            -3.101469
| 47> *
| 48>
| 49> #Run DFT-D3 single point of the particle with dimer basis set
| 50> $new_job
| 51> %base "22-127_DFT_B"
| 52> ! wB97X-D3 def2-TZVP TIGHTSCF CHELPG PMODEL
| 53>
| 54> %scf
| 55> MaxIter 1000
| 56> end
| 57>
| 58> * xyz 0 1
| 59>   C                    : -0.749633            2.416253             -3.313901
| 60>   O                    : -0.861180            1.452458             -2.250456
| 61>   H                    : 0.018248             1.215378             -2.084135
| 62>   H                    : -1.723585            2.657808             -3.810069
| 63>   H                    : -0.325219            3.272619             -2.879507
| 64>   H                    : -0.054227            2.091398             -4.053934
| 65>   C                      1.758582             -1.437780            -2.185095
| 66>   O                      1.633150             -0.040761            -2.412999
| 67>   H                      1.922239             0.409102             -1.638238
| 68>   H                      2.724347             -1.540067            -1.692715
| 69>   H                      0.986000             -1.690466            -1.515458
| 70>   H                      1.769196             -1.988602            -3.101469
| 71> *
| 72>
| 73>                          ****END OF INPUT****
 Total Charge           Charge          ....    0
 Multiplicity           Mult            ....    1
 Number of Electrons    NEL             ....   36
Dispersion correction           -0.001622289
FINAL SINGLE POINT ENERGY      -231.465959781140
Dispersion correction           -0.000216039
FINAL SINGLE POINT ENERGY      -115.730590269355

CARTESIAN COORDINATES (ANGSTROEM)
---------------------------------
  C     -0.749633    2.416253   -3.313901
  O     -0.861180    1.452458   -2.250456
  H      0.018248    1.215378   -2.084135
  H     -1.723585    2.657808   -3.810069
  H     -0.325219    3.272619   -2.879507
  H     -0.054227    2.091398   -4.053934
  C      1.758582   -1.437780   -2.185095
  O      1.633150   -0.040761   -2.412999
  H      1.922239    0.409102   -1.638238
  H      2.724347   -1.540067   -1.692715
  H      0.986000   -1.690466   -1.515458
  H      1.769196   -1.988602   -3.101469

 Multiplicity           Mult            ....    1
 Number of Electrons    NEL             ....   18
 Basis Dimension        Dim             ....  172

ORBITAL ENERGIES
----------------

  NO   OCC          E(Eh)            E(eV)
   0   2.0000     -19.222149      -523.0613
   1   2.0000     -10.306586      -280.4565
   2   2.0000      -1.136197       -30.9175
   3   2.0000      -0.800324       -21.7779
   4   2.0000      -0.608032       -16.5454
   5   2.0000      -0.554812       -15.0972
   6   2.0000      -0.534079       -14.5330
   7   2.0000      -0.430774       -11.7220
   8   2.0000      -0.370861       -10.0916
   9   0.0000       0.098319         2.6754
  10   0.0000       0.125071         3.4034
  11   0.0000       0.162819         4.4305
  12   0.0000       0.186102         5.0641
  13   0.0000       0.201116         5.4726

MULLIKEN ATOMIC CHARGES
-----------------------
   0 C :    0.009126
   1 O :    0.006978
   2 H :   -0.033285
   3 H :    0.000058
   4 H :   -0.000998
   5 H :   -0.004609
   6 C :   -0.162423
   7 O :   -0.463045
   8 H :    0.311837
   9 H :    0.100292
  10 H :    0.112051
  11 H :    0.124018
Sum of atomic charges:   -0.0000000

LOEWDIN ATOMIC CHARGES
----------------------
   0 C :   -0.004047
   1 O :   -0.006355
   2 H :   -0.033433
   3 H :   -0.000033
   4 H :   -0.000097
   5 H :   -0.002070
   6 C :   -0.358903
   7 O :   -0.045771
   8 H :    0.157803
   9 H :    0.098806
  10 H :    0.090051
  11 H :    0.104049

  Mayer bond orders larger than 0.1
B(  6-C ,  7-O ) :   0.9840 B(  6-C ,  9-H ) :   0.9900 B(  6-C , 10-H ) :   0.9789
B(  6-C , 11-H ) :   0.9707 B(  7-O ,  8-H ) :   0.9016

Dispersion correction           -0.000199885
FINAL SINGLE POINT ENERGY      -115.731693835558

DIPOLE MOMENT
-------------
                                X             Y             Z
Electronic contribution:     -0.27391       1.52446      -0.48897
Nuclear contribution   :      0.53529      -1.83599       1.07493
                        -----------------------------------------
Total Dipole Moment    :      0.26138      -0.31153       0.58597
                        -----------------------------------------
Magnitude (a.u.)       :      0.71325
Magnitude (Debye)      :      1.81293

Rotational constants in cm-1:     4.345106     0.844837     0.814861
Rotational constants in MHz : 130263.014268 25327.576050 24428.921486

                             ****ORCA TERMINATED NORMALLY****
TOTAL RUN TIME: 0 days 0 hours 1 minutes 4 seconds 423 msec
