                         Program Version 4.1.2  - RELEASE  -
|  1> #Run DFT-D3 single point of the dimer
|  2> ! wB97X-D3 def2-TZVP TIGHTSCF CHELPG PMODEL PAL8
|  3>
|  4> %base "11-208_DFT_AB"
|  5>
|  6> %scf
|  7> MaxIter 1000
|  8> end
|  9>
| 10> * xyz 0 1
| 11>   C                      -3.305806            2.350428             7.299162
| 12>   O                      -3.492513            3.717809             7.040741
| 13>   H                      -2.856496            4.083690             6.472353
| 14>   H                      -3.657650            1.660644             6.502851
| 15>   H                      -2.260319            2.065325             7.468942
| 16>   H                      -3.889548            1.933458             8.115113
| 17>   C                      -5.918653            5.943443             7.309393
| 18>   O                      -5.397078            5.313272             8.504120
| 19>   H                      -4.765617            4.649269             8.200209
| 20>   H                      -6.454968            6.862204             7.586693
| 21>   H                      -5.096273            6.137884             6.604447
| 22>   H                      -6.605557            5.235356             6.785779
| 23> *
| 24>
| 25> #Run DFT-D3 single point of the molecule with dimer basis set
| 26> $new_job
| 27> %base "11-208_DFT_A"
| 28> ! wB97X-D3 def2-TZVP TIGHTSCF CHELPG PMODEL
| 29>
| 30> %scf
| 31> MaxIter 1000
| 32> end
| 33>
| 34> * xyz 0 1
| 35>   C                      -3.305806            2.350428             7.299162
| 36>   O                      -3.492513            3.717809             7.040741
| 37>   H                      -2.856496            4.083690             6.472353
| 38>   H                      -3.657650            1.660644             6.502851
| 39>   H                      -2.260319            2.065325             7.468942
| 40>   H                      -3.889548            1.933458             8.115113
| 41>   C                    : -5.918653            5.943443             7.309393
| 42>   O                    : -5.397078            5.313272             8.504120
| 43>   H                    : -4.765617            4.649269             8.200209
| 44>   H                    : -6.454968            6.862204             7.586693
| 45>   H                    : -5.096273            6.137884             6.604447
| 46>   H                    : -6.605557            5.235356             6.785779
| 47> *
| 48>
| 49> #Run DFT-D3 single point of the particle with dimer basis set
| 50> $new_job
| 51> %base "11-208_DFT_B"
| 52> ! wB97X-D3 def2-TZVP TIGHTSCF CHELPG PMODEL
| 53>
| 54> %scf
| 55> MaxIter 1000
| 56> end
| 57>
| 58> * xyz 0 1
| 59>   C                    : -3.305806            2.350428             7.299162
| 60>   O                    : -3.492513            3.717809             7.040741
| 61>   H                    : -2.856496            4.083690             6.472353
| 62>   H                    : -3.657650            1.660644             6.502851
| 63>   H                    : -2.260319            2.065325             7.468942
| 64>   H                    : -3.889548            1.933458             8.115113
| 65>   C                      -5.918653            5.943443             7.309393
| 66>   O                      -5.397078            5.313272             8.504120
| 67>   H                      -4.765617            4.649269             8.200209
| 68>   H                      -6.454968            6.862204             7.586693
| 69>   H                      -5.096273            6.137884             6.604447
| 70>   H                      -6.605557            5.235356             6.785779
| 71> *
| 72>
| 73>                          ****END OF INPUT****
 Total Charge           Charge          ....    0
 Multiplicity           Mult            ....    1
 Number of Electrons    NEL             ....   36
Dispersion correction           -0.001877272
FINAL SINGLE POINT ENERGY      -231.474390149858
Dispersion correction           -0.000272281
FINAL SINGLE POINT ENERGY      -115.730955615427

CARTESIAN COORDINATES (ANGSTROEM)
---------------------------------
  C     -3.305806    2.350428    7.299162
  O     -3.492513    3.717809    7.040741
  H     -2.856496    4.083690    6.472353
  H     -3.657650    1.660644    6.502851
  H     -2.260319    2.065325    7.468942
  H     -3.889548    1.933458    8.115113
  C     -5.918653    5.943443    7.309393
  O     -5.397078    5.313272    8.504120
  H     -4.765617    4.649269    8.200209
  H     -6.454968    6.862204    7.586693
  H     -5.096273    6.137884    6.604447
  H     -6.605557    5.235356    6.785779

 Multiplicity           Mult            ....    1
 Number of Electrons    NEL             ....   18
 Basis Dimension        Dim             ....  172

ORBITAL ENERGIES
----------------

  NO   OCC          E(Eh)            E(eV)
   0   2.0000     -19.230093      -523.2774
   1   2.0000     -10.320271      -280.8289
   2   2.0000      -1.126089       -30.6424
   3   2.0000      -0.791934       -21.5496
   4   2.0000      -0.604524       -16.4499
   5   2.0000      -0.533022       -14.5043
   6   2.0000      -0.524956       -14.2848
   7   2.0000      -0.440461       -11.9856
   8   2.0000      -0.371963       -10.1216
   9   0.0000       0.067816         1.8454
  10   0.0000       0.128624         3.5000
  11   0.0000       0.150537         4.0963
  12   0.0000       0.161109         4.3840
  13   0.0000       0.195668         5.3244

MULLIKEN ATOMIC CHARGES
-----------------------
   0 C :   -0.002492
   1 O :   -0.004735
   2 H :   -0.000043
   3 H :    0.000122
   4 H :   -0.000002
   5 H :   -0.000478
   6 C :   -0.177304
   7 O :   -0.473655
   8 H :    0.314680
   9 H :    0.128999
  10 H :    0.109706
  11 H :    0.105202
Sum of atomic charges:    0.0000000

LOEWDIN ATOMIC CHARGES
----------------------
   0 C :   -0.004251
   1 O :   -0.019486
   2 H :   -0.001248
   3 H :   -0.000058
   4 H :   -0.000079
   5 H :   -0.000634
   6 C :   -0.362454
   7 O :   -0.095125
   8 H :    0.176885
   9 H :    0.109969
  10 H :    0.097042
  11 H :    0.099440

  Mayer bond orders larger than 0.1
B(  6-C ,  7-O ) :   0.9841 B(  6-C ,  9-H ) :   0.9719 B(  6-C , 10-H ) :   0.9776
B(  6-C , 11-H ) :   0.9737 B(  7-O ,  8-H ) :   0.9091

Dispersion correction           -0.000242667
FINAL SINGLE POINT ENERGY      -115.735532145704

DIPOLE MOMENT
-------------
                                X             Y             Z
Electronic contribution:      0.54245      -0.59185       1.60169
Nuclear contribution   :     -0.35691       0.44741      -2.27935
                        -----------------------------------------
Total Dipole Moment    :      0.18554      -0.14443      -0.67766
                        -----------------------------------------
Magnitude (a.u.)       :      0.71729
Magnitude (Debye)      :      1.82322

Rotational constants in cm-1:     4.130387     0.807051     0.772933
Rotational constants in MHz : 123825.891666 24194.768878 23171.943275

                             ****ORCA TERMINATED NORMALLY****
TOTAL RUN TIME: 0 days 0 hours 1 minutes 8 seconds 625 msec
