                         Program Version 4.1.2  - RELEASE  -
|  1> #Run DFT-D3 single point of the dimer
|  2> ! wB97X-D3 def2-TZVP TIGHTSCF CHELPG PMODEL PAL8
|  3>
|  4> %base "12-26_DFT_AB"
|  5>
|  6> %scf
|  7> MaxIter 1000
|  8> end
|  9>
| 10> * xyz 0 1
| 11>   C                      5.213601             -6.424230            1.445439
| 12>   O                      5.630218             -5.208946            2.075847
| 13>   H                      5.563530             -4.576802            1.354313
| 14>   H                      5.329758             -7.331916            2.140380
| 15>   H                      4.144093             -6.377885            1.182249
| 16>   H                      5.866397             -6.714165            0.524728
| 17>   C                      2.437492             -8.573819            2.382882
| 18>   O                      2.679688             -9.867566            2.905653
| 19>   H                      2.038553             -10.523822           2.595594
| 20>   H                      3.029956             -7.822040            2.875681
| 21>   H                      2.705168             -8.531699            1.278498
| 22>   H                      1.367416             -8.249438            2.468147
| 23> *
| 24>
| 25> #Run DFT-D3 single point of the molecule with dimer basis set
| 26> $new_job
| 27> %base "12-26_DFT_A"
| 28> ! wB97X-D3 def2-TZVP TIGHTSCF CHELPG PMODEL
| 29>
| 30> %scf
| 31> MaxIter 1000
| 32> end
| 33>
| 34> * xyz 0 1
| 35>   C                      5.213601             -6.424230            1.445439
| 36>   O                      5.630218             -5.208946            2.075847
| 37>   H                      5.563530             -4.576802            1.354313
| 38>   H                      5.329758             -7.331916            2.140380
| 39>   H                      4.144093             -6.377885            1.182249
| 40>   H                      5.866397             -6.714165            0.524728
| 41>   C                    : 2.437492             -8.573819            2.382882
| 42>   O                    : 2.679688             -9.867566            2.905653
| 43>   H                    : 2.038553             -10.523822           2.595594
| 44>   H                    : 3.029956             -7.822040            2.875681
| 45>   H                    : 2.705168             -8.531699            1.278498
| 46>   H                    : 1.367416             -8.249438            2.468147
| 47> *
| 48>
| 49> #Run DFT-D3 single point of the particle with dimer basis set
| 50> $new_job
| 51> %base "12-26_DFT_B"
| 52> ! wB97X-D3 def2-TZVP TIGHTSCF CHELPG PMODEL
| 53>
| 54> %scf
| 55> MaxIter 1000
| 56> end
| 57>
| 58> * xyz 0 1
| 59>   C                    : 5.213601             -6.424230            1.445439
| 60>   O                    : 5.630218             -5.208946            2.075847
| 61>   H                    : 5.563530             -4.576802            1.354313
| 62>   H                    : 5.329758             -7.331916            2.140380
| 63>   H                    : 4.144093             -6.377885            1.182249
| 64>   H                    : 5.866397             -6.714165            0.524728
| 65>   C                      2.437492             -8.573819            2.382882
| 66>   O                      2.679688             -9.867566            2.905653
| 67>   H                      2.038553             -10.523822           2.595594
| 68>   H                      3.029956             -7.822040            2.875681
| 69>   H                      2.705168             -8.531699            1.278498
| 70>   H                      1.367416             -8.249438            2.468147
| 71> *
| 72>
| 73>                          ****END OF INPUT****
 Total Charge           Charge          ....    0
 Multiplicity           Mult            ....    1
 Number of Electrons    NEL             ....   36
Dispersion correction           -0.001637193
FINAL SINGLE POINT ENERGY      -231.465520622136
Dispersion correction           -0.000260361
FINAL SINGLE POINT ENERGY      -115.730597119594

CARTESIAN COORDINATES (ANGSTROEM)
---------------------------------
  C      5.213601   -6.424230    1.445439
  O      5.630218   -5.208946    2.075847
  H      5.563530   -4.576802    1.354313
  H      5.329758   -7.331916    2.140380
  H      4.144093   -6.377885    1.182249
  H      5.866397   -6.714165    0.524728
  C      2.437492   -8.573819    2.382882
  O      2.679688   -9.867566    2.905653
  H      2.038553  -10.523822    2.595594
  H      3.029956   -7.822040    2.875681
  H      2.705168   -8.531699    1.278498
  H      1.367416   -8.249438    2.468147

 Multiplicity           Mult            ....    1
 Number of Electrons    NEL             ....   18
 Basis Dimension        Dim             ....  172

ORBITAL ENERGIES
----------------

  NO   OCC          E(Eh)            E(eV)
   0   2.0000     -19.230911      -523.2997
   1   2.0000     -10.319526      -280.8086
   2   2.0000      -1.131478       -30.7891
   3   2.0000      -0.794218       -21.6118
   4   2.0000      -0.609479       -16.5848
   5   2.0000      -0.533736       -14.5237
   6   2.0000      -0.530325       -14.4309
   7   2.0000      -0.428804       -11.6684
   8   2.0000      -0.371459       -10.1079
   9   0.0000       0.087799         2.3891
  10   0.0000       0.115636         3.1466
  11   0.0000       0.152367         4.1461
  12   0.0000       0.174456         4.7472
  13   0.0000       0.179850         4.8940

MULLIKEN ATOMIC CHARGES
-----------------------
   0 C :   -0.004474
   1 O :    0.000051
   2 H :   -0.000013
   3 H :    0.002554
   4 H :    0.000177
   5 H :   -0.000099
   6 C :   -0.158910
   7 O :   -0.482210
   8 H :    0.319492
   9 H :    0.125939
  10 H :    0.096026
  11 H :    0.101468
Sum of atomic charges:   -0.0000000

LOEWDIN ATOMIC CHARGES
----------------------
   0 C :   -0.007995
   1 O :   -0.000015
   2 H :   -0.000007
   3 H :   -0.002454
   4 H :   -0.004224
   5 H :   -0.000069
   6 C :   -0.383824
   7 O :   -0.082796
   8 H :    0.173118
   9 H :    0.106915
  10 H :    0.102944
  11 H :    0.098407

  Mayer bond orders larger than 0.1
B(  6-C ,  7-O ) :   1.0003 B(  6-C ,  9-H ) :   0.9702 B(  6-C , 10-H ) :   0.9770
B(  6-C , 11-H ) :   0.9690 B(  7-O ,  8-H ) :   0.8925

Dispersion correction           -0.000268349
FINAL SINGLE POINT ENERGY      -115.734586332963

DIPOLE MOMENT
-------------
                                X             Y             Z
Electronic contribution:      0.44307      -1.63278       0.84720
Nuclear contribution   :     -0.95110       1.73289      -1.23274
                        -----------------------------------------
Total Dipole Moment    :     -0.50802       0.10010      -0.38554
                        -----------------------------------------
Magnitude (a.u.)       :      0.64556
Magnitude (Debye)      :      1.64088

Rotational constants in cm-1:     4.278414     0.812208     0.788408
Rotational constants in MHz : 128263.624391 24349.371341 23635.868004

                             ****ORCA TERMINATED NORMALLY****
TOTAL RUN TIME: 0 days 0 hours 1 minutes 11 seconds 98 msec
