                         Program Version 4.1.2  - RELEASE  -
|  1> #Run DFT-D3 single point of the dimer
|  2> ! wB97X-D3 def2-TZVP TIGHTSCF CHELPG PMODEL PAL8
|  3>
|  4> %base "13-82_DFT_AB"
|  5>
|  6> %scf
|  7> MaxIter 1000
|  8> end
|  9>
| 10> * xyz 0 1
| 11>   C                      -2.473489            2.754382             -3.587635
| 12>   O                      -2.443331            4.137999             -3.468418
| 13>   H                      -2.406738            4.647574             -4.288539
| 14>   H                      -1.822514            2.438176             -4.417710
| 15>   H                      -2.095098            2.370439             -2.644488
| 16>   H                      -3.458589            2.327411             -3.868728
| 17>   C                      -1.383171            2.494834             -7.774081
| 18>   O                      -2.695883            2.071175             -8.055564
| 19>   H                      -3.226363            2.757146             -8.538271
| 20>   H                      -1.414707            3.136260             -6.875296
| 21>   H                      -0.763160            1.607166             -7.637701
| 22>   H                      -0.942670            3.070044             -8.613933
| 23> *
| 24>
| 25> #Run DFT-D3 single point of the molecule with dimer basis set
| 26> $new_job
| 27> %base "13-82_DFT_A"
| 28> ! wB97X-D3 def2-TZVP TIGHTSCF CHELPG PMODEL
| 29>
| 30> %scf
| 31> MaxIter 1000
| 32> end
| 33>
| 34> * xyz 0 1
| 35>   C                      -2.473489            2.754382             -3.587635
| 36>   O                      -2.443331            4.137999             -3.468418
| 37>   H                      -2.406738            4.647574             -4.288539
| 38>   H                      -1.822514            2.438176             -4.417710
| 39>   H                      -2.095098            2.370439             -2.644488
| 40>   H                      -3.458589            2.327411             -3.868728
| 41>   C                    : -1.383171            2.494834             -7.774081
| 42>   O                    : -2.695883            2.071175             -8.055564
| 43>   H                    : -3.226363            2.757146             -8.538271
| 44>   H                    : -1.414707            3.136260             -6.875296
| 45>   H                    : -0.763160            1.607166             -7.637701
| 46>   H                    : -0.942670            3.070044             -8.613933
| 47> *
| 48>
| 49> #Run DFT-D3 single point of the particle with dimer basis set
| 50> $new_job
| 51> %base "13-82_DFT_B"
| 52> ! wB97X-D3 def2-TZVP TIGHTSCF CHELPG PMODEL
| 53>
| 54> %scf
| 55> MaxIter 1000
| 56> end
| 57>
| 58> * xyz 0 1
| 59>   C                    : -2.473489            2.754382             -3.587635
| 60>   O                    : -2.443331            4.137999             -3.468418
| 61>   H                    : -2.406738            4.647574             -4.288539
| 62>   H                    : -1.822514            2.438176             -4.417710
| 63>   H                    : -2.095098            2.370439             -2.644488
| 64>   H                    : -3.458589            2.327411             -3.868728
| 65>   C                      -1.383171            2.494834             -7.774081
| 66>   O                      -2.695883            2.071175             -8.055564
| 67>   H                      -3.226363            2.757146             -8.538271
| 68>   H                      -1.414707            3.136260             -6.875296
| 69>   H                      -0.763160            1.607166             -7.637701
| 70>   H                      -0.942670            3.070044             -8.613933
| 71> *
| 72>
| 73>                          ****END OF INPUT****
 Total Charge           Charge          ....    0
 Multiplicity           Mult            ....    1
 Number of Electrons    NEL             ....   36
Dispersion correction           -0.001354283
FINAL SINGLE POINT ENERGY      -231.468919219257
Dispersion correction           -0.000251151
FINAL SINGLE POINT ENERGY      -115.733487915706

CARTESIAN COORDINATES (ANGSTROEM)
---------------------------------
  C     -2.473489    2.754382   -3.587635
  O     -2.443331    4.137999   -3.468418
  H     -2.406738    4.647574   -4.288539
  H     -1.822514    2.438176   -4.417710
  H     -2.095098    2.370439   -2.644488
  H     -3.458589    2.327411   -3.868728
  C     -1.383171    2.494834   -7.774081
  O     -2.695883    2.071175   -8.055564
  H     -3.226363    2.757146   -8.538271
  H     -1.414707    3.136260   -6.875296
  H     -0.763160    1.607166   -7.637701
  H     -0.942670    3.070044   -8.613933

 Multiplicity           Mult            ....    1
 Number of Electrons    NEL             ....   18
 Basis Dimension        Dim             ....  172

ORBITAL ENERGIES
----------------

  NO   OCC          E(Eh)            E(eV)
   0   2.0000     -19.228471      -523.2333
   1   2.0000     -10.314350      -280.6677
   2   2.0000      -1.128049       -30.6958
   3   2.0000      -0.791011       -21.5245
   4   2.0000      -0.606325       -16.4989
   5   2.0000      -0.544368       -14.8130
   6   2.0000      -0.524408       -14.2699
   7   2.0000      -0.425500       -11.5784
   8   2.0000      -0.369868       -10.0646
   9   0.0000       0.087867         2.3910
  10   0.0000       0.116699         3.1755
  11   0.0000       0.154045         4.1918
  12   0.0000       0.163242         4.4420
  13   0.0000       0.194056         5.2805

MULLIKEN ATOMIC CHARGES
-----------------------
   0 C :    0.000132
   1 O :   -0.000276
   2 H :   -0.000030
   3 H :    0.001271
   4 H :    0.000187
   5 H :   -0.000219
   6 C :   -0.159718
   7 O :   -0.488629
   8 H :    0.319472
   9 H :    0.101846
  10 H :    0.119190
  11 H :    0.106773
Sum of atomic charges:    0.0000000

LOEWDIN ATOMIC CHARGES
----------------------
   0 C :   -0.001158
   1 O :   -0.000054
   2 H :   -0.000476
   3 H :   -0.002095
   4 H :   -0.000006
   5 H :   -0.000122
   6 C :   -0.390590
   7 O :   -0.092959
   8 H :    0.185420
   9 H :    0.097244
  10 H :    0.108116
  11 H :    0.096679

  Mayer bond orders larger than 0.1
B(  6-C ,  7-O ) :   0.9962 B(  6-C ,  9-H ) :   0.9743 B(  6-C , 10-H ) :   0.9716
B(  6-C , 11-H ) :   0.9779 B(  7-O ,  8-H ) :   0.8895

Dispersion correction           -0.000247395
FINAL SINGLE POINT ENERGY      -115.734678961264

DIPOLE MOMENT
-------------
                                X             Y             Z
Electronic contribution:     -1.59198      -0.67948      -0.27455
Nuclear contribution   :      1.78263       1.27535       0.05907
                        -----------------------------------------
Total Dipole Moment    :      0.19065       0.59587      -0.21548
                        -----------------------------------------
Magnitude (a.u.)       :      0.66169
Magnitude (Debye)      :      1.68189

Rotational constants in cm-1:     4.186296     0.832428     0.805579
Rotational constants in MHz : 125501.999216 24955.571119 24150.638409

                             ****ORCA TERMINATED NORMALLY****
TOTAL RUN TIME: 0 days 0 hours 1 minutes 4 seconds 975 msec
