                         Program Version 4.1.2  - RELEASE  -
|  1> #Run DFT-D3 single point of the dimer
|  2> ! wB97X-D3 def2-TZVP TIGHTSCF CHELPG PMODEL PAL8
|  3>
|  4> %base "19-43_DFT_AB"
|  5>
|  6> %scf
|  7> MaxIter 1000
|  8> end
|  9>
| 10> * xyz 0 1
| 11>   C                      7.257563             6.735818             4.442851
| 12>   O                      8.386543             7.556154             4.548185
| 13>   H                      9.044606             7.039462             5.018656
| 14>   H                      7.278685             6.428361             3.430371
| 15>   H                      7.463774             5.931356             5.183014
| 16>   H                      6.305239             7.244127             4.579032
| 17>   C                      7.351712             10.418148            6.752259
| 18>   O                      8.552900             9.749041             6.821038
| 19>   H                      8.791410             9.514841             5.913649
| 20>   H                      6.679711             9.966730             6.111934
| 21>   H                      6.973141             10.565398            7.788941
| 22>   H                      7.435543             11.507002            6.433489
| 23> *
| 24>
| 25> #Run DFT-D3 single point of the molecule with dimer basis set
| 26> $new_job
| 27> %base "19-43_DFT_A"
| 28> ! wB97X-D3 def2-TZVP TIGHTSCF CHELPG PMODEL
| 29>
| 30> %scf
| 31> MaxIter 1000
| 32> end
| 33>
| 34> * xyz 0 1
| 35>   C                      7.257563             6.735818             4.442851
| 36>   O                      8.386543             7.556154             4.548185
| 37>   H                      9.044606             7.039462             5.018656
| 38>   H                      7.278685             6.428361             3.430371
| 39>   H                      7.463774             5.931356             5.183014
| 40>   H                      6.305239             7.244127             4.579032
| 41>   C                    : 7.351712             10.418148            6.752259
| 42>   O                    : 8.552900             9.749041             6.821038
| 43>   H                    : 8.791410             9.514841             5.913649
| 44>   H                    : 6.679711             9.966730             6.111934
| 45>   H                    : 6.973141             10.565398            7.788941
| 46>   H                    : 7.435543             11.507002            6.433489
| 47> *
| 48>
| 49> #Run DFT-D3 single point of the particle with dimer basis set
| 50> $new_job
| 51> %base "19-43_DFT_B"
| 52> ! wB97X-D3 def2-TZVP TIGHTSCF CHELPG PMODEL
| 53>
| 54> %scf
| 55> MaxIter 1000
| 56> end
| 57>
| 58> * xyz 0 1
| 59>   C                    : 7.257563             6.735818             4.442851
| 60>   O                    : 8.386543             7.556154             4.548185
| 61>   H                    : 9.044606             7.039462             5.018656
| 62>   H                    : 7.278685             6.428361             3.430371
| 63>   H                    : 7.463774             5.931356             5.183014
| 64>   H                    : 6.305239             7.244127             4.579032
| 65>   C                      7.351712             10.418148            6.752259
| 66>   O                      8.552900             9.749041             6.821038
| 67>   H                      8.791410             9.514841             5.913649
| 68>   H                      6.679711             9.966730             6.111934
| 69>   H                      6.973141             10.565398            7.788941
| 70>   H                      7.435543             11.507002            6.433489
| 71> *
| 72>
| 73>                          ****END OF INPUT****
 Total Charge           Charge          ....    0
 Multiplicity           Mult            ....    1
 Number of Electrons    NEL             ....   36
Dispersion correction           -0.001705275
FINAL SINGLE POINT ENERGY      -231.463470987769
Dispersion correction           -0.000206596
FINAL SINGLE POINT ENERGY      -115.726776132513

CARTESIAN COORDINATES (ANGSTROEM)
---------------------------------
  C      7.257563    6.735818    4.442851
  O      8.386543    7.556154    4.548185
  H      9.044606    7.039462    5.018656
  H      7.278685    6.428361    3.430371
  H      7.463774    5.931356    5.183014
  H      6.305239    7.244127    4.579032
  C      7.351712   10.418148    6.752259
  O      8.552900    9.749041    6.821038
  H      8.791410    9.514841    5.913649
  H      6.679711    9.966730    6.111934
  H      6.973141   10.565398    7.788941
  H      7.435543   11.507002    6.433489

 Multiplicity           Mult            ....    1
 Number of Electrons    NEL             ....   18
 Basis Dimension        Dim             ....  172

ORBITAL ENERGIES
----------------

  NO   OCC          E(Eh)            E(eV)
   0   2.0000     -19.234326      -523.3926
   1   2.0000     -10.309490      -280.5355
   2   2.0000      -1.149999       -31.2931
   3   2.0000      -0.794069       -21.6077
   4   2.0000      -0.623961       -16.9788
   5   2.0000      -0.548680       -14.9303
   6   2.0000      -0.524377       -14.2690
   7   2.0000      -0.437399       -11.9022
   8   2.0000      -0.369734       -10.0610
   9   0.0000       0.076160         2.0724
  10   0.0000       0.129614         3.5270
  11   0.0000       0.144421         3.9299
  12   0.0000       0.178569         4.8591
  13   0.0000       0.193696         5.2707

MULLIKEN ATOMIC CHARGES
-----------------------
   0 C :   -0.002088
   1 O :   -0.002302
   2 H :   -0.000938
   3 H :   -0.000002
   4 H :    0.000325
   5 H :    0.000033
   6 C :   -0.165360
   7 O :   -0.456699
   8 H :    0.315239
   9 H :    0.109421
  10 H :    0.114790
  11 H :    0.087580
Sum of atomic charges:   -0.0000000

LOEWDIN ATOMIC CHARGES
----------------------
   0 C :   -0.001602
   1 O :   -0.006805
   2 H :   -0.001831
   3 H :   -0.000047
   4 H :   -0.000044
   5 H :   -0.000343
   6 C :   -0.416829
   7 O :   -0.041489
   8 H :    0.177922
   9 H :    0.079392
  10 H :    0.113872
  11 H :    0.097804

  Mayer bond orders larger than 0.1
B(  6-C ,  7-O ) :   1.0101 B(  6-C ,  9-H ) :   0.9751 B(  6-C , 10-H ) :   0.9753
B(  6-C , 11-H ) :   0.9771 B(  7-O ,  8-H ) :   0.8992

Dispersion correction           -0.000229658
FINAL SINGLE POINT ENERGY      -115.730747949044

DIPOLE MOMENT
-------------
                                X             Y             Z
Electronic contribution:      1.55149      -1.06806       0.16378
Nuclear contribution   :     -1.85420       1.15157      -0.75214
                        -----------------------------------------
Total Dipole Moment    :     -0.30272       0.08352      -0.58836
                        -----------------------------------------
Magnitude (a.u.)       :      0.66692
Magnitude (Debye)      :      1.69518

Rotational constants in cm-1:     4.328514     0.868930     0.829730
Rotational constants in MHz : 129765.592747 26049.873586 24874.693080

                             ****ORCA TERMINATED NORMALLY****
TOTAL RUN TIME: 0 days 0 hours 0 minutes 45 seconds 226 msec
