                         Program Version 4.1.2  - RELEASE  -
|  1> #Run DFT-D3 single point of the dimer
|  2> ! wB97X-D3 def2-TZVP TIGHTSCF CHELPG PMODEL PAL8
|  3>
|  4> %base "3-178_DFT_AB"
|  5>
|  6> %scf
|  7> MaxIter 1000
|  8> end
|  9>
| 10> * xyz 0 1
| 11>   C                      6.577847             2.978810             8.179517
| 12>   O                      5.975196             3.353764             9.377669
| 13>   H                      6.506293             2.869754             10.037476
| 14>   H                      7.656711             3.391105             8.099346
| 15>   H                      6.781400             1.897453             8.054072
| 16>   H                      5.989922             3.391443             7.321349
| 17>   C                      6.714030             6.422396             10.394207
| 18>   O                      6.851283             5.344857             11.258049
| 19>   H                      6.920575             5.686456             12.133882
| 20>   H                      7.582852             7.081638             10.428246
| 21>   H                      6.611697             6.088977             9.350043
| 22>   H                      5.775098             7.018923             10.625381
| 23> *
| 24>
| 25> #Run DFT-D3 single point of the molecule with dimer basis set
| 26> $new_job
| 27> %base "3-178_DFT_A"
| 28> ! wB97X-D3 def2-TZVP TIGHTSCF CHELPG PMODEL
| 29>
| 30> %scf
| 31> MaxIter 1000
| 32> end
| 33>
| 34> * xyz 0 1
| 35>   C                      6.577847             2.978810             8.179517
| 36>   O                      5.975196             3.353764             9.377669
| 37>   H                      6.506293             2.869754             10.037476
| 38>   H                      7.656711             3.391105             8.099346
| 39>   H                      6.781400             1.897453             8.054072
| 40>   H                      5.989922             3.391443             7.321349
| 41>   C                    : 6.714030             6.422396             10.394207
| 42>   O                    : 6.851283             5.344857             11.258049
| 43>   H                    : 6.920575             5.686456             12.133882
| 44>   H                    : 7.582852             7.081638             10.428246
| 45>   H                    : 6.611697             6.088977             9.350043
| 46>   H                    : 5.775098             7.018923             10.625381
| 47> *
| 48>
| 49> #Run DFT-D3 single point of the particle with dimer basis set
| 50> $new_job
| 51> %base "3-178_DFT_B"
| 52> ! wB97X-D3 def2-TZVP TIGHTSCF CHELPG PMODEL
| 53>
| 54> %scf
| 55> MaxIter 1000
| 56> end
| 57>
| 58> * xyz 0 1
| 59>   C                    : 6.577847             2.978810             8.179517
| 60>   O                    : 5.975196             3.353764             9.377669
| 61>   H                    : 6.506293             2.869754             10.037476
| 62>   H                    : 7.656711             3.391105             8.099346
| 63>   H                    : 6.781400             1.897453             8.054072
| 64>   H                    : 5.989922             3.391443             7.321349
| 65>   C                      6.714030             6.422396             10.394207
| 66>   O                      6.851283             5.344857             11.258049
| 67>   H                      6.920575             5.686456             12.133882
| 68>   H                      7.582852             7.081638             10.428246
| 69>   H                      6.611697             6.088977             9.350043
| 70>   H                      5.775098             7.018923             10.625381
| 71> *
| 72>
| 73>                          ****END OF INPUT****
 Total Charge           Charge          ....    0
 Multiplicity           Mult            ....    1
 Number of Electrons    NEL             ....   36
Dispersion correction           -0.001886713
FINAL SINGLE POINT ENERGY      -231.467637442236
Dispersion correction           -0.000237567
FINAL SINGLE POINT ENERGY      -115.731465726896

CARTESIAN COORDINATES (ANGSTROEM)
---------------------------------
  C      6.577847    2.978810    8.179517
  O      5.975196    3.353764    9.377669
  H      6.506293    2.869754   10.037476
  H      7.656711    3.391105    8.099346
  H      6.781400    1.897453    8.054072
  H      5.989922    3.391443    7.321349
  C      6.714030    6.422396   10.394207
  O      6.851283    5.344857   11.258049
  H      6.920575    5.686456   12.133882
  H      7.582852    7.081638   10.428246
  H      6.611697    6.088977    9.350043
  H      5.775098    7.018923   10.625381

 Multiplicity           Mult            ....    1
 Number of Electrons    NEL             ....   18
 Basis Dimension        Dim             ....  172

ORBITAL ENERGIES
----------------

  NO   OCC          E(Eh)            E(eV)
   0   2.0000     -19.230189      -523.2801
   1   2.0000     -10.315809      -280.7074
   2   2.0000      -1.149286       -31.2736
   3   2.0000      -0.793302       -21.5868
   4   2.0000      -0.616148       -16.7662
   5   2.0000      -0.544004       -14.8031
   6   2.0000      -0.532507       -14.4903
   7   2.0000      -0.430677       -11.7193
   8   2.0000      -0.373401       -10.1608
   9   0.0000       0.092715         2.5229
  10   0.0000       0.122410         3.3309
  11   0.0000       0.153470         4.1761
  12   0.0000       0.188360         5.1255
  13   0.0000       0.195070         5.3081

MULLIKEN ATOMIC CHARGES
-----------------------
   0 C :    0.000728
   1 O :    0.001292
   2 H :   -0.004229
   3 H :   -0.000268
   4 H :   -0.000038
   5 H :   -0.000338
   6 C :   -0.170196
   7 O :   -0.457317
   8 H :    0.311449
   9 H :    0.103292
  10 H :    0.119720
  11 H :    0.095907
Sum of atomic charges:    0.0000000

LOEWDIN ATOMIC CHARGES
----------------------
   0 C :   -0.002145
   1 O :   -0.006782
   2 H :   -0.005854
   3 H :   -0.000282
   4 H :   -0.000018
   5 H :   -0.000138
   6 C :   -0.408875
   7 O :   -0.038916
   8 H :    0.160523
   9 H :    0.092238
  10 H :    0.110309
  11 H :    0.099940

  Mayer bond orders larger than 0.1
B(  6-C ,  7-O ) :   1.0004 B(  6-C ,  9-H ) :   0.9747 B(  6-C , 10-H ) :   0.9719
B(  6-C , 11-H ) :   0.9778 B(  7-O ,  8-H ) :   0.9012

Dispersion correction           -0.000232335
FINAL SINGLE POINT ENERGY      -115.735802433240

DIPOLE MOMENT
-------------
                                X             Y             Z
Electronic contribution:      0.23514      -1.54739       1.04962
Nuclear contribution   :     -0.22821       2.16388      -0.82479
                        -----------------------------------------
Total Dipole Moment    :      0.00692       0.61649       0.22484
                        -----------------------------------------
Magnitude (a.u.)       :      0.65625
Magnitude (Debye)      :      1.66805

Rotational constants in cm-1:     4.255514     0.850136     0.824069
Rotational constants in MHz : 127577.097966 25486.440798 24704.955476

                             ****ORCA TERMINATED NORMALLY****
TOTAL RUN TIME: 0 days 0 hours 5 minutes 55 seconds 443 msec
