                         Program Version 4.1.2  - RELEASE  -
|  1> #Run DFT-D3 single point of the dimer
|  2> ! wB97X-D3 def2-TZVP TIGHTSCF CHELPG PMODEL PAL8
|  3>
|  4> %base "18-7_DFT_AB"
|  5>
|  6> %scf
|  7> MaxIter 1000
|  8> end
|  9>
| 10> * xyz 0 1
| 11>   C                      0.886549             0.822237             10.406532
| 12>   O                      -0.359793            0.971877             9.692236
| 13>   H                      -0.550626            0.048280             9.716713
| 14>   H                      1.518922             1.710716             10.116938
| 15>   H                      0.664286             0.723875             11.450918
| 16>   H                      1.397309             -0.146132            10.165140
| 17>   C                      -1.190788            1.142633             6.654220
| 18>   O                      -0.403871            2.277754             7.020789
| 19>   H                      -0.822837            2.627458             7.820886
| 20>   H                      -1.397813            0.506782             7.600173
| 21>   H                      -2.133651            1.325674             6.184751
| 22>   H                      -0.679551            0.528703             5.928469
| 23> *
| 24>
| 25> #Run DFT-D3 single point of the molecule with dimer basis set
| 26> $new_job
| 27> %base "18-7_DFT_A"
| 28> ! wB97X-D3 def2-TZVP TIGHTSCF CHELPG PMODEL
| 29>
| 30> %scf
| 31> MaxIter 1000
| 32> end
| 33>
| 34> * xyz 0 1
| 35>   C                      0.886549             0.822237             10.406532
| 36>   O                      -0.359793            0.971877             9.692236
| 37>   H                      -0.550626            0.048280             9.716713
| 38>   H                      1.518922             1.710716             10.116938
| 39>   H                      0.664286             0.723875             11.450918
| 40>   H                      1.397309             -0.146132            10.165140
| 41>   C                    : -1.190788            1.142633             6.654220
| 42>   O                    : -0.403871            2.277754             7.020789
| 43>   H                    : -0.822837            2.627458             7.820886
| 44>   H                    : -1.397813            0.506782             7.600173
| 45>   H                    : -2.133651            1.325674             6.184751
| 46>   H                    : -0.679551            0.528703             5.928469
| 47> *
| 48>
| 49> #Run DFT-D3 single point of the particle with dimer basis set
| 50> $new_job
| 51> %base "18-7_DFT_B"
| 52> ! wB97X-D3 def2-TZVP TIGHTSCF CHELPG PMODEL
| 53>
| 54> %scf
| 55> MaxIter 1000
| 56> end
| 57>
| 58> * xyz 0 1
| 59>   C                    : 0.886549             0.822237             10.406532
| 60>   O                    : -0.359793            0.971877             9.692236
| 61>   H                    : -0.550626            0.048280             9.716713
| 62>   H                    : 1.518922             1.710716             10.116938
| 63>   H                    : 0.664286             0.723875             11.450918
| 64>   H                    : 1.397309             -0.146132            10.165140
| 65>   C                      -1.190788            1.142633             6.654220
| 66>   O                      -0.403871            2.277754             7.020789
| 67>   H                      -0.822837            2.627458             7.820886
| 68>   H                      -1.397813            0.506782             7.600173
| 69>   H                      -2.133651            1.325674             6.184751
| 70>   H                      -0.679551            0.528703             5.928469
| 71> *
| 72>
| 73>                          ****END OF INPUT****
 Total Charge           Charge          ....    0
 Multiplicity           Mult            ....    1
 Number of Electrons    NEL             ....   36
Dispersion correction           -0.001884834
FINAL SINGLE POINT ENERGY      -231.460371063858
Dispersion correction           -0.000209488
FINAL SINGLE POINT ENERGY      -115.726330681317

CARTESIAN COORDINATES (ANGSTROEM)
---------------------------------
  C      0.886549    0.822237   10.406532
  O     -0.359793    0.971877    9.692236
  H     -0.550626    0.048280    9.716713
  H      1.518922    1.710716   10.116938
  H      0.664286    0.723875   11.450918
  H      1.397309   -0.146132   10.165140
  C     -1.190788    1.142633    6.654220
  O     -0.403871    2.277754    7.020789
  H     -0.822837    2.627458    7.820886
  H     -1.397813    0.506782    7.600173
  H     -2.133651    1.325674    6.184751
  H     -0.679551    0.528703    5.928469

 Multiplicity           Mult            ....    1
 Number of Electrons    NEL             ....   18
 Basis Dimension        Dim             ....  172

ORBITAL ENERGIES
----------------

  NO   OCC          E(Eh)            E(eV)
   0   2.0000     -19.235972      -523.4374
   1   2.0000     -10.317771      -280.7608
   2   2.0000      -1.133903       -30.8551
   3   2.0000      -0.795570       -21.6486
   4   2.0000      -0.607385       -16.5278
   5   2.0000      -0.539023       -14.6676
   6   2.0000      -0.526641       -14.3306
   7   2.0000      -0.437249       -11.8982
   8   2.0000      -0.375925       -10.2294
   9   0.0000       0.080558         2.1921
  10   0.0000       0.125876         3.4253
  11   0.0000       0.145260         3.9527
  12   0.0000       0.175435         4.7738
  13   0.0000       0.197860         5.3840

MULLIKEN ATOMIC CHARGES
-----------------------
   0 C :   -0.002750
   1 O :   -0.001943
   2 H :    0.000223
   3 H :   -0.001011
   4 H :   -0.000026
   5 H :    0.000133
   6 C :   -0.176970
   7 O :   -0.463523
   8 H :    0.317524
   9 H :    0.095596
  10 H :    0.110157
  11 H :    0.122592
Sum of atomic charges:    0.0000000

LOEWDIN ATOMIC CHARGES
----------------------
   0 C :   -0.002580
   1 O :   -0.012982
   2 H :   -0.004236
   3 H :   -0.000710
   4 H :   -0.000062
   5 H :   -0.000034
   6 C :   -0.378078
   7 O :   -0.080294
   8 H :    0.175177
   9 H :    0.111176
  10 H :    0.088295
  11 H :    0.104326

  Mayer bond orders larger than 0.1
B(  6-C ,  7-O ) :   1.0012 B(  6-C ,  9-H ) :   0.9822 B(  6-C , 10-H ) :   0.9688
B(  6-C , 11-H ) :   0.9762 B(  7-O ,  8-H ) :   0.8999

Dispersion correction           -0.000254609
FINAL SINGLE POINT ENERGY      -115.732342239679

DIPOLE MOMENT
-------------
                                X             Y             Z
Electronic contribution:      1.12183       1.55389       0.24788
Nuclear contribution   :     -1.69056      -1.77587       0.06780
                        -----------------------------------------
Total Dipole Moment    :     -0.56873      -0.22198       0.31567
                        -----------------------------------------
Magnitude (a.u.)       :      0.68730
Magnitude (Debye)      :      1.74697

Rotational constants in cm-1:     4.276742     0.814289     0.779737
Rotational constants in MHz : 128213.489064 24411.765141 23375.920549

                             ****ORCA TERMINATED NORMALLY****
TOTAL RUN TIME: 0 days 0 hours 1 minutes 5 seconds 515 msec
