                         Program Version 4.1.2  - RELEASE  -
|  1> #Run DFT-D3 single point of the dimer
|  2> ! wB97X-D3 def2-TZVP TIGHTSCF CHELPG PMODEL PAL8
|  3>
|  4> %base "7-168_DFT_AB"
|  5>
|  6> %scf
|  7> MaxIter 1000
|  8> end
|  9>
| 10> * xyz 0 1
| 11>   C                      0.571452             5.757147             -9.310984
| 12>   O                      0.521628             4.402486             -9.201155
| 13>   H                      0.086074             4.339337             -8.344764
| 14>   H                      0.854972             6.019808             -10.346947
| 15>   H                      -0.502939            6.082742             -9.134544
| 16>   H                      1.119985             6.190823             -8.585950
| 17>   C                      3.290816             2.639390             -6.435223
| 18>   O                      2.221507             3.210297             -7.185437
| 19>   H                      1.960015             3.895836             -6.607853
| 20>   H                      3.608396             1.654702             -6.888811
| 21>   H                      4.077403             3.324916             -6.281360
| 22>   H                      2.889501             2.348891             -5.371082
| 23> *
| 24>
| 25> #Run DFT-D3 single point of the molecule with dimer basis set
| 26> $new_job
| 27> %base "7-168_DFT_A"
| 28> ! wB97X-D3 def2-TZVP TIGHTSCF CHELPG PMODEL
| 29>
| 30> %scf
| 31> MaxIter 1000
| 32> end
| 33>
| 34> * xyz 0 1
| 35>   C                      0.571452             5.757147             -9.310984
| 36>   O                      0.521628             4.402486             -9.201155
| 37>   H                      0.086074             4.339337             -8.344764
| 38>   H                      0.854972             6.019808             -10.346947
| 39>   H                      -0.502939            6.082742             -9.134544
| 40>   H                      1.119985             6.190823             -8.585950
| 41>   C                    : 3.290816             2.639390             -6.435223
| 42>   O                    : 2.221507             3.210297             -7.185437
| 43>   H                    : 1.960015             3.895836             -6.607853
| 44>   H                    : 3.608396             1.654702             -6.888811
| 45>   H                    : 4.077403             3.324916             -6.281360
| 46>   H                    : 2.889501             2.348891             -5.371082
| 47> *
| 48>
| 49> #Run DFT-D3 single point of the particle with dimer basis set
| 50> $new_job
| 51> %base "7-168_DFT_B"
| 52> ! wB97X-D3 def2-TZVP TIGHTSCF CHELPG PMODEL
| 53>
| 54> %scf
| 55> MaxIter 1000
| 56> end
| 57>
| 58> * xyz 0 1
| 59>   C                    : 0.571452             5.757147             -9.310984
| 60>   O                    : 0.521628             4.402486             -9.201155
| 61>   H                    : 0.086074             4.339337             -8.344764
| 62>   H                    : 0.854972             6.019808             -10.346947
| 63>   H                    : -0.502939            6.082742             -9.134544
| 64>   H                    : 1.119985             6.190823             -8.585950
| 65>   C                      3.290816             2.639390             -6.435223
| 66>   O                      2.221507             3.210297             -7.185437
| 67>   H                      1.960015             3.895836             -6.607853
| 68>   H                      3.608396             1.654702             -6.888811
| 69>   H                      4.077403             3.324916             -6.281360
| 70>   H                      2.889501             2.348891             -5.371082
| 71> *
| 72>
| 73>                          ****END OF INPUT****
 Total Charge           Charge          ....    0
 Multiplicity           Mult            ....    1
 Number of Electrons    NEL             ....   36
Dispersion correction           -0.001438867
FINAL SINGLE POINT ENERGY      -231.445941682109
Dispersion correction           -0.000171135
FINAL SINGLE POINT ENERGY      -115.721363314424

CARTESIAN COORDINATES (ANGSTROEM)
---------------------------------
  C      0.571452    5.757147   -9.310984
  O      0.521628    4.402486   -9.201155
  H      0.086074    4.339337   -8.344764
  H      0.854972    6.019808  -10.346947
  H     -0.502939    6.082742   -9.134544
  H      1.119985    6.190823   -8.585950
  C      3.290816    2.639390   -6.435223
  O      2.221507    3.210297   -7.185437
  H      1.960015    3.895836   -6.607853
  H      3.608396    1.654702   -6.888811
  H      4.077403    3.324916   -6.281360
  H      2.889501    2.348891   -5.371082

 Multiplicity           Mult            ....    1
 Number of Electrons    NEL             ....   18
 Basis Dimension        Dim             ....  172

ORBITAL ENERGIES
----------------

  NO   OCC          E(Eh)            E(eV)
   0   2.0000     -19.231531      -523.3166
   1   2.0000     -10.323852      -280.9263
   2   2.0000      -1.145238       -31.1635
   3   2.0000      -0.789912       -21.4946
   4   2.0000      -0.612539       -16.6680
   5   2.0000      -0.543354       -14.7854
   6   2.0000      -0.521314       -14.1857
   7   2.0000      -0.442286       -12.0352
   8   2.0000      -0.374780       -10.1983
   9   0.0000       0.091143         2.4801
  10   0.0000       0.122203         3.3253
  11   0.0000       0.155727         4.2376
  12   0.0000       0.188717         5.1353
  13   0.0000       0.191920         5.2224

MULLIKEN ATOMIC CHARGES
-----------------------
   0 C :   -0.003329
   1 O :    0.002985
   2 H :   -0.003844
   3 H :    0.000072
   4 H :   -0.000070
   5 H :   -0.001165
   6 C :   -0.182054
   7 O :   -0.450260
   8 H :    0.311442
   9 H :    0.120757
  10 H :    0.114785
  11 H :    0.090680
Sum of atomic charges:   -0.0000000

LOEWDIN ATOMIC CHARGES
----------------------
   0 C :   -0.003173
   1 O :   -0.007167
   2 H :   -0.005580
   3 H :   -0.000034
   4 H :   -0.000051
   5 H :   -0.000870
   6 C :   -0.382984
   7 O :   -0.061548
   8 H :    0.156417
   9 H :    0.115634
  10 H :    0.084638
  11 H :    0.104718

  Mayer bond orders larger than 0.1
B(  6-C ,  7-O ) :   0.9968 B(  6-C ,  9-H ) :   0.9733 B(  6-C , 10-H ) :   0.9680
B(  6-C , 11-H ) :   0.9814 B(  7-O ,  8-H ) :   0.9050

Dispersion correction           -0.000225697
FINAL SINGLE POINT ENERGY      -115.728735887318

DIPOLE MOMENT
-------------
                                X             Y             Z
Electronic contribution:     -1.21375       0.72368      -1.24351
Nuclear contribution   :      1.48103      -0.51899       1.88524
                        -----------------------------------------
Total Dipole Moment    :      0.26728       0.20469       0.64173
                        -----------------------------------------
Magnitude (a.u.)       :      0.72467
Magnitude (Debye)      :      1.84197

Rotational constants in cm-1:     4.092421     0.828711     0.795079
Rotational constants in MHz : 122687.697309 24844.138572 23835.855509

                             ****ORCA TERMINATED NORMALLY****
TOTAL RUN TIME: 0 days 0 hours 1 minutes 12 seconds 736 msec
