                         Program Version 4.1.2  - RELEASE  -
|  1> #Run DFT-D3 single point of the dimer
|  2> ! wB97X-D3 def2-TZVP TIGHTSCF CHELPG PMODEL PAL8
|  3>
|  4> %base "9-59_DFT_AB"
|  5>
|  6> %scf
|  7> MaxIter 1000
|  8> end
|  9>
| 10> * xyz 0 1
| 11>   C                      11.104101            1.379980             -2.789674
| 12>   O                      10.501086            1.573904             -4.084412
| 13>   H                      10.985737            2.266012             -4.552232
| 14>   H                      12.067943            1.871421             -2.666359
| 15>   H                      10.426387            1.644756             -2.008202
| 16>   H                      11.529797            0.348971             -2.652523
| 17>   C                      9.985999             -1.041515            -6.206606
| 18>   O                      9.679240             -2.467454            -6.348799
| 19>   H                      10.198651            -2.803330            -7.006309
| 20>   H                      10.651009            -0.872188            -5.455774
| 21>   H                      10.408236            -0.532107            -7.075587
| 22>   H                      9.158436             -0.380384            -5.891513
| 23> *
| 24>
| 25> #Run DFT-D3 single point of the molecule with dimer basis set
| 26> $new_job
| 27> %base "9-59_DFT_A"
| 28> ! wB97X-D3 def2-TZVP TIGHTSCF CHELPG PMODEL
| 29>
| 30> %scf
| 31> MaxIter 1000
| 32> end
| 33>
| 34> * xyz 0 1
| 35>   C                      11.104101            1.379980             -2.789674
| 36>   O                      10.501086            1.573904             -4.084412
| 37>   H                      10.985737            2.266012             -4.552232
| 38>   H                      12.067943            1.871421             -2.666359
| 39>   H                      10.426387            1.644756             -2.008202
| 40>   H                      11.529797            0.348971             -2.652523
| 41>   C                    : 9.985999             -1.041515            -6.206606
| 42>   O                    : 9.679240             -2.467454            -6.348799
| 43>   H                    : 10.198651            -2.803330            -7.006309
| 44>   H                    : 10.651009            -0.872188            -5.455774
| 45>   H                    : 10.408236            -0.532107            -7.075587
| 46>   H                    : 9.158436             -0.380384            -5.891513
| 47> *
| 48>
| 49> #Run DFT-D3 single point of the particle with dimer basis set
| 50> $new_job
| 51> %base "9-59_DFT_B"
| 52> ! wB97X-D3 def2-TZVP TIGHTSCF CHELPG PMODEL
| 53>
| 54> %scf
| 55> MaxIter 1000
| 56> end
| 57>
| 58> * xyz 0 1
| 59>   C                    : 11.104101            1.379980             -2.789674
| 60>   O                    : 10.501086            1.573904             -4.084412
| 61>   H                    : 10.985737            2.266012             -4.552232
| 62>   H                    : 12.067943            1.871421             -2.666359
| 63>   H                    : 10.426387            1.644756             -2.008202
| 64>   H                    : 11.529797            0.348971             -2.652523
| 65>   C                      9.985999             -1.041515            -6.206606
| 66>   O                      9.679240             -2.467454            -6.348799
| 67>   H                      10.198651            -2.803330            -7.006309
| 68>   H                      10.651009            -0.872188            -5.455774
| 69>   H                      10.408236            -0.532107            -7.075587
| 70>   H                      9.158436             -0.380384            -5.891513
| 71> *
| 72>
| 73>                          ****END OF INPUT****
 Total Charge           Charge          ....    0
 Multiplicity           Mult            ....    1
 Number of Electrons    NEL             ....   36
Dispersion correction           -0.001630864
FINAL SINGLE POINT ENERGY      -231.453112676116
Dispersion correction           -0.000272351
FINAL SINGLE POINT ENERGY      -115.729453676183

CARTESIAN COORDINATES (ANGSTROEM)
---------------------------------
  C     11.104101    1.379980   -2.789674
  O     10.501086    1.573904   -4.084412
  H     10.985737    2.266012   -4.552232
  H     12.067943    1.871421   -2.666359
  H     10.426387    1.644756   -2.008202
  H     11.529797    0.348971   -2.652523
  C      9.985999   -1.041515   -6.206606
  O      9.679240   -2.467454   -6.348799
  H     10.198651   -2.803330   -7.006309
  H     10.651009   -0.872188   -5.455774
  H     10.408236   -0.532107   -7.075587
  H      9.158436   -0.380384   -5.891513

 Multiplicity           Mult            ....    1
 Number of Electrons    NEL             ....   18
 Basis Dimension        Dim             ....  172

ORBITAL ENERGIES
----------------

  NO   OCC          E(Eh)            E(eV)
   0   2.0000     -19.228547      -523.2354
   1   2.0000     -10.311013      -280.5769
   2   2.0000      -1.135057       -30.8865
   3   2.0000      -0.813085       -22.1252
   4   2.0000      -0.613642       -16.6980
   5   2.0000      -0.537232       -14.6188
   6   2.0000      -0.524220       -14.2647
   7   2.0000      -0.440496       -11.9865
   8   2.0000      -0.379673       -10.3314
   9   0.0000       0.080270         2.1843
  10   0.0000       0.123560         3.3622
  11   0.0000       0.140754         3.8301
  12   0.0000       0.173247         4.7143
  13   0.0000       0.188227         5.1219

MULLIKEN ATOMIC CHARGES
-----------------------
   0 C :   -0.000183
   1 O :   -0.000239
   2 H :   -0.000024
   3 H :    0.000038
   4 H :   -0.000006
   5 H :   -0.000009
   6 C :   -0.192461
   7 O :   -0.464713
   8 H :    0.303165
   9 H :    0.123228
  10 H :    0.112120
  11 H :    0.119083
Sum of atomic charges:    0.0000000

LOEWDIN ATOMIC CHARGES
----------------------
   0 C :   -0.001266
   1 O :   -0.002350
   2 H :   -0.000205
   3 H :   -0.000009
   4 H :   -0.000019
   5 H :   -0.000431
   6 C :   -0.342780
   7 O :   -0.074066
   8 H :    0.126629
   9 H :    0.081474
  10 H :    0.100689
  11 H :    0.112334

  Mayer bond orders larger than 0.1
B(  6-C ,  7-O ) :   0.9979 B(  6-C ,  9-H ) :   0.9759 B(  6-C , 10-H ) :   0.9776
B(  6-C , 11-H ) :   0.9756 B(  7-O ,  8-H ) :   0.9153

Dispersion correction           -0.000279929
FINAL SINGLE POINT ENERGY      -115.721562858080

DIPOLE MOMENT
-------------
                                X             Y             Z
Electronic contribution:     -0.46497      -1.91018      -0.13216
Nuclear contribution   :      0.95968       2.31548      -0.22867
                        -----------------------------------------
Total Dipole Moment    :      0.49471       0.40530      -0.36083
                        -----------------------------------------
Magnitude (a.u.)       :      0.73431
Magnitude (Debye)      :      1.86646

Rotational constants in cm-1:     4.814125     0.775353     0.745464
Rotational constants in MHz : 144323.834575 23244.488746 22348.449319

                             ****ORCA TERMINATED NORMALLY****
TOTAL RUN TIME: 0 days 0 hours 0 minutes 46 seconds 33 msec
