                         Program Version 4.1.2  - RELEASE  -
|  1> #Run DFT-D3 single point of the dimer
|  2> ! wB97X-D3 def2-TZVP TIGHTSCF  CHELPG PAL8
|  3>
|  4> %base "179_charges"
|  5>
|  6> %scf
|  7> MaxIter 1000
|  8> end
|  9> %output
| 10>   Print[ P_Mayer ] 1
| 11>   Print[ P_NatPop ] 1
| 12>   Print[ P_Hirshfeld ] 1
| 13>   Print[ P_Mulliken ] 1
| 14>   Print [ P_Loewdin ] 1
| 15> end
| 16>
| 17> * xyz 0 1
| 18>   C                      11.748413            -8.638477            -0.511116
| 19>   O                      10.742290            -7.954505            -1.114005
| 20>   H                      9.931923             -8.028146            -0.578709
| 21>   H                      11.814149            -8.451811            0.539546
| 22>   H                      11.686297            -9.668044            -0.780570
| 23>   H                      12.657382            -8.384824            -1.033372
| 24> *
| 25>
| 26>                          ****END OF INPUT****

CARTESIAN COORDINATES (ANGSTROEM)
---------------------------------
  C     11.748413   -8.638477   -0.511116
  O     10.742290   -7.954505   -1.114005
  H      9.931923   -8.028146   -0.578709
  H     11.814149   -8.451811    0.539546
  H     11.686297   -9.668044   -0.780570
  H     12.657382   -8.384824   -1.033372

 Total Charge           Charge          ....    0
 Multiplicity           Mult            ....    1
 Number of Electrons    NEL             ....   18
 Basis Dimension        Dim             ....   86

ORBITAL ENERGIES
----------------

  NO   OCC          E(Eh)            E(eV)
   0   2.0000     -19.226976      -523.1926
   1   2.0000     -10.298751      -280.2433
   2   2.0000      -1.149756       -31.2864
   3   2.0000      -0.797241       -21.6940
   4   2.0000      -0.618254       -16.8236
   5   2.0000      -0.558869       -15.2076
   6   2.0000      -0.531399       -14.4601
   7   2.0000      -0.427183       -11.6242
   8   2.0000      -0.367378        -9.9969
   9   0.0000       0.115623         3.1462
  10   0.0000       0.161132         4.3846
  11   0.0000       0.204597         5.5674
  12   0.0000       0.212187         5.7739
  13   0.0000       0.229864         6.2549

MULLIKEN ATOMIC CHARGES
-----------------------
   0 C :   -0.144441
   1 O :   -0.471460
   2 H :    0.315381
   3 H :    0.100013
   4 H :    0.093992
   5 H :    0.106514
Sum of atomic charges:   -0.0000000

LOEWDIN ATOMIC CHARGES
----------------------
   0 C :   -0.424502
   1 O :   -0.043115
   2 H :    0.180024
   3 H :    0.090251
   4 H :    0.089600
   5 H :    0.107742

  Mayer bond orders larger than 0.1
B(  0-C ,  1-O ) :   1.0103 B(  0-C ,  3-H ) :   0.9805 B(  0-C ,  4-H ) :   0.9823
B(  0-C ,  5-H ) :   0.9749 B(  1-O ,  2-H ) :   0.8954

Dispersion correction           -0.000210214
FINAL SINGLE POINT ENERGY      -115.730171522172

DIPOLE MOMENT
-------------
                                X             Y             Z
Electronic contribution:     -1.26598       0.96219      -0.72723
Nuclear contribution   :      1.13691      -1.25926       1.28206
                        -----------------------------------------
Total Dipole Moment    :     -0.12907      -0.29708       0.55484
                        -----------------------------------------
Magnitude (a.u.)       :      0.64246
Magnitude (Debye)      :      1.63301

Rotational constants in cm-1:     4.408130     0.898185     0.859458
Rotational constants in MHz : 132152.417587 26926.919444 25765.891545

                             ****ORCA TERMINATED NORMALLY****
TOTAL RUN TIME: 0 days 0 hours 0 minutes 41 seconds 20 msec
