                         Program Version 4.1.2  - RELEASE  -
|  1> #Run DFT-D3 single point of the dimer
|  2> ! wB97X-D3 def2-TZVP TIGHTSCF CHELPG PMODEL PAL8
|  3>
|  4> %base "13-101_DFT_AB"
|  5>
|  6> %scf
|  7> MaxIter 1000
|  8> end
|  9>
| 10> * xyz 0 1
| 11>   C                      -8.327295            -6.314122            3.863884
| 12>   O                      -7.013995            -6.096790            4.267801
| 13>   H                      -6.519497            -6.634224            3.582791
| 14>   H                      -8.460313            -6.122950            2.836673
| 15>   H                      -8.712477            -7.355026            4.012781
| 16>   H                      -9.101512            -5.635674            4.311855
| 17>   C                      -9.513766            -8.570702            7.187068
| 18>   O                      -10.076444           -8.065438            8.428768
| 19>   H                      -9.333079            -8.226433            9.031325
| 20>   H                      -8.679151            -7.966749            6.771757
| 21>   H                      -9.088397            -9.540467            7.387278
| 22>   H                      -10.279644           -8.693933            6.433474
| 23> *
| 24>
| 25> #Run DFT-D3 single point of the molecule with dimer basis set
| 26> $new_job
| 27> %base "13-101_DFT_A"
| 28> ! wB97X-D3 def2-TZVP TIGHTSCF CHELPG PMODEL
| 29>
| 30> %scf
| 31> MaxIter 1000
| 32> end
| 33>
| 34> * xyz 0 1
| 35>   C                      -8.327295            -6.314122            3.863884
| 36>   O                      -7.013995            -6.096790            4.267801
| 37>   H                      -6.519497            -6.634224            3.582791
| 38>   H                      -8.460313            -6.122950            2.836673
| 39>   H                      -8.712477            -7.355026            4.012781
| 40>   H                      -9.101512            -5.635674            4.311855
| 41>   C                    : -9.513766            -8.570702            7.187068
| 42>   O                    : -10.076444           -8.065438            8.428768
| 43>   H                    : -9.333079            -8.226433            9.031325
| 44>   H                    : -8.679151            -7.966749            6.771757
| 45>   H                    : -9.088397            -9.540467            7.387278
| 46>   H                    : -10.279644           -8.693933            6.433474
| 47> *
| 48>
| 49> #Run DFT-D3 single point of the particle with dimer basis set
| 50> $new_job
| 51> %base "13-101_DFT_B"
| 52> ! wB97X-D3 def2-TZVP TIGHTSCF CHELPG PMODEL
| 53>
| 54> %scf
| 55> MaxIter 1000
| 56> end
| 57>
| 58> * xyz 0 1
| 59>   C                    : -8.327295            -6.314122            3.863884
| 60>   O                    : -7.013995            -6.096790            4.267801
| 61>   H                    : -6.519497            -6.634224            3.582791
| 62>   H                    : -8.460313            -6.122950            2.836673
| 63>   H                    : -8.712477            -7.355026            4.012781
| 64>   H                    : -9.101512            -5.635674            4.311855
| 65>   C                      -9.513766            -8.570702            7.187068
| 66>   O                      -10.076444           -8.065438            8.428768
| 67>   H                      -9.333079            -8.226433            9.031325
| 68>   H                      -8.679151            -7.966749            6.771757
| 69>   H                      -9.088397            -9.540467            7.387278
| 70>   H                      -10.279644           -8.693933            6.433474
| 71> *
| 72>
| 73>                          ****END OF INPUT****
 Total Charge           Charge          ....    0
 Multiplicity           Mult            ....    1
 Number of Electrons    NEL             ....   36
Dispersion correction           -0.001274267
FINAL SINGLE POINT ENERGY      -231.462424555993
Dispersion correction           -0.000231840
FINAL SINGLE POINT ENERGY      -115.728379765379

CARTESIAN COORDINATES (ANGSTROEM)
---------------------------------
  C     -8.327295   -6.314122    3.863884
  O     -7.013995   -6.096790    4.267801
  H     -6.519497   -6.634224    3.582791
  H     -8.460313   -6.122950    2.836673
  H     -8.712477   -7.355026    4.012781
  H     -9.101512   -5.635674    4.311855
  C     -9.513766   -8.570702    7.187068
  O    -10.076444   -8.065438    8.428768
  H     -9.333079   -8.226433    9.031325
  H     -8.679151   -7.966749    6.771757
  H     -9.088397   -9.540467    7.387278
  H    -10.279644   -8.693933    6.433474

 Multiplicity           Mult            ....    1
 Number of Electrons    NEL             ....   18
 Basis Dimension        Dim             ....  172

ORBITAL ENERGIES
----------------

  NO   OCC          E(Eh)            E(eV)
   0   2.0000     -19.234150      -523.3878
   1   2.0000     -10.315422      -280.6969
   2   2.0000      -1.128041       -30.6956
   3   2.0000      -0.795019       -21.6336
   4   2.0000      -0.603342       -16.4178
   5   2.0000      -0.535377       -14.5684
   6   2.0000      -0.523985       -14.2583
   7   2.0000      -0.446794       -12.1579
   8   2.0000      -0.375175       -10.2090
   9   0.0000       0.083106         2.2614
  10   0.0000       0.113857         3.0982
  11   0.0000       0.151022         4.1095
  12   0.0000       0.164032         4.4635
  13   0.0000       0.182921         4.9775

MULLIKEN ATOMIC CHARGES
-----------------------
   0 C :    0.000889
   1 O :   -0.000044
   2 H :   -0.000040
   3 H :   -0.000036
   4 H :   -0.001463
   5 H :    0.000062
   6 C :   -0.187261
   7 O :   -0.464946
   8 H :    0.313542
   9 H :    0.106336
  10 H :    0.109642
  11 H :    0.123318
Sum of atomic charges:   -0.0000000

LOEWDIN ATOMIC CHARGES
----------------------
   0 C :   -0.002674
   1 O :   -0.000107
   2 H :   -0.000023
   3 H :   -0.000031
   4 H :   -0.001522
   5 H :   -0.000150
   6 C :   -0.362195
   7 O :   -0.106360
   8 H :    0.175426
   9 H :    0.099375
  10 H :    0.092940
  11 H :    0.105321

  Mayer bond orders larger than 0.1
B(  6-C ,  7-O ) :   0.9949 B(  6-C ,  9-H ) :   0.9653 B(  6-C , 10-H ) :   0.9820
B(  6-C , 11-H ) :   0.9743 B(  7-O ,  8-H ) :   0.9038

Dispersion correction           -0.000237741
FINAL SINGLE POINT ENERGY      -115.733001641221

DIPOLE MOMENT
-------------
                                X             Y             Z
Electronic contribution:     -0.92870       0.73583       1.46714
Nuclear contribution   :      1.60326      -1.06168      -1.59981
                        -----------------------------------------
Total Dipole Moment    :      0.67456      -0.32584      -0.13267
                        -----------------------------------------
Magnitude (a.u.)       :      0.76079
Magnitude (Debye)      :      1.93378

Rotational constants in cm-1:     4.257867     0.802717     0.769872
Rotational constants in MHz : 127647.648408 24064.863671 23080.190727

                             ****ORCA TERMINATED NORMALLY****
TOTAL RUN TIME: 0 days 0 hours 1 minutes 7 seconds 127 msec
