                         Program Version 4.1.2  - RELEASE  -
|  1> #Run DFT-D3 single point of the dimer
|  2> ! wB97X-D3 def2-TZVP TIGHTSCF CHELPG PMODEL PAL8
|  3>
|  4> %base "10-123_DFT_AB"
|  5>
|  6> %scf
|  7> MaxIter 1000
|  8> end
|  9>
| 10> * xyz 0 1
| 11>   C                      3.098485             -10.254710           3.154652
| 12>   O                      1.929443             -10.645468           2.413402
| 13>   H                      1.326363             -9.867213            2.392018
| 14>   H                      3.838667             -9.664771            2.574647
| 15>   H                      2.839848             -9.539749            3.990909
| 16>   H                      3.496632             -11.128306           3.655965
| 17>   C                      -0.681082            -9.095581            4.717525
| 18>   O                      -1.768830            -8.989200            3.801281
| 19>   H                      -2.128245            -8.088517            3.928673
| 20>   H                      0.257001             -9.436978            4.263545
| 21>   H                      -0.425561            -8.132345            5.229116
| 22>   H                      -0.925386            -9.747219            5.498497
| 23> *
| 24>
| 25> #Run DFT-D3 single point of the molecule with dimer basis set
| 26> $new_job
| 27> %base "10-123_DFT_A"
| 28> ! wB97X-D3 def2-TZVP TIGHTSCF CHELPG PMODEL
| 29>
| 30> %scf
| 31> MaxIter 1000
| 32> end
| 33>
| 34> * xyz 0 1
| 35>   C                      3.098485             -10.254710           3.154652
| 36>   O                      1.929443             -10.645468           2.413402
| 37>   H                      1.326363             -9.867213            2.392018
| 38>   H                      3.838667             -9.664771            2.574647
| 39>   H                      2.839848             -9.539749            3.990909
| 40>   H                      3.496632             -11.128306           3.655965
| 41>   C                    : -0.681082            -9.095581            4.717525
| 42>   O                    : -1.768830            -8.989200            3.801281
| 43>   H                    : -2.128245            -8.088517            3.928673
| 44>   H                    : 0.257001             -9.436978            4.263545
| 45>   H                    : -0.425561            -8.132345            5.229116
| 46>   H                    : -0.925386            -9.747219            5.498497
| 47> *
| 48>
| 49> #Run DFT-D3 single point of the particle with dimer basis set
| 50> $new_job
| 51> %base "10-123_DFT_B"
| 52> ! wB97X-D3 def2-TZVP TIGHTSCF CHELPG PMODEL
| 53>
| 54> %scf
| 55> MaxIter 1000
| 56> end
| 57>
| 58> * xyz 0 1
| 59>   C                    : 3.098485             -10.254710           3.154652
| 60>   O                    : 1.929443             -10.645468           2.413402
| 61>   H                    : 1.326363             -9.867213            2.392018
| 62>   H                    : 3.838667             -9.664771            2.574647
| 63>   H                    : 2.839848             -9.539749            3.990909
| 64>   H                    : 3.496632             -11.128306           3.655965
| 65>   C                      -0.681082            -9.095581            4.717525
| 66>   O                      -1.768830            -8.989200            3.801281
| 67>   H                      -2.128245            -8.088517            3.928673
| 68>   H                      0.257001             -9.436978            4.263545
| 69>   H                      -0.425561            -8.132345            5.229116
| 70>   H                      -0.925386            -9.747219            5.498497
| 71> *
| 72>
| 73>                          ****END OF INPUT****
 Total Charge           Charge          ....    0
 Multiplicity           Mult            ....    1
 Number of Electrons    NEL             ....   36
Dispersion correction           -0.001603534
FINAL SINGLE POINT ENERGY      -231.466115754311
Dispersion correction           -0.000264083
FINAL SINGLE POINT ENERGY      -115.733096540112

CARTESIAN COORDINATES (ANGSTROEM)
---------------------------------
  C      3.098485  -10.254710    3.154652
  O      1.929443  -10.645468    2.413402
  H      1.326363   -9.867213    2.392018
  H      3.838667   -9.664771    2.574647
  H      2.839848   -9.539749    3.990909
  H      3.496632  -11.128306    3.655965
  C     -0.681082   -9.095581    4.717525
  O     -1.768830   -8.989200    3.801281
  H     -2.128245   -8.088517    3.928673
  H      0.257001   -9.436978    4.263545
  H     -0.425561   -8.132345    5.229116
  H     -0.925386   -9.747219    5.498497

 Multiplicity           Mult            ....    1
 Number of Electrons    NEL             ....   18
 Basis Dimension        Dim             ....  172

ORBITAL ENERGIES
----------------

  NO   OCC          E(Eh)            E(eV)
   0   2.0000     -19.233889      -523.3807
   1   2.0000     -10.311418      -280.5879
   2   2.0000      -1.131156       -30.7803
   3   2.0000      -0.796691       -21.6791
   4   2.0000      -0.607701       -16.5364
   5   2.0000      -0.543024       -14.7764
   6   2.0000      -0.524056       -14.2603
   7   2.0000      -0.434707       -11.8290
   8   2.0000      -0.376074       -10.2335
   9   0.0000       0.087949         2.3932
  10   0.0000       0.111877         3.0443
  11   0.0000       0.155409         4.2289
  12   0.0000       0.168591         4.5876
  13   0.0000       0.194436         5.2909

MULLIKEN ATOMIC CHARGES
-----------------------
   0 C :   -0.000743
   1 O :    0.000100
   2 H :    0.002973
   3 H :    0.000060
   4 H :   -0.000219
   5 H :   -0.000305
   6 C :   -0.179278
   7 O :   -0.470631
   8 H :    0.320798
   9 H :    0.107274
  10 H :    0.101474
  11 H :    0.118497
Sum of atomic charges:    0.0000000

LOEWDIN ATOMIC CHARGES
----------------------
   0 C :   -0.003236
   1 O :   -0.001575
   2 H :   -0.004572
   3 H :   -0.000020
   4 H :   -0.002129
   5 H :   -0.000051
   6 C :   -0.376738
   7 O :   -0.091060
   8 H :    0.182285
   9 H :    0.106151
  10 H :    0.102323
  11 H :    0.088621

  Mayer bond orders larger than 0.1
B(  6-C ,  7-O ) :   1.0195 B(  6-C ,  9-H ) :   0.9702 B(  6-C , 10-H ) :   0.9870
B(  6-C , 11-H ) :   0.9800 B(  7-O ,  8-H ) :   0.8971

Dispersion correction           -0.000254554
FINAL SINGLE POINT ENERGY      -115.732172385174

DIPOLE MOMENT
-------------
                                X             Y             Z
Electronic contribution:     -1.42323      -0.06871      -1.29248
Nuclear contribution   :      1.62207       0.60247       1.75081
                        -----------------------------------------
Total Dipole Moment    :      0.19884       0.53377       0.45834
                        -----------------------------------------
Magnitude (a.u.)       :      0.73111
Magnitude (Debye)      :      1.85832

Rotational constants in cm-1:     4.364067     0.817192     0.784350
Rotational constants in MHz : 130831.426961 24498.787720 23514.223907

                             ****ORCA TERMINATED NORMALLY****
TOTAL RUN TIME: 0 days 0 hours 1 minutes 0 seconds 928 msec
