                         Program Version 4.1.2  - RELEASE  -
|  1> #Run DFT-D3 single point of the dimer
|  2> ! wB97X-D3 def2-TZVP TIGHTSCF CHELPG PMODEL PAL8
|  3>
|  4> %base "15-215_DFT_AB"
|  5>
|  6> %scf
|  7> MaxIter 1000
|  8> end
|  9>
| 10> * xyz 0 1
| 11>   C                      -9.239067            -5.099073            0.798096
| 12>   O                      -9.384162            -5.754281            2.003019
| 13>   H                      -8.498989            -6.000853            2.296157
| 14>   H                      -8.693844            -5.708319            0.095357
| 15>   H                      -10.258006           -4.715967            0.432128
| 16>   H                      -8.614225            -4.207495            0.849079
| 17>   C                      -9.584156            -9.060726            0.622698
| 18>   O                      -10.863261           -8.665781            1.189621
| 19>   H                      -10.767988           -7.741379            1.556886
| 20>   H                      -9.431335            -8.496572            -0.292237
| 21>   H                      -8.741103            -8.926558            1.309368
| 22>   H                      -9.567899            -10.134361           0.384599
| 23> *
| 24>
| 25> #Run DFT-D3 single point of the molecule with dimer basis set
| 26> $new_job
| 27> %base "15-215_DFT_A"
| 28> ! wB97X-D3 def2-TZVP TIGHTSCF CHELPG PMODEL
| 29>
| 30> %scf
| 31> MaxIter 1000
| 32> end
| 33>
| 34> * xyz 0 1
| 35>   C                      -9.239067            -5.099073            0.798096
| 36>   O                      -9.384162            -5.754281            2.003019
| 37>   H                      -8.498989            -6.000853            2.296157
| 38>   H                      -8.693844            -5.708319            0.095357
| 39>   H                      -10.258006           -4.715967            0.432128
| 40>   H                      -8.614225            -4.207495            0.849079
| 41>   C                    : -9.584156            -9.060726            0.622698
| 42>   O                    : -10.863261           -8.665781            1.189621
| 43>   H                    : -10.767988           -7.741379            1.556886
| 44>   H                    : -9.431335            -8.496572            -0.292237
| 45>   H                    : -8.741103            -8.926558            1.309368
| 46>   H                    : -9.567899            -10.134361           0.384599
| 47> *
| 48>
| 49> #Run DFT-D3 single point of the particle with dimer basis set
| 50> $new_job
| 51> %base "15-215_DFT_B"
| 52> ! wB97X-D3 def2-TZVP TIGHTSCF CHELPG PMODEL
| 53>
| 54> %scf
| 55> MaxIter 1000
| 56> end
| 57>
| 58> * xyz 0 1
| 59>   C                    : -9.239067            -5.099073            0.798096
| 60>   O                    : -9.384162            -5.754281            2.003019
| 61>   H                    : -8.498989            -6.000853            2.296157
| 62>   H                    : -8.693844            -5.708319            0.095357
| 63>   H                    : -10.258006           -4.715967            0.432128
| 64>   H                    : -8.614225            -4.207495            0.849079
| 65>   C                      -9.584156            -9.060726            0.622698
| 66>   O                      -10.863261           -8.665781            1.189621
| 67>   H                      -10.767988           -7.741379            1.556886
| 68>   H                      -9.431335            -8.496572            -0.292237
| 69>   H                      -8.741103            -8.926558            1.309368
| 70>   H                      -9.567899            -10.134361           0.384599
| 71> *
| 72>
| 73>                          ****END OF INPUT****
 Total Charge           Charge          ....    0
 Multiplicity           Mult            ....    1
 Number of Electrons    NEL             ....   36
Dispersion correction           -0.002122377
FINAL SINGLE POINT ENERGY      -231.472027357846
Dispersion correction           -0.000222553
FINAL SINGLE POINT ENERGY      -115.732096340185

CARTESIAN COORDINATES (ANGSTROEM)
---------------------------------
  C     -9.239067   -5.099073    0.798096
  O     -9.384162   -5.754281    2.003019
  H     -8.498989   -6.000853    2.296157
  H     -8.693844   -5.708319    0.095357
  H    -10.258006   -4.715967    0.432128
  H     -8.614225   -4.207495    0.849079
  C     -9.584156   -9.060726    0.622698
  O    -10.863261   -8.665781    1.189621
  H    -10.767988   -7.741379    1.556886
  H     -9.431335   -8.496572   -0.292237
  H     -8.741103   -8.926558    1.309368
  H     -9.567899  -10.134361    0.384599

 Multiplicity           Mult            ....    1
 Number of Electrons    NEL             ....   18
 Basis Dimension        Dim             ....  172

ORBITAL ENERGIES
----------------

  NO   OCC          E(Eh)            E(eV)
   0   2.0000     -19.233273      -523.3640
   1   2.0000     -10.315925      -280.7106
   2   2.0000      -1.116646       -30.3855
   3   2.0000      -0.794226       -21.6120
   4   2.0000      -0.596756       -16.2386
   5   2.0000      -0.543051       -14.7772
   6   2.0000      -0.519748       -14.1431
   7   2.0000      -0.432155       -11.7595
   8   2.0000      -0.374806       -10.1990
   9   0.0000       0.068113         1.8534
  10   0.0000       0.132038         3.5929
  11   0.0000       0.143786         3.9126
  12   0.0000       0.156946         4.2707
  13   0.0000       0.194235         5.2854

MULLIKEN ATOMIC CHARGES
-----------------------
   0 C :   -0.002658
   1 O :   -0.000341
   2 H :   -0.000187
   3 H :   -0.000659
   4 H :    0.000274
   5 H :   -0.000035
   6 C :   -0.175541
   7 O :   -0.486679
   8 H :    0.317472
   9 H :    0.112396
  10 H :    0.108761
  11 H :    0.127198
Sum of atomic charges:   -0.0000000

LOEWDIN ATOMIC CHARGES
----------------------
   0 C :   -0.003584
   1 O :   -0.004974
   2 H :   -0.000764
   3 H :   -0.001023
   4 H :   -0.000193
   5 H :   -0.000079
   6 C :   -0.360560
   7 O :   -0.120472
   8 H :    0.188756
   9 H :    0.096083
  10 H :    0.096290
  11 H :    0.110521

  Mayer bond orders larger than 0.1
B(  6-C ,  7-O ) :   0.9889 B(  6-C ,  9-H ) :   0.9800 B(  6-C , 10-H ) :   0.9729
B(  6-C , 11-H ) :   0.9713 B(  7-O ,  8-H ) :   0.8982

Dispersion correction           -0.000261014
FINAL SINGLE POINT ENERGY      -115.733759646300

DIPOLE MOMENT
-------------
                                X             Y             Z
Electronic contribution:     -1.64765       0.35166       0.66437
Nuclear contribution   :      2.24655       0.03667      -0.67463
                        -----------------------------------------
Total Dipole Moment    :      0.59890       0.38833      -0.01026
                        -----------------------------------------
Magnitude (a.u.)       :      0.71385
Magnitude (Debye)      :      1.81447

Rotational constants in cm-1:     4.246318     0.789272     0.764124
Rotational constants in MHz : 127301.403989 23661.791453 22907.846704

                             ****ORCA TERMINATED NORMALLY****
TOTAL RUN TIME: 0 days 0 hours 1 minutes 4 seconds 481 msec
