                         Program Version 4.1.2  - RELEASE  -
|  1> #Run DFT-D3 single point of the dimer
|  2> ! wB97X-D3 def2-TZVP TIGHTSCF  CHELPG PAL8
|  3>
|  4> %base "15_charges"
|  5>
|  6> %scf
|  7> MaxIter 1000
|  8> end
|  9> %output
| 10>   Print[ P_Mayer ] 1
| 11>   Print[ P_NatPop ] 1
| 12>   Print[ P_Hirshfeld ] 1
| 13>   Print[ P_Mulliken ] 1
| 14>   Print [ P_Loewdin ] 1
| 15> end
| 16>
| 17> * xyz 0 1
| 18>   C                      -3.521358            8.791261             -10.162053
| 19>   O                      -3.920293            8.213161             -11.344190
| 20>   H                      -3.294568            8.415121             -12.067983
| 21>   H                      -3.852942            8.223650             -9.216378
| 22>   H                      -2.421579            8.872017             -10.186131
| 23>   H                      -3.880206            9.824972             -10.122471
| 24> *
| 25>
| 26>                          ****END OF INPUT****

CARTESIAN COORDINATES (ANGSTROEM)
---------------------------------
  C     -3.521358    8.791261  -10.162053
  O     -3.920293    8.213161  -11.344190
  H     -3.294568    8.415121  -12.067983
  H     -3.852942    8.223650   -9.216378
  H     -2.421579    8.872017  -10.186131
  H     -3.880206    9.824972  -10.122471

 Total Charge           Charge          ....    0
 Multiplicity           Mult            ....    1
 Number of Electrons    NEL             ....   18
 Basis Dimension        Dim             ....   86

ORBITAL ENERGIES
----------------

  NO   OCC          E(Eh)            E(eV)
   0   2.0000     -19.228861      -523.2439
   1   2.0000     -10.316719      -280.7322
   2   2.0000      -1.143735       -31.1226
   3   2.0000      -0.787244       -21.4220
   4   2.0000      -0.616881       -16.7862
   5   2.0000      -0.541982       -14.7481
   6   2.0000      -0.532532       -14.4909
   7   2.0000      -0.422715       -11.5027
   8   2.0000      -0.367414        -9.9978
   9   0.0000       0.110027         2.9940
  10   0.0000       0.152970         4.1625
  11   0.0000       0.200008         5.4425
  12   0.0000       0.206214         5.6114
  13   0.0000       0.230053         6.2601

MULLIKEN ATOMIC CHARGES
-----------------------
   0 C :   -0.153752
   1 O :   -0.473764
   2 H :    0.322303
   3 H :    0.114028
   4 H :    0.095399
   5 H :    0.095786
Sum of atomic charges:   -0.0000000

LOEWDIN ATOMIC CHARGES
----------------------
   0 C :   -0.422662
   1 O :   -0.062626
   2 H :    0.183419
   3 H :    0.116117
   4 H :    0.094122
   5 H :    0.091630

  Mayer bond orders larger than 0.1
B(  0-C ,  1-O ) :   1.0034 B(  0-C ,  3-H ) :   0.9649 B(  0-C ,  4-H ) :   0.9912
B(  0-C ,  5-H ) :   0.9751 B(  1-O ,  2-H ) :   0.8898

Dispersion correction           -0.000231340
FINAL SINGLE POINT ENERGY      -115.730133535871

DIPOLE MOMENT
-------------
                                X             Y             Z
Electronic contribution:     -0.69320      -0.87108      -1.46766
Nuclear contribution   :      1.26597       1.21888       1.43194
                        -----------------------------------------
Total Dipole Moment    :      0.57277       0.34780      -0.03572
                        -----------------------------------------
Magnitude (a.u.)       :      0.67105
Magnitude (Debye)      :      1.70568

Rotational constants in cm-1:     4.174052     0.864759     0.826653
Rotational constants in MHz : 125134.933817 25924.812747 24782.418803

                             ****ORCA TERMINATED NORMALLY****
TOTAL RUN TIME: 0 days 0 hours 0 minutes 42 seconds 487 msec
