                         Program Version 4.1.2  - RELEASE  -
|  1> #Run DFT-D3 single point of the dimer
|  2> ! wB97X-D3 def2-TZVP TIGHTSCF CHELPG PMODEL PAL8
|  3>
|  4> %base "1-29_DFT_AB"
|  5>
|  6> %scf
|  7> MaxIter 1000
|  8> end
|  9>
| 10> * xyz 0 1
| 11>   C                      -2.881200            5.269052             1.066537
| 12>   O                      -2.445104            4.075524             0.341486
| 13>   H                      -2.756895            4.205874             -0.534556
| 14>   H                      -3.832270            5.165989             1.402556
| 15>   H                      -2.191036            5.618454             1.900053
| 16>   H                      -2.957396            6.094008             0.292697
| 17>   C                      -6.296176            3.776495             -4.725563
| 18>   O                      -5.685976            3.634716             -3.483569
| 19>   H                      -5.576019            4.521717             -3.251364
| 20>   H                      -5.678511            4.378508             -5.439903
| 21>   H                      -6.424762            2.782603             -5.191134
| 22>   H                      -7.243550            4.274723             -4.592986
| 23> *
| 24>
| 25> #Run DFT-D3 single point of the molecule with dimer basis set
| 26> $new_job
| 27> %base "1-29_DFT_A"
| 28> ! wB97X-D3 def2-TZVP TIGHTSCF CHELPG PMODEL
| 29>
| 30> %scf
| 31> MaxIter 1000
| 32> end
| 33>
| 34> * xyz 0 1
| 35>   C                      -2.881200            5.269052             1.066537
| 36>   O                      -2.445104            4.075524             0.341486
| 37>   H                      -2.756895            4.205874             -0.534556
| 38>   H                      -3.832270            5.165989             1.402556
| 39>   H                      -2.191036            5.618454             1.900053
| 40>   H                      -2.957396            6.094008             0.292697
| 41>   C                    : -6.296176            3.776495             -4.725563
| 42>   O                    : -5.685976            3.634716             -3.483569
| 43>   H                    : -5.576019            4.521717             -3.251364
| 44>   H                    : -5.678511            4.378508             -5.439903
| 45>   H                    : -6.424762            2.782603             -5.191134
| 46>   H                    : -7.243550            4.274723             -4.592986
| 47> *
| 48>
| 49> #Run DFT-D3 single point of the particle with dimer basis set
| 50> $new_job
| 51> %base "1-29_DFT_B"
| 52> ! wB97X-D3 def2-TZVP TIGHTSCF CHELPG PMODEL
| 53>
| 54> %scf
| 55> MaxIter 1000
| 56> end
| 57>
| 58> * xyz 0 1
| 59>   C                    : -2.881200            5.269052             1.066537
| 60>   O                    : -2.445104            4.075524             0.341486
| 61>   H                    : -2.756895            4.205874             -0.534556
| 62>   H                    : -3.832270            5.165989             1.402556
| 63>   H                    : -2.191036            5.618454             1.900053
| 64>   H                    : -2.957396            6.094008             0.292697
| 65>   C                      -6.296176            3.776495             -4.725563
| 66>   O                      -5.685976            3.634716             -3.483569
| 67>   H                      -5.576019            4.521717             -3.251364
| 68>   H                      -5.678511            4.378508             -5.439903
| 69>   H                      -6.424762            2.782603             -5.191134
| 70>   H                      -7.243550            4.274723             -4.592986
| 71> *
| 72>
| 73>                          ****END OF INPUT****
 Total Charge           Charge          ....    0
 Multiplicity           Mult            ....    1
 Number of Electrons    NEL             ....   36
Dispersion correction           -0.000613612
FINAL SINGLE POINT ENERGY      -231.456876890455
Dispersion correction           -0.000244874
FINAL SINGLE POINT ENERGY      -115.724510255955

CARTESIAN COORDINATES (ANGSTROEM)
---------------------------------
  C     -2.881200    5.269052    1.066537
  O     -2.445104    4.075524    0.341486
  H     -2.756895    4.205874   -0.534556
  H     -3.832270    5.165989    1.402556
  H     -2.191036    5.618454    1.900053
  H     -2.957396    6.094008    0.292697
  C     -6.296176    3.776495   -4.725563
  O     -5.685976    3.634716   -3.483569
  H     -5.576019    4.521717   -3.251364
  H     -5.678511    4.378508   -5.439903
  H     -6.424762    2.782603   -5.191134
  H     -7.243550    4.274723   -4.592986

 Multiplicity           Mult            ....    1
 Number of Electrons    NEL             ....   18
 Basis Dimension        Dim             ....  172

ORBITAL ENERGIES
----------------

  NO   OCC          E(Eh)            E(eV)
   0   2.0000     -19.228454      -523.2328
   1   2.0000     -10.313898      -280.6554
   2   2.0000      -1.157383       -31.4940
   3   2.0000      -0.791729       -21.5440
   4   2.0000      -0.618687       -16.8353
   5   2.0000      -0.549056       -14.9406
   6   2.0000      -0.527623       -14.3574
   7   2.0000      -0.441410       -12.0114
   8   2.0000      -0.373623       -10.1668
   9   0.0000       0.085911         2.3378
  10   0.0000       0.117648         3.2014
  11   0.0000       0.154667         4.2087
  12   0.0000       0.177067         4.8182
  13   0.0000       0.194605         5.2955

MULLIKEN ATOMIC CHARGES
-----------------------
   0 C :    0.000045
   1 O :    0.000041
   2 H :   -0.000460
   3 H :   -0.000004
   4 H :   -0.000000
   5 H :   -0.000005
   6 C :   -0.168693
   7 O :   -0.450477
   8 H :    0.307601
   9 H :    0.093287
  10 H :    0.115720
  11 H :    0.102946
Sum of atomic charges:    0.0000000

LOEWDIN ATOMIC CHARGES
----------------------
   0 C :   -0.000009
   1 O :   -0.000004
   2 H :   -0.000211
   3 H :   -0.000001
   4 H :   -0.000000
   5 H :   -0.000003
   6 C :   -0.405212
   7 O :   -0.042436
   8 H :    0.150539
   9 H :    0.095966
  10 H :    0.110526
  11 H :    0.090844

  Mayer bond orders larger than 0.1
B(  6-C ,  7-O ) :   0.9994 B(  6-C ,  9-H ) :   0.9756 B(  6-C , 10-H ) :   0.9743
B(  6-C , 11-H ) :   0.9795 B(  7-O ,  8-H ) :   0.9105

Dispersion correction           -0.000203717
FINAL SINGLE POINT ENERGY      -115.732417603518

DIPOLE MOMENT
-------------
                                X             Y             Z
Electronic contribution:      0.76035      -0.36295       1.65597
Nuclear contribution   :     -0.92422       0.96261      -1.96814
                        -----------------------------------------
Total Dipole Moment    :     -0.16387       0.59966      -0.31217
                        -----------------------------------------
Magnitude (a.u.)       :      0.69562
Magnitude (Debye)      :      1.76813

Rotational constants in cm-1:     4.225464     0.866798     0.833017
Rotational constants in MHz : 126676.214264 25985.940772 24973.215964

                             ****ORCA TERMINATED NORMALLY****
TOTAL RUN TIME: 0 days 0 hours 4 minutes 13 seconds 488 msec
