                         Program Version 4.1.2  - RELEASE  -
|  1> #Run DFT-D3 single point of the dimer
|  2> ! wB97X-D3 def2-TZVP TIGHTSCF CHELPG PMODEL PAL8
|  3>
|  4> %base "17-130_DFT_AB"
|  5>
|  6> %scf
|  7> MaxIter 1000
|  8> end
|  9>
| 10> * xyz 0 1
| 11>   C                      7.325339             5.251497             0.133177
| 12>   O                      6.504811             4.108082             0.081789
| 13>   H                      5.631289             4.365463             -0.281375
| 14>   H                      8.367817             5.088402             0.117534
| 15>   H                      7.009722             5.937494             -0.695289
| 16>   H                      6.979847             5.774637             1.076056
| 17>   C                      3.328778             5.216020             -0.430047
| 18>   O                      4.347338             5.363856             -1.385771
| 19>   H                      4.637568             6.277139             -1.392109
| 20>   H                      2.449465             5.800747             -0.724251
| 21>   H                      2.975368             4.180181             -0.373804
| 22>   H                      3.548815             5.555895             0.596199
| 23> *
| 24>
| 25> #Run DFT-D3 single point of the molecule with dimer basis set
| 26> $new_job
| 27> %base "17-130_DFT_A"
| 28> ! wB97X-D3 def2-TZVP TIGHTSCF CHELPG PMODEL
| 29>
| 30> %scf
| 31> MaxIter 1000
| 32> end
| 33>
| 34> * xyz 0 1
| 35>   C                      7.325339             5.251497             0.133177
| 36>   O                      6.504811             4.108082             0.081789
| 37>   H                      5.631289             4.365463             -0.281375
| 38>   H                      8.367817             5.088402             0.117534
| 39>   H                      7.009722             5.937494             -0.695289
| 40>   H                      6.979847             5.774637             1.076056
| 41>   C                    : 3.328778             5.216020             -0.430047
| 42>   O                    : 4.347338             5.363856             -1.385771
| 43>   H                    : 4.637568             6.277139             -1.392109
| 44>   H                    : 2.449465             5.800747             -0.724251
| 45>   H                    : 2.975368             4.180181             -0.373804
| 46>   H                    : 3.548815             5.555895             0.596199
| 47> *
| 48>
| 49> #Run DFT-D3 single point of the particle with dimer basis set
| 50> $new_job
| 51> %base "17-130_DFT_B"
| 52> ! wB97X-D3 def2-TZVP TIGHTSCF CHELPG PMODEL
| 53>
| 54> %scf
| 55> MaxIter 1000
| 56> end
| 57>
| 58> * xyz 0 1
| 59>   C                    : 7.325339             5.251497             0.133177
| 60>   O                    : 6.504811             4.108082             0.081789
| 61>   H                    : 5.631289             4.365463             -0.281375
| 62>   H                    : 8.367817             5.088402             0.117534
| 63>   H                    : 7.009722             5.937494             -0.695289
| 64>   H                    : 6.979847             5.774637             1.076056
| 65>   C                      3.328778             5.216020             -0.430047
| 66>   O                      4.347338             5.363856             -1.385771
| 67>   H                      4.637568             6.277139             -1.392109
| 68>   H                      2.449465             5.800747             -0.724251
| 69>   H                      2.975368             4.180181             -0.373804
| 70>   H                      3.548815             5.555895             0.596199
| 71> *
| 72>
| 73>                          ****END OF INPUT****
 Total Charge           Charge          ....    0
 Multiplicity           Mult            ....    1
 Number of Electrons    NEL             ....   36
Dispersion correction           -0.002159682
FINAL SINGLE POINT ENERGY      -231.471211479602
Dispersion correction           -0.000221473
FINAL SINGLE POINT ENERGY      -115.728760029112

CARTESIAN COORDINATES (ANGSTROEM)
---------------------------------
  C      7.325339    5.251497    0.133177
  O      6.504811    4.108082    0.081789
  H      5.631289    4.365463   -0.281375
  H      8.367817    5.088402    0.117534
  H      7.009722    5.937494   -0.695289
  H      6.979847    5.774637    1.076056
  C      3.328778    5.216020   -0.430047
  O      4.347338    5.363856   -1.385771
  H      4.637568    6.277139   -1.392109
  H      2.449465    5.800747   -0.724251
  H      2.975368    4.180181   -0.373804
  H      3.548815    5.555895    0.596199

 Multiplicity           Mult            ....    1
 Number of Electrons    NEL             ....   18
 Basis Dimension        Dim             ....  172

ORBITAL ENERGIES
----------------

  NO   OCC          E(Eh)            E(eV)
   0   2.0000     -19.233961      -523.3827
   1   2.0000     -10.313984      -280.6578
   2   2.0000      -1.140993       -31.0480
   3   2.0000      -0.796680       -21.6788
   4   2.0000      -0.617043       -16.7906
   5   2.0000      -0.536659       -14.6032
   6   2.0000      -0.530630       -14.4392
   7   2.0000      -0.435716       -11.8564
   8   2.0000      -0.373529       -10.1642
   9   0.0000       0.089886         2.4459
  10   0.0000       0.134838         3.6691
  11   0.0000       0.146782         3.9941
  12   0.0000       0.183523         4.9939
  13   0.0000       0.193512         5.2657

MULLIKEN ATOMIC CHARGES
-----------------------
   0 C :   -0.005731
   1 O :   -0.000710
   2 H :    0.007156
   3 H :   -0.001017
   4 H :   -0.006692
   5 H :    0.000621
   6 C :   -0.176846
   7 O :   -0.468926
   8 H :    0.318572
   9 H :    0.107198
  10 H :    0.124233
  11 H :    0.102142
Sum of atomic charges:   -0.0000000

LOEWDIN ATOMIC CHARGES
----------------------
   0 C :   -0.007636
   1 O :   -0.005224
   2 H :   -0.036258
   3 H :   -0.000154
   4 H :   -0.005065
   5 H :   -0.000217
   6 C :   -0.392847
   7 O :   -0.027458
   8 H :    0.171532
   9 H :    0.096120
  10 H :    0.111508
  11 H :    0.095700

  Mayer bond orders larger than 0.1
B(  6-C ,  7-O ) :   0.9933 B(  6-C ,  9-H ) :   0.9783 B(  6-C , 10-H ) :   0.9764
B(  6-C , 11-H ) :   0.9698 B(  7-O ,  8-H ) :   0.8946

Dispersion correction           -0.000248804
FINAL SINGLE POINT ENERGY      -115.736265791714

DIPOLE MOMENT
-------------
                                X             Y             Z
Electronic contribution:      1.41818       0.01597      -1.28338
Nuclear contribution   :     -1.65831       0.50266       1.64130
                        -----------------------------------------
Total Dipole Moment    :     -0.24013       0.51863       0.35792
                        -----------------------------------------
Magnitude (a.u.)       :      0.67435
Magnitude (Debye)      :      1.71405

Rotational constants in cm-1:     4.387021     0.831784     0.799196
Rotational constants in MHz : 131519.572039 24936.263509 23959.294601

                             ****ORCA TERMINATED NORMALLY****
TOTAL RUN TIME: 0 days 0 hours 1 minutes 14 seconds 189 msec
