                         Program Version 4.1.2  - RELEASE  -
|  1> #Run DFT-D3 single point of the dimer
|  2> ! wB97X-D3 def2-TZVP TIGHTSCF CHELPG PMODEL PAL8
|  3>
|  4> %base "17-181_DFT_AB"
|  5>
|  6> %scf
|  7> MaxIter 1000
|  8> end
|  9>
| 10> * xyz 0 1
| 11>   C                      0.560714             2.345337             5.928225
| 12>   O                      0.858539             3.108066             7.045610
| 13>   H                      1.736582             3.009554             7.392584
| 14>   H                      -0.467210            2.038130             5.852823
| 15>   H                      0.691862             2.842417             4.985025
| 16>   H                      1.169017             1.443859             5.860867
| 17>   C                      0.924028             6.358187             6.757414
| 18>   O                      -0.283134            5.796647             7.272671
| 19>   H                      -0.027440            4.888892             7.336648
| 20>   H                      1.716125             5.680179             6.964693
| 21>   H                      0.937912             6.474491             5.673382
| 22>   H                      1.113307             7.414383             7.211056
| 23> *
| 24>
| 25> #Run DFT-D3 single point of the molecule with dimer basis set
| 26> $new_job
| 27> %base "17-181_DFT_A"
| 28> ! wB97X-D3 def2-TZVP TIGHTSCF CHELPG PMODEL
| 29>
| 30> %scf
| 31> MaxIter 1000
| 32> end
| 33>
| 34> * xyz 0 1
| 35>   C                      0.560714             2.345337             5.928225
| 36>   O                      0.858539             3.108066             7.045610
| 37>   H                      1.736582             3.009554             7.392584
| 38>   H                      -0.467210            2.038130             5.852823
| 39>   H                      0.691862             2.842417             4.985025
| 40>   H                      1.169017             1.443859             5.860867
| 41>   C                    : 0.924028             6.358187             6.757414
| 42>   O                    : -0.283134            5.796647             7.272671
| 43>   H                    : -0.027440            4.888892             7.336648
| 44>   H                    : 1.716125             5.680179             6.964693
| 45>   H                    : 0.937912             6.474491             5.673382
| 46>   H                    : 1.113307             7.414383             7.211056
| 47> *
| 48>
| 49> #Run DFT-D3 single point of the particle with dimer basis set
| 50> $new_job
| 51> %base "17-181_DFT_B"
| 52> ! wB97X-D3 def2-TZVP TIGHTSCF CHELPG PMODEL
| 53>
| 54> %scf
| 55> MaxIter 1000
| 56> end
| 57>
| 58> * xyz 0 1
| 59>   C                    : 0.560714             2.345337             5.928225
| 60>   O                    : 0.858539             3.108066             7.045610
| 61>   H                    : 1.736582             3.009554             7.392584
| 62>   H                    : -0.467210            2.038130             5.852823
| 63>   H                    : 0.691862             2.842417             4.985025
| 64>   H                    : 1.169017             1.443859             5.860867
| 65>   C                      0.924028             6.358187             6.757414
| 66>   O                      -0.283134            5.796647             7.272671
| 67>   H                      -0.027440            4.888892             7.336648
| 68>   H                      1.716125             5.680179             6.964693
| 69>   H                      0.937912             6.474491             5.673382
| 70>   H                      1.113307             7.414383             7.211056
| 71> *
| 72>
| 73>                          ****END OF INPUT****
 Total Charge           Charge          ....    0
 Multiplicity           Mult            ....    1
 Number of Electrons    NEL             ....   36
Dispersion correction           -0.002041395
FINAL SINGLE POINT ENERGY      -231.470365156318
Dispersion correction           -0.000255660
FINAL SINGLE POINT ENERGY      -115.732385140673

CARTESIAN COORDINATES (ANGSTROEM)
---------------------------------
  C      0.560714    2.345337    5.928225
  O      0.858539    3.108066    7.045610
  H      1.736582    3.009554    7.392584
  H     -0.467210    2.038130    5.852823
  H      0.691862    2.842417    4.985025
  H      1.169017    1.443859    5.860867
  C      0.924028    6.358187    6.757414
  O     -0.283134    5.796647    7.272671
  H     -0.027440    4.888892    7.336648
  H      1.716125    5.680179    6.964693
  H      0.937912    6.474491    5.673382
  H      1.113307    7.414383    7.211056

 Multiplicity           Mult            ....    1
 Number of Electrons    NEL             ....   18
 Basis Dimension        Dim             ....  172

ORBITAL ENERGIES
----------------

  NO   OCC          E(Eh)            E(eV)
   0   2.0000     -19.232804      -523.3512
   1   2.0000     -10.318763      -280.7878
   2   2.0000      -1.142474       -31.0883
   3   2.0000      -0.791583       -21.5401
   4   2.0000      -0.615782       -16.7563
   5   2.0000      -0.537772       -14.6335
   6   2.0000      -0.521763       -14.1979
   7   2.0000      -0.445334       -12.1182
   8   2.0000      -0.374806       -10.1990
   9   0.0000       0.067285         1.8309
  10   0.0000       0.132242         3.5985
  11   0.0000       0.147601         4.0164
  12   0.0000       0.159079         4.3288
  13   0.0000       0.194847         5.3021

MULLIKEN ATOMIC CHARGES
-----------------------
   0 C :   -0.004354
   1 O :   -0.003667
   2 H :   -0.000037
   3 H :    0.000624
   4 H :    0.000397
   5 H :   -0.000173
   6 C :   -0.182157
   7 O :   -0.451037
   8 H :    0.310891
   9 H :    0.108447
  10 H :    0.105962
  11 H :    0.115104
Sum of atomic charges:    0.0000000

LOEWDIN ATOMIC CHARGES
----------------------
   0 C :   -0.004024
   1 O :   -0.016724
   2 H :   -0.001694
   3 H :   -0.000162
   4 H :   -0.000211
   5 H :   -0.000117
   6 C :   -0.379332
   7 O :   -0.067447
   8 H :    0.167110
   9 H :    0.090166
  10 H :    0.094432
  11 H :    0.118002

  Mayer bond orders larger than 0.1
B(  6-C ,  7-O ) :   1.0003 B(  6-C ,  9-H ) :   0.9880 B(  6-C , 10-H ) :   0.9677
B(  6-C , 11-H ) :   0.9749 B(  7-O ,  8-H ) :   0.9159

Dispersion correction           -0.000238028
FINAL SINGLE POINT ENERGY      -115.729218335067

DIPOLE MOMENT
-------------
                                X             Y             Z
Electronic contribution:     -1.64832      -0.61777       0.67209
Nuclear contribution   :      2.28891       0.24904      -0.83369
                        -----------------------------------------
Total Dipole Moment    :      0.64058      -0.36873      -0.16160
                        -----------------------------------------
Magnitude (a.u.)       :      0.75659
Magnitude (Debye)      :      1.92309

Rotational constants in cm-1:     4.196012     0.828780     0.789993
Rotational constants in MHz : 125793.268491 24846.198639 23683.407330

                             ****ORCA TERMINATED NORMALLY****
TOTAL RUN TIME: 0 days 0 hours 1 minutes 8 seconds 628 msec
