                         Program Version 4.1.2  - RELEASE  -
|  1> #Run DFT-D3 single point of the dimer
|  2> ! wB97X-D3 def2-TZVP TIGHTSCF CHELPG PMODEL PAL8
|  3>
|  4> %base "14-6_DFT_AB"
|  5>
|  6> %scf
|  7> MaxIter 1000
|  8> end
|  9>
| 10> * xyz 0 1
| 11>   C                      2.263257             -4.148155            5.412082
| 12>   O                      2.954997             -4.750595            6.535683
| 13>   H                      3.854224             -4.751128            6.203519
| 14>   H                      2.189910             -3.055356            5.686844
| 15>   H                      2.686634             -4.323060            4.395248
| 16>   H                      1.297417             -4.690642            5.387383
| 17>   C                      -0.478926            -1.224034            7.517796
| 18>   O                      -0.887550            -0.137277            6.675063
| 19>   H                      -0.301585            -0.075655            5.910543
| 20>   H                      -1.273776            -1.963109            7.510648
| 21>   H                      0.407688             -1.674293            7.115746
| 22>   H                      -0.179908            -0.907772            8.530023
| 23> *
| 24>
| 25> #Run DFT-D3 single point of the molecule with dimer basis set
| 26> $new_job
| 27> %base "14-6_DFT_A"
| 28> ! wB97X-D3 def2-TZVP TIGHTSCF CHELPG PMODEL
| 29>
| 30> %scf
| 31> MaxIter 1000
| 32> end
| 33>
| 34> * xyz 0 1
| 35>   C                      2.263257             -4.148155            5.412082
| 36>   O                      2.954997             -4.750595            6.535683
| 37>   H                      3.854224             -4.751128            6.203519
| 38>   H                      2.189910             -3.055356            5.686844
| 39>   H                      2.686634             -4.323060            4.395248
| 40>   H                      1.297417             -4.690642            5.387383
| 41>   C                    : -0.478926            -1.224034            7.517796
| 42>   O                    : -0.887550            -0.137277            6.675063
| 43>   H                    : -0.301585            -0.075655            5.910543
| 44>   H                    : -1.273776            -1.963109            7.510648
| 45>   H                    : 0.407688             -1.674293            7.115746
| 46>   H                    : -0.179908            -0.907772            8.530023
| 47> *
| 48>
| 49> #Run DFT-D3 single point of the particle with dimer basis set
| 50> $new_job
| 51> %base "14-6_DFT_B"
| 52> ! wB97X-D3 def2-TZVP TIGHTSCF CHELPG PMODEL
| 53>
| 54> %scf
| 55> MaxIter 1000
| 56> end
| 57>
| 58> * xyz 0 1
| 59>   C                    : 2.263257             -4.148155            5.412082
| 60>   O                    : 2.954997             -4.750595            6.535683
| 61>   H                    : 3.854224             -4.751128            6.203519
| 62>   H                    : 2.189910             -3.055356            5.686844
| 63>   H                    : 2.686634             -4.323060            4.395248
| 64>   H                    : 1.297417             -4.690642            5.387383
| 65>   C                      -0.478926            -1.224034            7.517796
| 66>   O                      -0.887550            -0.137277            6.675063
| 67>   H                      -0.301585            -0.075655            5.910543
| 68>   H                      -1.273776            -1.963109            7.510648
| 69>   H                      0.407688             -1.674293            7.115746
| 70>   H                      -0.179908            -0.907772            8.530023
| 71> *
| 72>
| 73>                          ****END OF INPUT****
 Total Charge           Charge          ....    0
 Multiplicity           Mult            ....    1
 Number of Electrons    NEL             ....   36
Dispersion correction           -0.001098627
FINAL SINGLE POINT ENERGY      -231.462458587582
Dispersion correction           -0.000245725
FINAL SINGLE POINT ENERGY      -115.728417337461

CARTESIAN COORDINATES (ANGSTROEM)
---------------------------------
  C      2.263257   -4.148155    5.412082
  O      2.954997   -4.750595    6.535683
  H      3.854224   -4.751128    6.203519
  H      2.189910   -3.055356    5.686844
  H      2.686634   -4.323060    4.395248
  H      1.297417   -4.690642    5.387383
  C     -0.478926   -1.224034    7.517796
  O     -0.887550   -0.137277    6.675063
  H     -0.301585   -0.075655    5.910543
  H     -1.273776   -1.963109    7.510648
  H      0.407688   -1.674293    7.115746
  H     -0.179908   -0.907772    8.530023

 Multiplicity           Mult            ....    1
 Number of Electrons    NEL             ....   18
 Basis Dimension        Dim             ....  172

ORBITAL ENERGIES
----------------

  NO   OCC          E(Eh)            E(eV)
   0   2.0000     -19.227050      -523.1946
   1   2.0000     -10.313193      -280.6363
   2   2.0000      -1.126467       -30.6527
   3   2.0000      -0.797486       -21.7007
   4   2.0000      -0.608753       -16.5650
   5   2.0000      -0.543867       -14.7994
   6   2.0000      -0.522356       -14.2140
   7   2.0000      -0.429005       -11.6738
   8   2.0000      -0.374544       -10.1919
   9   0.0000       0.078646         2.1401
  10   0.0000       0.115398         3.1401
  11   0.0000       0.150591         4.0978
  12   0.0000       0.168886         4.5956
  13   0.0000       0.181794         4.9469

MULLIKEN ATOMIC CHARGES
-----------------------
   0 C :   -0.000798
   1 O :    0.000064
   2 H :    0.000011
   3 H :    0.001029
   4 H :   -0.000001
   5 H :   -0.000078
   6 C :   -0.148990
   7 O :   -0.486363
   8 H :    0.316943
   9 H :    0.112847
  10 H :    0.099451
  11 H :    0.105885
Sum of atomic charges:    0.0000000

LOEWDIN ATOMIC CHARGES
----------------------
   0 C :   -0.001394
   1 O :   -0.000005
   2 H :   -0.000001
   3 H :   -0.001981
   4 H :   -0.000012
   5 H :   -0.000090
   6 C :   -0.362572
   7 O :   -0.098989
   8 H :    0.169277
   9 H :    0.100189
  10 H :    0.093431
  11 H :    0.102146

  Mayer bond orders larger than 0.1
B(  6-C ,  7-O ) :   1.0061 B(  6-C ,  9-H ) :   0.9792 B(  6-C , 10-H ) :   0.9899
B(  6-C , 11-H ) :   0.9696 B(  7-O ,  8-H ) :   0.8995

Dispersion correction           -0.000250938
FINAL SINGLE POINT ENERGY      -115.733530968399

DIPOLE MOMENT
-------------
                                X             Y             Z
Electronic contribution:     -0.64706       1.38233      -0.91505
Nuclear contribution   :      1.22831      -1.80264       0.74973
                        -----------------------------------------
Total Dipole Moment    :      0.58125      -0.42030      -0.16532
                        -----------------------------------------
Magnitude (a.u.)       :      0.73610
Magnitude (Debye)      :      1.87101

Rotational constants in cm-1:     4.332316     0.808551     0.788552
Rotational constants in MHz : 129879.562664 24239.749045 23640.206746

                             ****ORCA TERMINATED NORMALLY****
TOTAL RUN TIME: 0 days 0 hours 0 minutes 52 seconds 602 msec
