                         Program Version 4.1.2  - RELEASE  -
|  1> #Run DFT-D3 single point of the dimer
|  2> ! wB97X-D3 def2-TZVP TIGHTSCF CHELPG PMODEL PAL8
|  3>
|  4> %base "1-23_DFT_AB"
|  5>
|  6> %scf
|  7> MaxIter 1000
|  8> end
|  9>
| 10> * xyz 0 1
| 11>   C                      -2.881200            5.269052             1.066537
| 12>   O                      -2.445104            4.075524             0.341486
| 13>   H                      -2.756895            4.205874             -0.534556
| 14>   H                      -3.832270            5.165989             1.402556
| 15>   H                      -2.191036            5.618454             1.900053
| 16>   H                      -2.957396            6.094008             0.292697
| 17>   C                      -1.583089            3.679909             6.660968
| 18>   O                      -0.254133            3.169443             6.910270
| 19>   H                      0.284704             3.991523             7.033717
| 20>   H                      -2.256427            2.861545             6.519312
| 21>   H                      -1.990052            4.306250             7.423567
| 22>   H                      -1.570682            4.192405             5.731349
| 23> *
| 24>
| 25> #Run DFT-D3 single point of the molecule with dimer basis set
| 26> $new_job
| 27> %base "1-23_DFT_A"
| 28> ! wB97X-D3 def2-TZVP TIGHTSCF CHELPG PMODEL
| 29>
| 30> %scf
| 31> MaxIter 1000
| 32> end
| 33>
| 34> * xyz 0 1
| 35>   C                      -2.881200            5.269052             1.066537
| 36>   O                      -2.445104            4.075524             0.341486
| 37>   H                      -2.756895            4.205874             -0.534556
| 38>   H                      -3.832270            5.165989             1.402556
| 39>   H                      -2.191036            5.618454             1.900053
| 40>   H                      -2.957396            6.094008             0.292697
| 41>   C                    : -1.583089            3.679909             6.660968
| 42>   O                    : -0.254133            3.169443             6.910270
| 43>   H                    : 0.284704             3.991523             7.033717
| 44>   H                    : -2.256427            2.861545             6.519312
| 45>   H                    : -1.990052            4.306250             7.423567
| 46>   H                    : -1.570682            4.192405             5.731349
| 47> *
| 48>
| 49> #Run DFT-D3 single point of the particle with dimer basis set
| 50> $new_job
| 51> %base "1-23_DFT_B"
| 52> ! wB97X-D3 def2-TZVP TIGHTSCF CHELPG PMODEL
| 53>
| 54> %scf
| 55> MaxIter 1000
| 56> end
| 57>
| 58> * xyz 0 1
| 59>   C                    : -2.881200            5.269052             1.066537
| 60>   O                    : -2.445104            4.075524             0.341486
| 61>   H                    : -2.756895            4.205874             -0.534556
| 62>   H                    : -3.832270            5.165989             1.402556
| 63>   H                    : -2.191036            5.618454             1.900053
| 64>   H                    : -2.957396            6.094008             0.292697
| 65>   C                      -1.583089            3.679909             6.660968
| 66>   O                      -0.254133            3.169443             6.910270
| 67>   H                      0.284704             3.991523             7.033717
| 68>   H                      -2.256427            2.861545             6.519312
| 69>   H                      -1.990052            4.306250             7.423567
| 70>   H                      -1.570682            4.192405             5.731349
| 71> *
| 72>
| 73>                          ****END OF INPUT****
 Total Charge           Charge          ....    0
 Multiplicity           Mult            ....    1
 Number of Electrons    NEL             ....   36
Dispersion correction           -0.000590662
FINAL SINGLE POINT ENERGY      -231.457244989805
Dispersion correction           -0.000244874
FINAL SINGLE POINT ENERGY      -115.724499745820

CARTESIAN COORDINATES (ANGSTROEM)
---------------------------------
  C     -2.881200    5.269052    1.066537
  O     -2.445104    4.075524    0.341486
  H     -2.756895    4.205874   -0.534556
  H     -3.832270    5.165989    1.402556
  H     -2.191036    5.618454    1.900053
  H     -2.957396    6.094008    0.292697
  C     -1.583089    3.679909    6.660968
  O     -0.254133    3.169443    6.910270
  H      0.284704    3.991523    7.033717
  H     -2.256427    2.861545    6.519312
  H     -1.990052    4.306250    7.423567
  H     -1.570682    4.192405    5.731349

 Multiplicity           Mult            ....    1
 Number of Electrons    NEL             ....   18
 Basis Dimension        Dim             ....  172

ORBITAL ENERGIES
----------------

  NO   OCC          E(Eh)            E(eV)
   0   2.0000     -19.233067      -523.3584
   1   2.0000     -10.305320      -280.4220
   2   2.0000      -1.123061       -30.5600
   3   2.0000      -0.799805       -21.7638
   4   2.0000      -0.600720       -16.3464
   5   2.0000      -0.546094       -14.8600
   6   2.0000      -0.522264       -14.2115
   7   2.0000      -0.440529       -11.9874
   8   2.0000      -0.375359       -10.2140
   9   0.0000       0.084417         2.2971
  10   0.0000       0.112983         3.0744
  11   0.0000       0.146293         3.9808
  12   0.0000       0.166906         4.5417
  13   0.0000       0.186707         5.0806

MULLIKEN ATOMIC CHARGES
-----------------------
   0 C :    0.000017
   1 O :    0.000000
   2 H :   -0.000000
   3 H :   -0.000002
   4 H :   -0.000087
   5 H :   -0.000003
   6 C :   -0.178262
   7 O :   -0.475651
   8 H :    0.313636
   9 H :    0.118535
  10 H :    0.110742
  11 H :    0.111075
Sum of atomic charges:    0.0000000

LOEWDIN ATOMIC CHARGES
----------------------
   0 C :   -0.000029
   1 O :   -0.000000
   2 H :   -0.000000
   3 H :   -0.000001
   4 H :   -0.000061
   5 H :   -0.000000
   6 C :   -0.360747
   7 O :   -0.111279
   8 H :    0.185345
   9 H :    0.104414
  10 H :    0.090828
  11 H :    0.091530

  Mayer bond orders larger than 0.1
B(  6-C ,  7-O ) :   0.9982 B(  6-C ,  9-H ) :   0.9753 B(  6-C , 10-H ) :   0.9702
B(  6-C , 11-H ) :   0.9825 B(  7-O ,  8-H ) :   0.9002

Dispersion correction           -0.000233389
FINAL SINGLE POINT ENERGY      -115.732844426656

DIPOLE MOMENT
-------------
                                X             Y             Z
Electronic contribution:      1.59391      -0.76744       0.37356
Nuclear contribution   :     -1.82468       1.47081      -0.41277
                        -----------------------------------------
Total Dipole Moment    :     -0.23078       0.70337      -0.03921
                        -----------------------------------------
Magnitude (a.u.)       :      0.74130
Magnitude (Debye)      :      1.88424

Rotational constants in cm-1:     4.387907     0.809876     0.780358
Rotational constants in MHz : 131546.154271 24279.470371 23394.553126

                             ****ORCA TERMINATED NORMALLY****
TOTAL RUN TIME: 0 days 0 hours 4 minutes 1 seconds 49 msec
