                         Program Version 4.1.2  - RELEASE  -
|  1> #Run DFT-D3 single point of the dimer
|  2> ! wB97X-D3 def2-TZVP TIGHTSCF CHELPG PMODEL PAL8
|  3>
|  4> %base "19-180_DFT_AB"
|  5>
|  6> %scf
|  7> MaxIter 1000
|  8> end
|  9>
| 10> * xyz 0 1
| 11>   C                      2.150202             -4.868944            5.313812
| 12>   O                      1.539903             -3.847500            6.025287
| 13>   H                      1.102995             -3.372393            5.293624
| 14>   H                      2.596078             -5.698066            5.913052
| 15>   H                      1.498631             -5.241180            4.529990
| 16>   H                      2.939477             -4.406176            4.686918
| 17>   C                      2.254314             -3.277744            9.060280
| 18>   O                      1.640389             -4.540750            8.796992
| 19>   H                      1.402713             -4.529007            7.885413
| 20>   H                      2.992467             -3.018373            8.293263
| 21>   H                      1.466970             -2.474905            9.159412
| 22>   H                      2.721805             -3.280190            10.014671
| 23> *
| 24>
| 25> #Run DFT-D3 single point of the molecule with dimer basis set
| 26> $new_job
| 27> %base "19-180_DFT_A"
| 28> ! wB97X-D3 def2-TZVP TIGHTSCF CHELPG PMODEL
| 29>
| 30> %scf
| 31> MaxIter 1000
| 32> end
| 33>
| 34> * xyz 0 1
| 35>   C                      2.150202             -4.868944            5.313812
| 36>   O                      1.539903             -3.847500            6.025287
| 37>   H                      1.102995             -3.372393            5.293624
| 38>   H                      2.596078             -5.698066            5.913052
| 39>   H                      1.498631             -5.241180            4.529990
| 40>   H                      2.939477             -4.406176            4.686918
| 41>   C                    : 2.254314             -3.277744            9.060280
| 42>   O                    : 1.640389             -4.540750            8.796992
| 43>   H                    : 1.402713             -4.529007            7.885413
| 44>   H                    : 2.992467             -3.018373            8.293263
| 45>   H                    : 1.466970             -2.474905            9.159412
| 46>   H                    : 2.721805             -3.280190            10.014671
| 47> *
| 48>
| 49> #Run DFT-D3 single point of the particle with dimer basis set
| 50> $new_job
| 51> %base "19-180_DFT_B"
| 52> ! wB97X-D3 def2-TZVP TIGHTSCF CHELPG PMODEL
| 53>
| 54> %scf
| 55> MaxIter 1000
| 56> end
| 57>
| 58> * xyz 0 1
| 59>   C                    : 2.150202             -4.868944            5.313812
| 60>   O                    : 1.539903             -3.847500            6.025287
| 61>   H                    : 1.102995             -3.372393            5.293624
| 62>   H                    : 2.596078             -5.698066            5.913052
| 63>   H                    : 1.498631             -5.241180            4.529990
| 64>   H                    : 2.939477             -4.406176            4.686918
| 65>   C                      2.254314             -3.277744            9.060280
| 66>   O                      1.640389             -4.540750            8.796992
| 67>   H                      1.402713             -4.529007            7.885413
| 68>   H                      2.992467             -3.018373            8.293263
| 69>   H                      1.466970             -2.474905            9.159412
| 70>   H                      2.721805             -3.280190            10.014671
| 71> *
| 72>
| 73>                          ****END OF INPUT****
 Total Charge           Charge          ....    0
 Multiplicity           Mult            ....    1
 Number of Electrons    NEL             ....   36
Dispersion correction           -0.001965623
FINAL SINGLE POINT ENERGY      -231.470509978380
Dispersion correction           -0.000203334
FINAL SINGLE POINT ENERGY      -115.728306183785

CARTESIAN COORDINATES (ANGSTROEM)
---------------------------------
  C      2.150202   -4.868944    5.313812
  O      1.539903   -3.847500    6.025287
  H      1.102995   -3.372393    5.293624
  H      2.596078   -5.698066    5.913052
  H      1.498631   -5.241180    4.529990
  H      2.939477   -4.406176    4.686918
  C      2.254314   -3.277744    9.060280
  O      1.640389   -4.540750    8.796992
  H      1.402713   -4.529007    7.885413
  H      2.992467   -3.018373    8.293263
  H      1.466970   -2.474905    9.159412
  H      2.721805   -3.280190   10.014671

 Multiplicity           Mult            ....    1
 Number of Electrons    NEL             ....   18
 Basis Dimension        Dim             ....  172

ORBITAL ENERGIES
----------------

  NO   OCC          E(Eh)            E(eV)
   0   2.0000     -19.230355      -523.2846
   1   2.0000     -10.315375      -280.6956
   2   2.0000      -1.137274       -30.9468
   3   2.0000      -0.797612       -21.7041
   4   2.0000      -0.608110       -16.5475
   5   2.0000      -0.540781       -14.7154
   6   2.0000      -0.529783       -14.4161
   7   2.0000      -0.438442       -11.9306
   8   2.0000      -0.374737       -10.1971
   9   0.0000       0.069921         1.9026
  10   0.0000       0.137933         3.7534
  11   0.0000       0.152442         4.1482
  12   0.0000       0.161746         4.4013
  13   0.0000       0.184606         5.0234

MULLIKEN ATOMIC CHARGES
-----------------------
   0 C :   -0.001743
   1 O :   -0.005023
   2 H :   -0.000272
   3 H :   -0.002948
   4 H :   -0.000030
   5 H :   -0.000055
   6 C :   -0.173945
   7 O :   -0.467833
   8 H :    0.314741
   9 H :    0.109603
  10 H :    0.100790
  11 H :    0.126715
Sum of atomic charges:    0.0000000

LOEWDIN ATOMIC CHARGES
----------------------
   0 C :   -0.006876
   1 O :   -0.017886
   2 H :   -0.000626
   3 H :   -0.002082
   4 H :   -0.000088
   5 H :   -0.000092
   6 C :   -0.371284
   7 O :   -0.064753
   8 H :    0.163061
   9 H :    0.097646
  10 H :    0.102000
  11 H :    0.100980

  Mayer bond orders larger than 0.1
B(  6-C ,  7-O ) :   0.9911 B(  6-C ,  9-H ) :   0.9736 B(  6-C , 10-H ) :   0.9796
B(  6-C , 11-H ) :   0.9745 B(  7-O ,  8-H ) :   0.9112

Dispersion correction           -0.000242124
FINAL SINGLE POINT ENERGY      -115.735334838689

DIPOLE MOMENT
-------------
                                X             Y             Z
Electronic contribution:     -0.67514      -1.69496      -0.20548
Nuclear contribution   :      0.79065       2.20028      -0.23676
                        -----------------------------------------
Total Dipole Moment    :      0.11551       0.50531      -0.44224
                        -----------------------------------------
Magnitude (a.u.)       :      0.68137
Magnitude (Debye)      :      1.73190

Rotational constants in cm-1:     4.293434     0.816930     0.793186
Rotational constants in MHz : 128713.917926 24490.950972 23779.106740

                             ****ORCA TERMINATED NORMALLY****
TOTAL RUN TIME: 0 days 0 hours 1 minutes 42 seconds 146 msec
