                         Program Version 4.1.2  - RELEASE  -
|  1> #Run DFT-D3 single point of the dimer
|  2> ! wB97X-D3 def2-TZVP TIGHTSCF CHELPG PMODEL PAL8
|  3>
|  4> %base "11-1_DFT_AB"
|  5>
|  6> %scf
|  7> MaxIter 1000
|  8> end
|  9>
| 10> * xyz 0 1
| 11>   C                      -2.148013            2.129847             1.911966
| 12>   O                      -0.703100            2.202816             2.039990
| 13>   H                      -0.327344            2.930984             1.522731
| 14>   H                      -2.414317            2.238284             0.914172
| 15>   H                      -2.582117            1.155431             2.198879
| 16>   H                      -2.594961            2.946416             2.554262
| 17>   C                      -3.148170            5.526536             0.250592
| 18>   O                      -4.122243            6.461500             0.653780
| 19>   H                      -4.972779            6.142392             0.328687
| 20>   H                      -2.964292            5.774731             -0.804132
| 21>   H                      -2.171916            5.713092             0.804986
| 22>   H                      -3.408570            4.525718             0.398298
| 23> *
| 24>
| 25> #Run DFT-D3 single point of the molecule with dimer basis set
| 26> $new_job
| 27> %base "11-1_DFT_A"
| 28> ! wB97X-D3 def2-TZVP TIGHTSCF CHELPG PMODEL
| 29>
| 30> %scf
| 31> MaxIter 1000
| 32> end
| 33>
| 34> * xyz 0 1
| 35>   C                      -2.148013            2.129847             1.911966
| 36>   O                      -0.703100            2.202816             2.039990
| 37>   H                      -0.327344            2.930984             1.522731
| 38>   H                      -2.414317            2.238284             0.914172
| 39>   H                      -2.582117            1.155431             2.198879
| 40>   H                      -2.594961            2.946416             2.554262
| 41>   C                    : -3.148170            5.526536             0.250592
| 42>   O                    : -4.122243            6.461500             0.653780
| 43>   H                    : -4.972779            6.142392             0.328687
| 44>   H                    : -2.964292            5.774731             -0.804132
| 45>   H                    : -2.171916            5.713092             0.804986
| 46>   H                    : -3.408570            4.525718             0.398298
| 47> *
| 48>
| 49> #Run DFT-D3 single point of the particle with dimer basis set
| 50> $new_job
| 51> %base "11-1_DFT_B"
| 52> ! wB97X-D3 def2-TZVP TIGHTSCF CHELPG PMODEL
| 53>
| 54> %scf
| 55> MaxIter 1000
| 56> end
| 57>
| 58> * xyz 0 1
| 59>   C                    : -2.148013            2.129847             1.911966
| 60>   O                    : -0.703100            2.202816             2.039990
| 61>   H                    : -0.327344            2.930984             1.522731
| 62>   H                    : -2.414317            2.238284             0.914172
| 63>   H                    : -2.582117            1.155431             2.198879
| 64>   H                    : -2.594961            2.946416             2.554262
| 65>   C                      -3.148170            5.526536             0.250592
| 66>   O                      -4.122243            6.461500             0.653780
| 67>   H                      -4.972779            6.142392             0.328687
| 68>   H                      -2.964292            5.774731             -0.804132
| 69>   H                      -2.171916            5.713092             0.804986
| 70>   H                      -3.408570            4.525718             0.398298
| 71> *
| 72>
| 73>                          ****END OF INPUT****
 Total Charge           Charge          ....    0
 Multiplicity           Mult            ....    1
 Number of Electrons    NEL             ....   36
Dispersion correction           -0.001539368
FINAL SINGLE POINT ENERGY      -231.462074036268
Dispersion correction           -0.000260017
FINAL SINGLE POINT ENERGY      -115.729976685226

CARTESIAN COORDINATES (ANGSTROEM)
---------------------------------
  C     -2.148013    2.129847    1.911966
  O     -0.703100    2.202816    2.039990
  H     -0.327344    2.930984    1.522731
  H     -2.414317    2.238284    0.914172
  H     -2.582117    1.155431    2.198879
  H     -2.594961    2.946416    2.554262
  C     -3.148170    5.526536    0.250592
  O     -4.122243    6.461500    0.653780
  H     -4.972779    6.142392    0.328687
  H     -2.964292    5.774731   -0.804132
  H     -2.171916    5.713092    0.804986
  H     -3.408570    4.525718    0.398298

 Multiplicity           Mult            ....    1
 Number of Electrons    NEL             ....   18
 Basis Dimension        Dim             ....  172

ORBITAL ENERGIES
----------------

  NO   OCC          E(Eh)            E(eV)
   0   2.0000     -19.228259      -523.2275
   1   2.0000     -10.311644      -280.5941
   2   2.0000      -1.136736       -30.9322
   3   2.0000      -0.793372       -21.5887
   4   2.0000      -0.611692       -16.6450
   5   2.0000      -0.548635       -14.9291
   6   2.0000      -0.522532       -14.2188
   7   2.0000      -0.432665       -11.7734
   8   2.0000      -0.370583       -10.0841
   9   0.0000       0.083101         2.2613
  10   0.0000       0.116847         3.1796
  11   0.0000       0.151546         4.1238
  12   0.0000       0.169886         4.6228
  13   0.0000       0.181123         4.9286

MULLIKEN ATOMIC CHARGES
-----------------------
   0 C :   -0.003716
   1 O :    0.000327
   2 H :   -0.000010
   3 H :   -0.000408
   4 H :   -0.000174
   5 H :    0.001689
   6 C :   -0.159253
   7 O :   -0.475890
   8 H :    0.314098
   9 H :    0.101646
  10 H :    0.111497
  11 H :    0.110193
Sum of atomic charges:   -0.0000000

LOEWDIN ATOMIC CHARGES
----------------------
   0 C :   -0.004494
   1 O :   -0.000023
   2 H :   -0.000260
   3 H :   -0.002508
   4 H :   -0.000034
   5 H :   -0.000888
   6 C :   -0.386001
   7 O :   -0.078642
   8 H :    0.171548
   9 H :    0.098525
  10 H :    0.118076
  11 H :    0.084702

  Mayer bond orders larger than 0.1
B(  6-C ,  7-O ) :   0.9901 B(  6-C ,  9-H ) :   0.9835 B(  6-C , 10-H ) :   0.9708
B(  6-C , 11-H ) :   0.9750 B(  7-O ,  8-H ) :   0.8985

Dispersion correction           -0.000224914
FINAL SINGLE POINT ENERGY      -115.731645560077

DIPOLE MOMENT
-------------
                                X             Y             Z
Electronic contribution:     -1.22117       1.12360       0.62355
Nuclear contribution   :      1.05990      -1.70418      -0.97752
                        -----------------------------------------
Total Dipole Moment    :     -0.16127      -0.58058      -0.35396
                        -----------------------------------------
Magnitude (a.u.)       :      0.69883
Magnitude (Debye)      :      1.77629

Rotational constants in cm-1:     4.250579     0.840642     0.811167
Rotational constants in MHz : 127429.148061 25201.815020 24318.184337

                             ****ORCA TERMINATED NORMALLY****
TOTAL RUN TIME: 0 days 0 hours 1 minutes 8 seconds 562 msec
