                         Program Version 4.1.2  - RELEASE  -
|  1> #Run DFT-D3 single point of the dimer
|  2> ! wB97X-D3 def2-TZVP TIGHTSCF CHELPG PMODEL PAL8
|  3>
|  4> %base "8-3_DFT_AB"
|  5>
|  6> %scf
|  7> MaxIter 1000
|  8> end
|  9>
| 10> * xyz 0 1
| 11>   C                      3.233414             -3.571402            3.480505
| 12>   O                      2.255676             -2.570167            3.219103
| 13>   H                      1.566001             -2.787145            3.844910
| 14>   H                      2.766447             -4.558397            3.518261
| 15>   H                      4.083400             -3.498807            2.869667
| 16>   H                      3.649298             -3.340378            4.517966
| 17>   C                      3.227038             0.299315             2.583247
| 18>   O                      2.666419             0.055697             1.319139
| 19>   H                      2.532418             -0.879725            1.086573
| 20>   H                      4.019190             -0.355166            2.838296
| 21>   H                      3.630524             1.336282             2.668777
| 22>   H                      2.489073             0.331264             3.443880
| 23> *
| 24>
| 25> #Run DFT-D3 single point of the molecule with dimer basis set
| 26> $new_job
| 27> %base "8-3_DFT_A"
| 28> ! wB97X-D3 def2-TZVP TIGHTSCF CHELPG PMODEL
| 29>
| 30> %scf
| 31> MaxIter 1000
| 32> end
| 33>
| 34> * xyz 0 1
| 35>   C                      3.233414             -3.571402            3.480505
| 36>   O                      2.255676             -2.570167            3.219103
| 37>   H                      1.566001             -2.787145            3.844910
| 38>   H                      2.766447             -4.558397            3.518261
| 39>   H                      4.083400             -3.498807            2.869667
| 40>   H                      3.649298             -3.340378            4.517966
| 41>   C                    : 3.227038             0.299315             2.583247
| 42>   O                    : 2.666419             0.055697             1.319139
| 43>   H                    : 2.532418             -0.879725            1.086573
| 44>   H                    : 4.019190             -0.355166            2.838296
| 45>   H                    : 3.630524             1.336282             2.668777
| 46>   H                    : 2.489073             0.331264             3.443880
| 47> *
| 48>
| 49> #Run DFT-D3 single point of the particle with dimer basis set
| 50> $new_job
| 51> %base "8-3_DFT_B"
| 52> ! wB97X-D3 def2-TZVP TIGHTSCF CHELPG PMODEL
| 53>
| 54> %scf
| 55> MaxIter 1000
| 56> end
| 57>
| 58> * xyz 0 1
| 59>   C                    : 3.233414             -3.571402            3.480505
| 60>   O                    : 2.255676             -2.570167            3.219103
| 61>   H                    : 1.566001             -2.787145            3.844910
| 62>   H                    : 2.766447             -4.558397            3.518261
| 63>   H                    : 4.083400             -3.498807            2.869667
| 64>   H                    : 3.649298             -3.340378            4.517966
| 65>   C                      3.227038             0.299315             2.583247
| 66>   O                      2.666419             0.055697             1.319139
| 67>   H                      2.532418             -0.879725            1.086573
| 68>   H                      4.019190             -0.355166            2.838296
| 69>   H                      3.630524             1.336282             2.668777
| 70>   H                      2.489073             0.331264             3.443880
| 71> *
| 72>
| 73>                          ****END OF INPUT****
 Total Charge           Charge          ....    0
 Multiplicity           Mult            ....    1
 Number of Electrons    NEL             ....   36
Dispersion correction           -0.002098676
FINAL SINGLE POINT ENERGY      -231.465324146255
Dispersion correction           -0.000215901
FINAL SINGLE POINT ENERGY      -115.730996590970

CARTESIAN COORDINATES (ANGSTROEM)
---------------------------------
  C      3.233414   -3.571402    3.480505
  O      2.255676   -2.570167    3.219103
  H      1.566001   -2.787145    3.844910
  H      2.766447   -4.558397    3.518261
  H      4.083400   -3.498807    2.869667
  H      3.649298   -3.340378    4.517966
  C      3.227038    0.299315    2.583247
  O      2.666419    0.055697    1.319139
  H      2.532418   -0.879725    1.086573
  H      4.019190   -0.355166    2.838296
  H      3.630524    1.336282    2.668777
  H      2.489073    0.331264    3.443880

 Multiplicity           Mult            ....    1
 Number of Electrons    NEL             ....   18
 Basis Dimension        Dim             ....  172

ORBITAL ENERGIES
----------------

  NO   OCC          E(Eh)            E(eV)
   0   2.0000     -19.232571      -523.3449
   1   2.0000     -10.315674      -280.7038
   2   2.0000      -1.133265       -30.8377
   3   2.0000      -0.797839       -21.7103
   4   2.0000      -0.616841       -16.7851
   5   2.0000      -0.541752       -14.7418
   6   2.0000      -0.522440       -14.2163
   7   2.0000      -0.423984       -11.5372
   8   2.0000      -0.372107       -10.1256
   9   0.0000       0.072442         1.9712
  10   0.0000       0.125815         3.4236
  11   0.0000       0.147074         4.0021
  12   0.0000       0.154977         4.2171
  13   0.0000       0.195257         5.3132

MULLIKEN ATOMIC CHARGES
-----------------------
   0 C :    0.000255
   1 O :   -0.000666
   2 H :   -0.000162
   3 H :    0.000000
   4 H :   -0.000009
   5 H :   -0.000284
   6 C :   -0.161982
   7 O :   -0.487344
   8 H :    0.323106
   9 H :    0.111540
  10 H :    0.123180
  11 H :    0.092365
Sum of atomic charges:    0.0000000

LOEWDIN ATOMIC CHARGES
----------------------
   0 C :   -0.002297
   1 O :   -0.006038
   2 H :   -0.000468
   3 H :   -0.000019
   4 H :   -0.000317
   5 H :   -0.000149
   6 C :   -0.397100
   7 O :   -0.071919
   8 H :    0.176247
   9 H :    0.088055
  10 H :    0.113713
  11 H :    0.100292

  Mayer bond orders larger than 0.1
B(  6-C ,  7-O ) :   1.0028 B(  6-C ,  9-H ) :   0.9784 B(  6-C , 10-H ) :   0.9708
B(  6-C , 11-H ) :   0.9764 B(  7-O ,  8-H ) :   0.8899

Dispersion correction           -0.000278452
FINAL SINGLE POINT ENERGY      -115.731130732136

DIPOLE MOMENT
-------------
                                X             Y             Z
Electronic contribution:     -0.68634      -0.33864      -1.77372
Nuclear contribution   :      0.85211      -0.17203       2.11712
                        -----------------------------------------
Total Dipole Moment    :      0.16577      -0.51067       0.34340
                        -----------------------------------------
Magnitude (a.u.)       :      0.63733
Magnitude (Debye)      :      1.61995

Rotational constants in cm-1:     4.491271     0.814365     0.789673
Rotational constants in MHz : 134644.902491 24414.057547 23673.789803

                             ****ORCA TERMINATED NORMALLY****
TOTAL RUN TIME: 0 days 0 hours 0 minutes 46 seconds 833 msec
