                         Program Version 4.1.2  - RELEASE  -
|  1> #Run DFT-D3 single point of the dimer
|  2> ! wB97X-D3 def2-TZVP TIGHTSCF CHELPG PMODEL PAL8
|  3>
|  4> %base "20-8_DFT_AB"
|  5>
|  6> %scf
|  7> MaxIter 1000
|  8> end
|  9>
| 10> * xyz 0 1
| 11>   C                      -4.029221            8.344015             5.610913
| 12>   O                      -2.999871            7.977746             4.667712
| 13>   H                      -3.310125            8.320182             3.789893
| 14>   H                      -3.622109            8.473960             6.626864
| 15>   H                      -4.597087            9.250479             5.314208
| 16>   H                      -4.851451            7.575020             5.727861
| 17>   C                      -1.848234            6.513734             9.012824
| 18>   O                      -0.708035            5.646262             9.112648
| 19>   H                      -0.282645            5.869293             9.942857
| 20>   H                      -2.623279            6.228417             8.297152
| 21>   H                      -2.358376            6.553106             10.032803
| 22>   H                      -1.550898            7.542060             8.799035
| 23> *
| 24>
| 25> #Run DFT-D3 single point of the molecule with dimer basis set
| 26> $new_job
| 27> %base "20-8_DFT_A"
| 28> ! wB97X-D3 def2-TZVP TIGHTSCF CHELPG PMODEL
| 29>
| 30> %scf
| 31> MaxIter 1000
| 32> end
| 33>
| 34> * xyz 0 1
| 35>   C                      -4.029221            8.344015             5.610913
| 36>   O                      -2.999871            7.977746             4.667712
| 37>   H                      -3.310125            8.320182             3.789893
| 38>   H                      -3.622109            8.473960             6.626864
| 39>   H                      -4.597087            9.250479             5.314208
| 40>   H                      -4.851451            7.575020             5.727861
| 41>   C                    : -1.848234            6.513734             9.012824
| 42>   O                    : -0.708035            5.646262             9.112648
| 43>   H                    : -0.282645            5.869293             9.942857
| 44>   H                    : -2.623279            6.228417             8.297152
| 45>   H                    : -2.358376            6.553106             10.032803
| 46>   H                    : -1.550898            7.542060             8.799035
| 47> *
| 48>
| 49> #Run DFT-D3 single point of the particle with dimer basis set
| 50> $new_job
| 51> %base "20-8_DFT_B"
| 52> ! wB97X-D3 def2-TZVP TIGHTSCF CHELPG PMODEL
| 53>
| 54> %scf
| 55> MaxIter 1000
| 56> end
| 57>
| 58> * xyz 0 1
| 59>   C                    : -4.029221            8.344015             5.610913
| 60>   O                    : -2.999871            7.977746             4.667712
| 61>   H                    : -3.310125            8.320182             3.789893
| 62>   H                    : -3.622109            8.473960             6.626864
| 63>   H                    : -4.597087            9.250479             5.314208
| 64>   H                    : -4.851451            7.575020             5.727861
| 65>   C                      -1.848234            6.513734             9.012824
| 66>   O                      -0.708035            5.646262             9.112648
| 67>   H                      -0.282645            5.869293             9.942857
| 68>   H                      -2.623279            6.228417             8.297152
| 69>   H                      -2.358376            6.553106             10.032803
| 70>   H                      -1.550898            7.542060             8.799035
| 71> *
| 72>
| 73>                          ****END OF INPUT****
 Total Charge           Charge          ....    0
 Multiplicity           Mult            ....    1
 Number of Electrons    NEL             ....   36
Dispersion correction           -0.001148970
FINAL SINGLE POINT ENERGY      -231.464720446700
Dispersion correction           -0.000277109
FINAL SINGLE POINT ENERGY      -115.732095109179

CARTESIAN COORDINATES (ANGSTROEM)
---------------------------------
  C     -4.029221    8.344015    5.610913
  O     -2.999871    7.977746    4.667712
  H     -3.310125    8.320182    3.789893
  H     -3.622109    8.473960    6.626864
  H     -4.597087    9.250479    5.314208
  H     -4.851451    7.575020    5.727861
  C     -1.848234    6.513734    9.012824
  O     -0.708035    5.646262    9.112648
  H     -0.282645    5.869293    9.942857
  H     -2.623279    6.228417    8.297152
  H     -2.358376    6.553106   10.032803
  H     -1.550898    7.542060    8.799035

 Multiplicity           Mult            ....    1
 Number of Electrons    NEL             ....   18
 Basis Dimension        Dim             ....  172

ORBITAL ENERGIES
----------------

  NO   OCC          E(Eh)            E(eV)
   0   2.0000     -19.231731      -523.3220
   1   2.0000     -10.320717      -280.8410
   2   2.0000      -1.131851       -30.7992
   3   2.0000      -0.793308       -21.5870
   4   2.0000      -0.605563       -16.4782
   5   2.0000      -0.536415       -14.5966
   6   2.0000      -0.529756       -14.4154
   7   2.0000      -0.434237       -11.8162
   8   2.0000      -0.373464       -10.1625
   9   0.0000       0.084215         2.2916
  10   0.0000       0.113448         3.0871
  11   0.0000       0.142851         3.8872
  12   0.0000       0.172815         4.7025
  13   0.0000       0.182303         4.9607

MULLIKEN ATOMIC CHARGES
-----------------------
   0 C :    0.000017
   1 O :    0.000028
   2 H :    0.000003
   3 H :   -0.000589
   4 H :   -0.000033
   5 H :   -0.000056
   6 C :   -0.183207
   7 O :   -0.470587
   8 H :    0.317736
   9 H :    0.130877
  10 H :    0.099685
  11 H :    0.106126
Sum of atomic charges:   -0.0000000

LOEWDIN ATOMIC CHARGES
----------------------
   0 C :   -0.000807
   1 O :   -0.000006
   2 H :   -0.000001
   3 H :   -0.001074
   4 H :   -0.000005
   5 H :   -0.000072
   6 C :   -0.376828
   7 O :   -0.093900
   8 H :    0.169286
   9 H :    0.107235
  10 H :    0.103079
  11 H :    0.093093

  Mayer bond orders larger than 0.1
B(  6-C ,  7-O ) :   0.9950 B(  6-C ,  9-H ) :   0.9691 B(  6-C , 10-H ) :   0.9831
B(  6-C , 11-H ) :   0.9724 B(  7-O ,  8-H ) :   0.8987

Dispersion correction           -0.000248367
FINAL SINGLE POINT ENERGY      -115.732425442288

DIPOLE MOMENT
-------------
                                X             Y             Z
Electronic contribution:      1.45691      -1.24403      -0.17328
Nuclear contribution   :     -1.65449       1.73209       0.65019
                        -----------------------------------------
Total Dipole Moment    :     -0.19758       0.48805       0.47691
                        -----------------------------------------
Magnitude (a.u.)       :      0.71040
Magnitude (Debye)      :      1.80570

Rotational constants in cm-1:     4.254125     0.805475     0.775750
Rotational constants in MHz : 127535.446619 24147.546261 23256.392055

                             ****ORCA TERMINATED NORMALLY****
TOTAL RUN TIME: 0 days 0 hours 0 minutes 52 seconds 118 msec
