                         Program Version 4.1.2  - RELEASE  -
|  1> #Run DFT-D3 single point of the dimer
|  2> ! wB97X-D3 def2-TZVP TIGHTSCF CHELPG PMODEL PAL8
|  3>
|  4> %base "16-160_DFT_AB"
|  5>
|  6> %scf
|  7> MaxIter 1000
|  8> end
|  9>
| 10> * xyz 0 1
| 11>   C                      -5.781501            -5.319190            -2.092413
| 12>   O                      -5.712247            -6.053322            -3.296553
| 13>   H                      -6.555143            -6.160508            -3.721351
| 14>   H                      -4.870997            -4.785849            -1.919133
| 15>   H                      -6.527429            -4.506636            -2.203879
| 16>   H                      -6.080904            -5.932525            -1.301576
| 17>   C                      -4.378816            -5.444975            -7.083358
| 18>   O                      -3.902493            -4.999915            -5.752956
| 19>   H                      -4.605135            -4.794553            -5.102366
| 20>   H                      -3.555004            -5.316298            -7.839353
| 21>   H                      -4.635740            -6.488972            -7.022439
| 22>   H                      -5.237637            -4.998744            -7.524706
| 23> *
| 24>
| 25> #Run DFT-D3 single point of the molecule with dimer basis set
| 26> $new_job
| 27> %base "16-160_DFT_A"
| 28> ! wB97X-D3 def2-TZVP TIGHTSCF CHELPG PMODEL
| 29>
| 30> %scf
| 31> MaxIter 1000
| 32> end
| 33>
| 34> * xyz 0 1
| 35>   C                      -5.781501            -5.319190            -2.092413
| 36>   O                      -5.712247            -6.053322            -3.296553
| 37>   H                      -6.555143            -6.160508            -3.721351
| 38>   H                      -4.870997            -4.785849            -1.919133
| 39>   H                      -6.527429            -4.506636            -2.203879
| 40>   H                      -6.080904            -5.932525            -1.301576
| 41>   C                    : -4.378816            -5.444975            -7.083358
| 42>   O                    : -3.902493            -4.999915            -5.752956
| 43>   H                    : -4.605135            -4.794553            -5.102366
| 44>   H                    : -3.555004            -5.316298            -7.839353
| 45>   H                    : -4.635740            -6.488972            -7.022439
| 46>   H                    : -5.237637            -4.998744            -7.524706
| 47> *
| 48>
| 49> #Run DFT-D3 single point of the particle with dimer basis set
| 50> $new_job
| 51> %base "16-160_DFT_B"
| 52> ! wB97X-D3 def2-TZVP TIGHTSCF CHELPG PMODEL
| 53>
| 54> %scf
| 55> MaxIter 1000
| 56> end
| 57>
| 58> * xyz 0 1
| 59>   C                    : -5.781501            -5.319190            -2.092413
| 60>   O                    : -5.712247            -6.053322            -3.296553
| 61>   H                    : -6.555143            -6.160508            -3.721351
| 62>   H                    : -4.870997            -4.785849            -1.919133
| 63>   H                    : -6.527429            -4.506636            -2.203879
| 64>   H                    : -6.080904            -5.932525            -1.301576
| 65>   C                      -4.378816            -5.444975            -7.083358
| 66>   O                      -3.902493            -4.999915            -5.752956
| 67>   H                      -4.605135            -4.794553            -5.102366
| 68>   H                      -3.555004            -5.316298            -7.839353
| 69>   H                      -4.635740            -6.488972            -7.022439
| 70>   H                      -5.237637            -4.998744            -7.524706
| 71> *
| 72>
| 73>                          ****END OF INPUT****
 Total Charge           Charge          ....    0
 Multiplicity           Mult            ....    1
 Number of Electrons    NEL             ....   36
Dispersion correction           -0.001536520
FINAL SINGLE POINT ENERGY      -231.463331095416
Dispersion correction           -0.000235088
FINAL SINGLE POINT ENERGY      -115.732999567277

CARTESIAN COORDINATES (ANGSTROEM)
---------------------------------
  C     -5.781501   -5.319190   -2.092413
  O     -5.712247   -6.053322   -3.296553
  H     -6.555143   -6.160508   -3.721351
  H     -4.870997   -4.785849   -1.919133
  H     -6.527429   -4.506636   -2.203879
  H     -6.080904   -5.932525   -1.301576
  C     -4.378816   -5.444975   -7.083358
  O     -3.902493   -4.999915   -5.752956
  H     -4.605135   -4.794553   -5.102366
  H     -3.555004   -5.316298   -7.839353
  H     -4.635740   -6.488972   -7.022439
  H     -5.237637   -4.998744   -7.524706

 Multiplicity           Mult            ....    1
 Number of Electrons    NEL             ....   18
 Basis Dimension        Dim             ....  172

ORBITAL ENERGIES
----------------

  NO   OCC          E(Eh)            E(eV)
   0   2.0000     -19.231669      -523.3203
   1   2.0000     -10.318214      -280.7729
   2   2.0000      -1.109514       -30.1914
   3   2.0000      -0.802970       -21.8499
   4   2.0000      -0.604738       -16.4558
   5   2.0000      -0.533246       -14.5104
   6   2.0000      -0.512584       -13.9481
   7   2.0000      -0.432779       -11.7765
   8   2.0000      -0.375272       -10.2117
   9   0.0000       0.071832         1.9546
  10   0.0000       0.128558         3.4982
  11   0.0000       0.142774         3.8851
  12   0.0000       0.168706         4.5907
  13   0.0000       0.189566         5.1584

MULLIKEN ATOMIC CHARGES
-----------------------
   0 C :   -0.001375
   1 O :   -0.002650
   2 H :   -0.000596
   3 H :    0.000045
   4 H :   -0.000045
   5 H :    0.000029
   6 C :   -0.168522
   7 O :   -0.498668
   8 H :    0.317741
   9 H :    0.125493
  10 H :    0.113941
  11 H :    0.114606
Sum of atomic charges:    0.0000000

LOEWDIN ATOMIC CHARGES
----------------------
   0 C :   -0.001723
   1 O :   -0.006390
   2 H :   -0.001293
   3 H :   -0.000162
   4 H :   -0.000066
   5 H :   -0.000035
   6 C :   -0.338754
   7 O :   -0.127322
   8 H :    0.173470
   9 H :    0.117376
  10 H :    0.095142
  11 H :    0.089757

  Mayer bond orders larger than 0.1
B(  6-C ,  7-O ) :   0.9909 B(  6-C ,  9-H ) :   0.9737 B(  6-C , 10-H ) :   0.9772
B(  6-C , 11-H ) :   0.9671 B(  7-O ,  8-H ) :   0.8939

Dispersion correction           -0.000307063
FINAL SINGLE POINT ENERGY      -115.727641941538

DIPOLE MOMENT
-------------
                                X             Y             Z
Electronic contribution:      0.63218       0.61785       1.60060
Nuclear contribution   :     -1.31378      -0.68202      -1.79077
                        -----------------------------------------
Total Dipole Moment    :     -0.68161      -0.06417      -0.19017
                        -----------------------------------------
Magnitude (a.u.)       :      0.71054
Magnitude (Debye)      :      1.80606

Rotational constants in cm-1:     4.499876     0.755200     0.728352
Rotational constants in MHz : 134902.878812 22640.332239 21835.440704

                             ****ORCA TERMINATED NORMALLY****
TOTAL RUN TIME: 0 days 0 hours 0 minutes 59 seconds 689 msec
