                         Program Version 4.1.2  - RELEASE  -
|  1> #Run DFT-D3 single point of the dimer
|  2> ! wB97X-D3 def2-TZVP TIGHTSCF CHELPG PMODEL PAL8
|  3>
|  4> %base "7-86_DFT_AB"
|  5>
|  6> %scf
|  7> MaxIter 1000
|  8> end
|  9>
| 10> * xyz 0 1
| 11>   C                      3.021370             9.219144             -8.876034
| 12>   O                      2.988232             10.333611            -8.053201
| 13>   H                      3.566255             11.030090            -8.396873
| 14>   H                      2.927108             8.298902             -8.306554
| 15>   H                      2.081663             9.364225             -9.548580
| 16>   H                      3.885532             9.146176             -9.495416
| 17>   C                      5.985764             10.182728            -10.975158
| 18>   O                      5.397680             11.452920            -11.172085
| 19>   H                      5.812482             11.988975            -10.549282
| 20>   H                      5.538513             9.459430             -11.657102
| 21>   H                      7.044986             10.189110            -11.254840
| 22>   H                      5.906226             9.834086             -9.951281
| 23> *
| 24>
| 25> #Run DFT-D3 single point of the molecule with dimer basis set
| 26> $new_job
| 27> %base "7-86_DFT_A"
| 28> ! wB97X-D3 def2-TZVP TIGHTSCF CHELPG PMODEL
| 29>
| 30> %scf
| 31> MaxIter 1000
| 32> end
| 33>
| 34> * xyz 0 1
| 35>   C                      3.021370             9.219144             -8.876034
| 36>   O                      2.988232             10.333611            -8.053201
| 37>   H                      3.566255             11.030090            -8.396873
| 38>   H                      2.927108             8.298902             -8.306554
| 39>   H                      2.081663             9.364225             -9.548580
| 40>   H                      3.885532             9.146176             -9.495416
| 41>   C                    : 5.985764             10.182728            -10.975158
| 42>   O                    : 5.397680             11.452920            -11.172085
| 43>   H                    : 5.812482             11.988975            -10.549282
| 44>   H                    : 5.538513             9.459430             -11.657102
| 45>   H                    : 7.044986             10.189110            -11.254840
| 46>   H                    : 5.906226             9.834086             -9.951281
| 47> *
| 48>
| 49> #Run DFT-D3 single point of the particle with dimer basis set
| 50> $new_job
| 51> %base "7-86_DFT_B"
| 52> ! wB97X-D3 def2-TZVP TIGHTSCF CHELPG PMODEL
| 53>
| 54> %scf
| 55> MaxIter 1000
| 56> end
| 57>
| 58> * xyz 0 1
| 59>   C                    : 3.021370             9.219144             -8.876034
| 60>   O                    : 2.988232             10.333611            -8.053201
| 61>   H                    : 3.566255             11.030090            -8.396873
| 62>   H                    : 2.927108             8.298902             -8.306554
| 63>   H                    : 2.081663             9.364225             -9.548580
| 64>   H                    : 3.885532             9.146176             -9.495416
| 65>   C                      5.985764             10.182728            -10.975158
| 66>   O                      5.397680             11.452920            -11.172085
| 67>   H                      5.812482             11.988975            -10.549282
| 68>   H                      5.538513             9.459430             -11.657102
| 69>   H                      7.044986             10.189110            -11.254840
| 70>   H                      5.906226             9.834086             -9.951281
| 71> *
| 72>
| 73>                          ****END OF INPUT****
 Total Charge           Charge          ....    0
 Multiplicity           Mult            ....    1
 Number of Electrons    NEL             ....   36
Dispersion correction           -0.001867092
FINAL SINGLE POINT ENERGY      -231.466362147980
Dispersion correction           -0.000235639
FINAL SINGLE POINT ENERGY      -115.730154508655

CARTESIAN COORDINATES (ANGSTROEM)
---------------------------------
  C      3.021370    9.219144   -8.876034
  O      2.988232   10.333611   -8.053201
  H      3.566255   11.030090   -8.396873
  H      2.927108    8.298902   -8.306554
  H      2.081663    9.364225   -9.548580
  H      3.885532    9.146176   -9.495416
  C      5.985764   10.182728  -10.975158
  O      5.397680   11.452920  -11.172085
  H      5.812482   11.988975  -10.549282
  H      5.538513    9.459430  -11.657102
  H      7.044986   10.189110  -11.254840
  H      5.906226    9.834086   -9.951281

 Multiplicity           Mult            ....    1
 Number of Electrons    NEL             ....   18
 Basis Dimension        Dim             ....  172

ORBITAL ENERGIES
----------------

  NO   OCC          E(Eh)            E(eV)
   0   2.0000     -19.228594      -523.2366
   1   2.0000     -10.311742      -280.5968
   2   2.0000      -1.147969       -31.2378
   3   2.0000      -0.798542       -21.7294
   4   2.0000      -0.615901       -16.7595
   5   2.0000      -0.544453       -14.8153
   6   2.0000      -0.527607       -14.3569
   7   2.0000      -0.441093       -12.0027
   8   2.0000      -0.375881       -10.2282
   9   0.0000       0.089157         2.4261
  10   0.0000       0.128016         3.4835
  11   0.0000       0.153535         4.1779
  12   0.0000       0.175588         4.7780
  13   0.0000       0.192955         5.2506

MULLIKEN ATOMIC CHARGES
-----------------------
   0 C :    0.000693
   1 O :    0.000323
   2 H :   -0.002921
   3 H :    0.000193
   4 H :   -0.000129
   5 H :   -0.000473
   6 C :   -0.178170
   7 O :   -0.458353
   8 H :    0.305610
   9 H :    0.115141
  10 H :    0.109156
  11 H :    0.108930
Sum of atomic charges:    0.0000000

LOEWDIN ATOMIC CHARGES
----------------------
   0 C :   -0.004018
   1 O :   -0.000097
   2 H :   -0.001979
   3 H :   -0.000023
   4 H :   -0.000041
   5 H :   -0.007427
   6 C :   -0.379773
   7 O :   -0.052381
   8 H :    0.144338
   9 H :    0.109716
  10 H :    0.095367
  11 H :    0.096317

  Mayer bond orders larger than 0.1
B(  6-C ,  7-O ) :   0.9970 B(  6-C ,  9-H ) :   0.9760 B(  6-C , 10-H ) :   0.9734
B(  6-C , 11-H ) :   0.9755 B(  7-O ,  8-H ) :   0.9119

Dispersion correction           -0.000224527
FINAL SINGLE POINT ENERGY      -115.735106247899

DIPOLE MOMENT
-------------
                                X             Y             Z
Electronic contribution:     -0.89320       1.60216      -0.30683
Nuclear contribution   :      1.39196      -1.76354       0.76764
                        -----------------------------------------
Total Dipole Moment    :      0.49876      -0.16138       0.46080
                        -----------------------------------------
Magnitude (a.u.)       :      0.69796
Magnitude (Debye)      :      1.77406

Rotational constants in cm-1:     4.372622     0.837128     0.807603
Rotational constants in MHz : 131087.916442 25096.465162 24211.333584

                             ****ORCA TERMINATED NORMALLY****
TOTAL RUN TIME: 0 days 0 hours 1 minutes 2 seconds 420 msec
