                         Program Version 4.1.2  - RELEASE  -
|  1> #Run DFT-D3 single point of the dimer
|  2> ! wB97X-D3 def2-TZVP TIGHTSCF CHELPG PMODEL PAL8
|  3>
|  4> %base "13-57_DFT_AB"
|  5>
|  6> %scf
|  7> MaxIter 1000
|  8> end
|  9>
| 10> * xyz 0 1
| 11>   C                      6.579677             -4.656054            2.098122
| 12>   O                      6.418017             -5.253259            3.379541
| 13>   H                      5.507121             -5.599913            3.333520
| 14>   H                      5.924402             -3.782596            1.864666
| 15>   H                      7.523478             -4.087973            1.999012
| 16>   H                      6.439044             -5.427651            1.315982
| 17>   C                      9.028161             -7.584521            4.100614
| 18>   O                      8.192791             -6.828802            5.014434
| 19>   H                      7.594326             -6.269406            4.519792
| 20>   H                      8.513725             -7.939866            3.227101
| 21>   H                      9.834166             -6.927564            3.751375
| 22>   H                      9.510038             -8.408056            4.560258
| 23> *
| 24>
| 25> #Run DFT-D3 single point of the molecule with dimer basis set
| 26> $new_job
| 27> %base "13-57_DFT_A"
| 28> ! wB97X-D3 def2-TZVP TIGHTSCF CHELPG PMODEL
| 29>
| 30> %scf
| 31> MaxIter 1000
| 32> end
| 33>
| 34> * xyz 0 1
| 35>   C                      6.579677             -4.656054            2.098122
| 36>   O                      6.418017             -5.253259            3.379541
| 37>   H                      5.507121             -5.599913            3.333520
| 38>   H                      5.924402             -3.782596            1.864666
| 39>   H                      7.523478             -4.087973            1.999012
| 40>   H                      6.439044             -5.427651            1.315982
| 41>   C                    : 9.028161             -7.584521            4.100614
| 42>   O                    : 8.192791             -6.828802            5.014434
| 43>   H                    : 7.594326             -6.269406            4.519792
| 44>   H                    : 8.513725             -7.939866            3.227101
| 45>   H                    : 9.834166             -6.927564            3.751375
| 46>   H                    : 9.510038             -8.408056            4.560258
| 47> *
| 48>
| 49> #Run DFT-D3 single point of the particle with dimer basis set
| 50> $new_job
| 51> %base "13-57_DFT_B"
| 52> ! wB97X-D3 def2-TZVP TIGHTSCF CHELPG PMODEL
| 53>
| 54> %scf
| 55> MaxIter 1000
| 56> end
| 57>
| 58> * xyz 0 1
| 59>   C                    : 6.579677             -4.656054            2.098122
| 60>   O                    : 6.418017             -5.253259            3.379541
| 61>   H                    : 5.507121             -5.599913            3.333520
| 62>   H                    : 5.924402             -3.782596            1.864666
| 63>   H                    : 7.523478             -4.087973            1.999012
| 64>   H                    : 6.439044             -5.427651            1.315982
| 65>   C                      9.028161             -7.584521            4.100614
| 66>   O                      8.192791             -6.828802            5.014434
| 67>   H                      7.594326             -6.269406            4.519792
| 68>   H                      8.513725             -7.939866            3.227101
| 69>   H                      9.834166             -6.927564            3.751375
| 70>   H                      9.510038             -8.408056            4.560258
| 71> *
| 72>
| 73>                          ****END OF INPUT****
 Total Charge           Charge          ....    0
 Multiplicity           Mult            ....    1
 Number of Electrons    NEL             ....   36
Dispersion correction           -0.001736768
FINAL SINGLE POINT ENERGY      -231.471866209923
Dispersion correction           -0.000250269
FINAL SINGLE POINT ENERGY      -115.730253572486

CARTESIAN COORDINATES (ANGSTROEM)
---------------------------------
  C      6.579677   -4.656054    2.098122
  O      6.418017   -5.253259    3.379541
  H      5.507121   -5.599913    3.333520
  H      5.924402   -3.782596    1.864666
  H      7.523478   -4.087973    1.999012
  H      6.439044   -5.427651    1.315982
  C      9.028161   -7.584521    4.100614
  O      8.192791   -6.828802    5.014434
  H      7.594326   -6.269406    4.519792
  H      8.513725   -7.939866    3.227101
  H      9.834166   -6.927564    3.751375
  H      9.510038   -8.408056    4.560258

 Multiplicity           Mult            ....    1
 Number of Electrons    NEL             ....   18
 Basis Dimension        Dim             ....  172

ORBITAL ENERGIES
----------------

  NO   OCC          E(Eh)            E(eV)
   0   2.0000     -19.229243      -523.2543
   1   2.0000     -10.310685      -280.5680
   2   2.0000      -1.124335       -30.5947
   3   2.0000      -0.803291       -21.8587
   4   2.0000      -0.606195       -16.4954
   5   2.0000      -0.535064       -14.5598
   6   2.0000      -0.531161       -14.4536
   7   2.0000      -0.436767       -11.8850
   8   2.0000      -0.373326       -10.1587
   9   0.0000       0.067985         1.8500
  10   0.0000       0.135128         3.6770
  11   0.0000       0.143526         3.9056
  12   0.0000       0.165718         4.5094
  13   0.0000       0.188127         5.1192

MULLIKEN ATOMIC CHARGES
-----------------------
   0 C :   -0.000690
   1 O :   -0.004880
   2 H :   -0.000639
   3 H :   -0.000011
   4 H :   -0.000066
   5 H :   -0.000072
   6 C :   -0.172364
   7 O :   -0.480233
   8 H :    0.315583
   9 H :    0.109608
  10 H :    0.106695
  11 H :    0.127068
Sum of atomic charges:   -0.0000000

LOEWDIN ATOMIC CHARGES
----------------------
   0 C :   -0.002546
   1 O :   -0.020898
   2 H :   -0.001680
   3 H :   -0.000057
   4 H :   -0.000140
   5 H :   -0.000081
   6 C :   -0.350512
   7 O :   -0.089981
   8 H :    0.172518
   9 H :    0.093352
  10 H :    0.099227
  11 H :    0.100798

  Mayer bond orders larger than 0.1
B(  6-C ,  7-O ) :   0.9863 B(  6-C ,  9-H ) :   0.9738 B(  6-C , 10-H ) :   0.9819
B(  6-C , 11-H ) :   0.9737 B(  7-O ,  8-H ) :   0.9059

Dispersion correction           -0.000256721
FINAL SINGLE POINT ENERGY      -115.733872588226

DIPOLE MOMENT
-------------
                                X             Y             Z
Electronic contribution:     -1.03849       0.77719       1.28056
Nuclear contribution   :      1.01782      -0.76031      -1.98743
                        -----------------------------------------
Total Dipole Moment    :     -0.02067       0.01688      -0.70687
                        -----------------------------------------
Magnitude (a.u.)       :      0.70737
Magnitude (Debye)      :      1.79800

Rotational constants in cm-1:     4.483006     0.793886     0.767899
Rotational constants in MHz : 134397.140616 23800.090070 23021.021873

                             ****ORCA TERMINATED NORMALLY****
TOTAL RUN TIME: 0 days 0 hours 1 minutes 11 seconds 718 msec
