                         Program Version 4.1.2  - RELEASE  -
|  1> #Run DFT-D3 single point of the dimer
|  2> ! wB97X-D3 def2-TZVP TIGHTSCF CHELPG PMODEL PAL8
|  3>
|  4> %base "19-111_DFT_AB"
|  5>
|  6> %scf
|  7> MaxIter 1000
|  8> end
|  9>
| 10> * xyz 0 1
| 11>   C                      6.485865             6.830318             0.457606
| 12>   O                      6.958456             6.355031             -0.794069
| 13>   H                      7.907226             6.370384             -0.741623
| 14>   H                      6.882538             7.854793             0.749982
| 15>   H                      5.409756             6.912721             0.368214
| 16>   H                      6.865832             6.186334             1.267891
| 17>   C                      4.406061             9.003634             4.088747
| 18>   O                      4.939479             8.666428             2.818712
| 19>   H                      4.198800             8.535025             2.226766
| 20>   H                      3.780832             8.216946             4.530347
| 21>   H                      5.157091             9.103917             4.964243
| 22>   H                      3.790676             9.928209             4.043853
| 23> *
| 24>
| 25> #Run DFT-D3 single point of the molecule with dimer basis set
| 26> $new_job
| 27> %base "19-111_DFT_A"
| 28> ! wB97X-D3 def2-TZVP TIGHTSCF CHELPG PMODEL
| 29>
| 30> %scf
| 31> MaxIter 1000
| 32> end
| 33>
| 34> * xyz 0 1
| 35>   C                      6.485865             6.830318             0.457606
| 36>   O                      6.958456             6.355031             -0.794069
| 37>   H                      7.907226             6.370384             -0.741623
| 38>   H                      6.882538             7.854793             0.749982
| 39>   H                      5.409756             6.912721             0.368214
| 40>   H                      6.865832             6.186334             1.267891
| 41>   C                    : 4.406061             9.003634             4.088747
| 42>   O                    : 4.939479             8.666428             2.818712
| 43>   H                    : 4.198800             8.535025             2.226766
| 44>   H                    : 3.780832             8.216946             4.530347
| 45>   H                    : 5.157091             9.103917             4.964243
| 46>   H                    : 3.790676             9.928209             4.043853
| 47> *
| 48>
| 49> #Run DFT-D3 single point of the particle with dimer basis set
| 50> $new_job
| 51> %base "19-111_DFT_B"
| 52> ! wB97X-D3 def2-TZVP TIGHTSCF CHELPG PMODEL
| 53>
| 54> %scf
| 55> MaxIter 1000
| 56> end
| 57>
| 58> * xyz 0 1
| 59>   C                    : 6.485865             6.830318             0.457606
| 60>   O                    : 6.958456             6.355031             -0.794069
| 61>   H                    : 7.907226             6.370384             -0.741623
| 62>   H                    : 6.882538             7.854793             0.749982
| 63>   H                    : 5.409756             6.912721             0.368214
| 64>   H                    : 6.865832             6.186334             1.267891
| 65>   C                      4.406061             9.003634             4.088747
| 66>   O                      4.939479             8.666428             2.818712
| 67>   H                      4.198800             8.535025             2.226766
| 68>   H                      3.780832             8.216946             4.530347
| 69>   H                      5.157091             9.103917             4.964243
| 70>   H                      3.790676             9.928209             4.043853
| 71> *
| 72>
| 73>                          ****END OF INPUT****
 Total Charge           Charge          ....    0
 Multiplicity           Mult            ....    1
 Number of Electrons    NEL             ....   36
Dispersion correction           -0.001440676
FINAL SINGLE POINT ENERGY      -231.465700198782
Dispersion correction           -0.000238402
FINAL SINGLE POINT ENERGY      -115.734171949627

CARTESIAN COORDINATES (ANGSTROEM)
---------------------------------
  C      6.485865    6.830318    0.457606
  O      6.958456    6.355031   -0.794069
  H      7.907226    6.370384   -0.741623
  H      6.882538    7.854793    0.749982
  H      5.409756    6.912721    0.368214
  H      6.865832    6.186334    1.267891
  C      4.406061    9.003634    4.088747
  O      4.939479    8.666428    2.818712
  H      4.198800    8.535025    2.226766
  H      3.780832    8.216946    4.530347
  H      5.157091    9.103917    4.964243
  H      3.790676    9.928209    4.043853

 Multiplicity           Mult            ....    1
 Number of Electrons    NEL             ....   18
 Basis Dimension        Dim             ....  172

ORBITAL ENERGIES
----------------

  NO   OCC          E(Eh)            E(eV)
   0   2.0000     -19.235802      -523.4328
   1   2.0000     -10.323460      -280.9156
   2   2.0000      -1.138985       -30.9934
   3   2.0000      -0.792031       -21.5523
   4   2.0000      -0.612297       -16.6615
   5   2.0000      -0.543325       -14.7846
   6   2.0000      -0.521340       -14.1864
   7   2.0000      -0.428471       -11.6593
   8   2.0000      -0.376586       -10.2474
   9   0.0000       0.092063         2.5052
  10   0.0000       0.121915         3.3175
  11   0.0000       0.143943         3.9169
  12   0.0000       0.191943         5.2230
  13   0.0000       0.193666         5.2699

MULLIKEN ATOMIC CHARGES
-----------------------
   0 C :    0.003015
   1 O :   -0.000213
   2 H :   -0.000039
   3 H :   -0.004271
   4 H :   -0.003315
   5 H :   -0.001647
   6 C :   -0.186720
   7 O :   -0.459593
   8 H :    0.320252
   9 H :    0.107236
  10 H :    0.118892
  11 H :    0.106401
Sum of atomic charges:    0.0000000

LOEWDIN ATOMIC CHARGES
----------------------
   0 C :   -0.008995
   1 O :   -0.000047
   2 H :   -0.000020
   3 H :   -0.003425
   4 H :   -0.001936
   5 H :   -0.000778
   6 C :   -0.402236
   7 O :   -0.065808
   8 H :    0.171790
   9 H :    0.093527
  10 H :    0.120601
  11 H :    0.097327

  Mayer bond orders larger than 0.1
B(  6-C ,  7-O ) :   0.9991 B(  6-C ,  9-H ) :   0.9710 B(  6-C , 10-H ) :   0.9704
B(  6-C , 11-H ) :   0.9750 B(  7-O ,  8-H ) :   0.8934

Dispersion correction           -0.000264831
FINAL SINGLE POINT ENERGY      -115.730077639519

DIPOLE MOMENT
-------------
                                X             Y             Z
Electronic contribution:      0.87576      -0.40556      -1.74494
Nuclear contribution   :     -1.56673       0.44047       1.88694
                        -----------------------------------------
Total Dipole Moment    :     -0.69097       0.03491       0.14200
                        -----------------------------------------
Magnitude (a.u.)       :      0.70627
Magnitude (Debye)      :      1.79519

Rotational constants in cm-1:     4.304823     0.808405     0.779662
Rotational constants in MHz : 129055.350028 24235.378898 23373.690310

                             ****ORCA TERMINATED NORMALLY****
TOTAL RUN TIME: 0 days 0 hours 0 minutes 51 seconds 168 msec
