                         Program Version 4.1.2  - RELEASE  -
|  1> #Run DFT-D3 single point of the dimer
|  2> ! wB97X-D3 def2-TZVP TIGHTSCF CHELPG PMODEL PAL8
|  3>
|  4> %base "14-212_DFT_AB"
|  5>
|  6> %scf
|  7> MaxIter 1000
|  8> end
|  9>
| 10> * xyz 0 1
| 11>   C                      7.029929             -10.246656           2.441205
| 12>   O                      6.272776             -10.696753           3.566318
| 13>   H                      5.828643             -9.955167            4.014150
| 14>   H                      7.734906             -11.057839           2.095183
| 15>   H                      6.360596             -10.006411           1.596224
| 16>   H                      7.665021             -9.402436            2.631238
| 17>   C                      2.433431             -7.892769            3.021983
| 18>   O                      3.262621             -8.993162            3.226220
| 19>   H                      3.720007             -8.989525            4.070696
| 20>   H                      3.113623             -6.992147            3.041975
| 21>   H                      2.056161             -7.820688            2.025780
| 22>   H                      1.661224             -7.817917            3.813661
| 23> *
| 24>
| 25> #Run DFT-D3 single point of the molecule with dimer basis set
| 26> $new_job
| 27> %base "14-212_DFT_A"
| 28> ! wB97X-D3 def2-TZVP TIGHTSCF CHELPG PMODEL
| 29>
| 30> %scf
| 31> MaxIter 1000
| 32> end
| 33>
| 34> * xyz 0 1
| 35>   C                      7.029929             -10.246656           2.441205
| 36>   O                      6.272776             -10.696753           3.566318
| 37>   H                      5.828643             -9.955167            4.014150
| 38>   H                      7.734906             -11.057839           2.095183
| 39>   H                      6.360596             -10.006411           1.596224
| 40>   H                      7.665021             -9.402436            2.631238
| 41>   C                    : 2.433431             -7.892769            3.021983
| 42>   O                    : 3.262621             -8.993162            3.226220
| 43>   H                    : 3.720007             -8.989525            4.070696
| 44>   H                    : 3.113623             -6.992147            3.041975
| 45>   H                    : 2.056161             -7.820688            2.025780
| 46>   H                    : 1.661224             -7.817917            3.813661
| 47> *
| 48>
| 49> #Run DFT-D3 single point of the particle with dimer basis set
| 50> $new_job
| 51> %base "14-212_DFT_B"
| 52> ! wB97X-D3 def2-TZVP TIGHTSCF CHELPG PMODEL
| 53>
| 54> %scf
| 55> MaxIter 1000
| 56> end
| 57>
| 58> * xyz 0 1
| 59>   C                    : 7.029929             -10.246656           2.441205
| 60>   O                    : 6.272776             -10.696753           3.566318
| 61>   H                    : 5.828643             -9.955167            4.014150
| 62>   H                    : 7.734906             -11.057839           2.095183
| 63>   H                    : 6.360596             -10.006411           1.596224
| 64>   H                    : 7.665021             -9.402436            2.631238
| 65>   C                      2.433431             -7.892769            3.021983
| 66>   O                      3.262621             -8.993162            3.226220
| 67>   H                      3.720007             -8.989525            4.070696
| 68>   H                      3.113623             -6.992147            3.041975
| 69>   H                      2.056161             -7.820688            2.025780
| 70>   H                      1.661224             -7.817917            3.813661
| 71> *
| 72>
| 73>                          ****END OF INPUT****
 Total Charge           Charge          ....    0
 Multiplicity           Mult            ....    1
 Number of Electrons    NEL             ....   36
Dispersion correction           -0.001370718
FINAL SINGLE POINT ENERGY      -231.464207924765
Dispersion correction           -0.000266110
FINAL SINGLE POINT ENERGY      -115.735023179076

CARTESIAN COORDINATES (ANGSTROEM)
---------------------------------
  C      7.029929  -10.246656    2.441205
  O      6.272776  -10.696753    3.566318
  H      5.828643   -9.955167    4.014150
  H      7.734906  -11.057839    2.095183
  H      6.360596  -10.006411    1.596224
  H      7.665021   -9.402436    2.631238
  C      2.433431   -7.892769    3.021983
  O      3.262621   -8.993162    3.226220
  H      3.720007   -8.989525    4.070696
  H      3.113623   -6.992147    3.041975
  H      2.056161   -7.820688    2.025780
  H      1.661224   -7.817917    3.813661

 Multiplicity           Mult            ....    1
 Number of Electrons    NEL             ....   18
 Basis Dimension        Dim             ....  172

ORBITAL ENERGIES
----------------

  NO   OCC          E(Eh)            E(eV)
   0   2.0000     -19.226284      -523.1738
   1   2.0000     -10.315176      -280.6902
   2   2.0000      -1.138484       -30.9797
   3   2.0000      -0.796619       -21.6771
   4   2.0000      -0.611010       -16.6264
   5   2.0000      -0.551403       -15.0044
   6   2.0000      -0.531196       -14.4546
   7   2.0000      -0.421081       -11.4582
   8   2.0000      -0.368274       -10.0213
   9   0.0000       0.088366         2.4046
  10   0.0000       0.123293         3.3550
  11   0.0000       0.150037         4.0827
  12   0.0000       0.189828         5.1655
  13   0.0000       0.197073         5.3626

MULLIKEN ATOMIC CHARGES
-----------------------
   0 C :    0.000233
   1 O :    0.000721
   2 H :   -0.003533
   3 H :   -0.000152
   4 H :   -0.002026
   5 H :    0.000106
   6 C :   -0.146469
   7 O :   -0.484299
   8 H :    0.322142
   9 H :    0.089765
  10 H :    0.124252
  11 H :    0.099259
Sum of atomic charges:   -0.0000000

LOEWDIN ATOMIC CHARGES
----------------------
   0 C :   -0.001807
   1 O :   -0.000748
   2 H :   -0.004475
   3 H :   -0.000038
   4 H :   -0.001019
   5 H :   -0.000017
   6 C :   -0.397869
   7 O :   -0.064916
   8 H :    0.170707
   9 H :    0.100141
  10 H :    0.103359
  11 H :    0.096681

  Mayer bond orders larger than 0.1
B(  6-C ,  7-O ) :   0.9934 B(  6-C ,  9-H ) :   0.9883 B(  6-C , 10-H ) :   0.9684
B(  6-C , 11-H ) :   0.9754 B(  7-O ,  8-H ) :   0.8895

Dispersion correction           -0.000236457
FINAL SINGLE POINT ENERGY      -115.730778991847

DIPOLE MOMENT
-------------
                                X             Y             Z
Electronic contribution:      0.84141      -1.56937       0.11598
Nuclear contribution   :     -0.87768       2.01341       0.32715
                        -----------------------------------------
Total Dipole Moment    :     -0.03627       0.44404       0.44312
                        -----------------------------------------
Magnitude (a.u.)       :      0.62837
Magnitude (Debye)      :      1.59719

Rotational constants in cm-1:     4.301528     0.842277     0.820163
Rotational constants in MHz : 128956.559839 25250.840608 24587.879324

                             ****ORCA TERMINATED NORMALLY****
TOTAL RUN TIME: 0 days 0 hours 1 minutes 2 seconds 468 msec
