                         Program Version 4.1.2  - RELEASE  -
|  1> #Run DFT-D3 single point of the dimer
|  2> ! wB97X-D3 def2-TZVP TIGHTSCF CHELPG PMODEL PAL8
|  3>
|  4> %base "13-190_DFT_AB"
|  5>
|  6> %scf
|  7> MaxIter 1000
|  8> end
|  9>
| 10> * xyz 0 1
| 11>   C                      -8.442272            8.587771             7.921201
| 12>   O                      -7.077809            8.894588             8.253846
| 13>   H                      -6.520433            8.298037             7.747672
| 14>   H                      -9.172113            9.401632             8.219784
| 15>   H                      -8.441052            8.470116             6.835245
| 16>   H                      -8.718310            7.655765             8.419428
| 17>   C                      -4.487210            10.815205            8.350348
| 18>   O                      -4.551574            10.014269            9.504995
| 19>   H                      -5.360947            9.518464             9.275820
| 20>   H                      -5.241380            11.625561            8.355887
| 21>   H                      -3.526033            11.207367            7.985136
| 22>   H                      -4.922902            10.255765            7.497466
| 23> *
| 24>
| 25> #Run DFT-D3 single point of the molecule with dimer basis set
| 26> $new_job
| 27> %base "13-190_DFT_A"
| 28> ! wB97X-D3 def2-TZVP TIGHTSCF CHELPG PMODEL
| 29>
| 30> %scf
| 31> MaxIter 1000
| 32> end
| 33>
| 34> * xyz 0 1
| 35>   C                      -8.442272            8.587771             7.921201
| 36>   O                      -7.077809            8.894588             8.253846
| 37>   H                      -6.520433            8.298037             7.747672
| 38>   H                      -9.172113            9.401632             8.219784
| 39>   H                      -8.441052            8.470116             6.835245
| 40>   H                      -8.718310            7.655765             8.419428
| 41>   C                    : -4.487210            10.815205            8.350348
| 42>   O                    : -4.551574            10.014269            9.504995
| 43>   H                    : -5.360947            9.518464             9.275820
| 44>   H                    : -5.241380            11.625561            8.355887
| 45>   H                    : -3.526033            11.207367            7.985136
| 46>   H                    : -4.922902            10.255765            7.497466
| 47> *
| 48>
| 49> #Run DFT-D3 single point of the particle with dimer basis set
| 50> $new_job
| 51> %base "13-190_DFT_B"
| 52> ! wB97X-D3 def2-TZVP TIGHTSCF CHELPG PMODEL
| 53>
| 54> %scf
| 55> MaxIter 1000
| 56> end
| 57>
| 58> * xyz 0 1
| 59>   C                    : -8.442272            8.587771             7.921201
| 60>   O                    : -7.077809            8.894588             8.253846
| 61>   H                    : -6.520433            8.298037             7.747672
| 62>   H                    : -9.172113            9.401632             8.219784
| 63>   H                    : -8.441052            8.470116             6.835245
| 64>   H                    : -8.718310            7.655765             8.419428
| 65>   C                      -4.487210            10.815205            8.350348
| 66>   O                      -4.551574            10.014269            9.504995
| 67>   H                      -5.360947            9.518464             9.275820
| 68>   H                      -5.241380            11.625561            8.355887
| 69>   H                      -3.526033            11.207367            7.985136
| 70>   H                      -4.922902            10.255765            7.497466
| 71> *
| 72>
| 73>                          ****END OF INPUT****
 Total Charge           Charge          ....    0
 Multiplicity           Mult            ....    1
 Number of Electrons    NEL             ....   36
Dispersion correction           -0.001755069
FINAL SINGLE POINT ENERGY      -231.464846324729
Dispersion correction           -0.000232162
FINAL SINGLE POINT ENERGY      -115.733200992371

CARTESIAN COORDINATES (ANGSTROEM)
---------------------------------
  C     -8.442272    8.587771    7.921201
  O     -7.077809    8.894588    8.253846
  H     -6.520433    8.298037    7.747672
  H     -9.172113    9.401632    8.219784
  H     -8.441052    8.470116    6.835245
  H     -8.718310    7.655765    8.419428
  C     -4.487210   10.815205    8.350348
  O     -4.551574   10.014269    9.504995
  H     -5.360947    9.518464    9.275820
  H     -5.241380   11.625561    8.355887
  H     -3.526033   11.207367    7.985136
  H     -4.922902   10.255765    7.497466

 Multiplicity           Mult            ....    1
 Number of Electrons    NEL             ....   18
 Basis Dimension        Dim             ....  172

ORBITAL ENERGIES
----------------

  NO   OCC          E(Eh)            E(eV)
   0   2.0000     -19.239113      -523.5229
   1   2.0000     -10.318466      -280.7797
   2   2.0000      -1.145887       -31.1812
   3   2.0000      -0.790277       -21.5045
   4   2.0000      -0.615529       -16.7494
   5   2.0000      -0.539668       -14.6851
   6   2.0000      -0.528360       -14.3774
   7   2.0000      -0.442803       -12.0493
   8   2.0000      -0.370875       -10.0920
   9   0.0000       0.067068         1.8250
  10   0.0000       0.123431         3.3587
  11   0.0000       0.146697         3.9918
  12   0.0000       0.166011         4.5174
  13   0.0000       0.192501         5.2382

MULLIKEN ATOMIC CHARGES
-----------------------
   0 C :   -0.000897
   1 O :   -0.003182
   2 H :   -0.000443
   3 H :   -0.000005
   4 H :   -0.000031
   5 H :    0.000048
   6 C :   -0.188971
   7 O :   -0.448221
   8 H :    0.322782
   9 H :    0.097395
  10 H :    0.124279
  11 H :    0.097246
Sum of atomic charges:    0.0000000

LOEWDIN ATOMIC CHARGES
----------------------
   0 C :   -0.000739
   1 O :   -0.014836
   2 H :   -0.003515
   3 H :   -0.000019
   4 H :   -0.000034
   5 H :   -0.000016
   6 C :   -0.408720
   7 O :   -0.067613
   8 H :    0.193925
   9 H :    0.096442
  10 H :    0.106938
  11 H :    0.098186

  Mayer bond orders larger than 0.1
B(  6-C ,  7-O ) :   1.0005 B(  6-C ,  9-H ) :   0.9749 B(  6-C , 10-H ) :   0.9684
B(  6-C , 11-H ) :   0.9900 B(  7-O ,  8-H ) :   0.9043

Dispersion correction           -0.000224937
FINAL SINGLE POINT ENERGY      -115.724645234692

DIPOLE MOMENT
-------------
                                X             Y             Z
Electronic contribution:      0.31138      -0.98075       1.80378
Nuclear contribution   :     -0.78348       0.95907      -2.39031
                        -----------------------------------------
Total Dipole Moment    :     -0.47210      -0.02169      -0.58653
                        -----------------------------------------
Magnitude (a.u.)       :      0.75323
Magnitude (Debye)      :      1.91457

Rotational constants in cm-1:     4.292197     0.840349     0.798024
Rotational constants in MHz : 128676.832074 25193.036489 23924.159712

                             ****ORCA TERMINATED NORMALLY****
TOTAL RUN TIME: 0 days 0 hours 1 minutes 10 seconds 278 msec
