                         Program Version 4.1.2  - RELEASE  -
|  1> #Run DFT-D3 single point of the dimer
|  2> ! wB97X-D3 def2-TZVP TIGHTSCF CHELPG PMODEL PAL8
|  3>
|  4> %base "8-190_DFT_AB"
|  5>
|  6> %scf
|  7> MaxIter 1000
|  8> end
|  9>
| 10> * xyz 0 1
| 11>   C                      -3.614518            2.377771             -3.383967
| 12>   O                      -2.329150            2.667694             -3.971855
| 13>   H                      -1.580685            2.454712             -3.361758
| 14>   H                      -4.317410            3.034180             -3.857457
| 15>   H                      -3.902533            1.347979             -3.342968
| 16>   H                      -3.658207            2.674005             -2.304684
| 17>   C                      -0.965457            4.781044             -1.881305
| 18>   O                      -0.332805            3.515278             -2.121490
| 19>   H                      0.266753             3.400385             -1.455536
| 20>   H                      -0.340095            5.601950             -2.194661
| 21>   H                      -1.826995            4.860633             -2.567070
| 22>   H                      -1.330700            4.843908             -0.895012
| 23> *
| 24>
| 25> #Run DFT-D3 single point of the molecule with dimer basis set
| 26> $new_job
| 27> %base "8-190_DFT_A"
| 28> ! wB97X-D3 def2-TZVP TIGHTSCF CHELPG PMODEL
| 29>
| 30> %scf
| 31> MaxIter 1000
| 32> end
| 33>
| 34> * xyz 0 1
| 35>   C                      -3.614518            2.377771             -3.383967
| 36>   O                      -2.329150            2.667694             -3.971855
| 37>   H                      -1.580685            2.454712             -3.361758
| 38>   H                      -4.317410            3.034180             -3.857457
| 39>   H                      -3.902533            1.347979             -3.342968
| 40>   H                      -3.658207            2.674005             -2.304684
| 41>   C                    : -0.965457            4.781044             -1.881305
| 42>   O                    : -0.332805            3.515278             -2.121490
| 43>   H                    : 0.266753             3.400385             -1.455536
| 44>   H                    : -0.340095            5.601950             -2.194661
| 45>   H                    : -1.826995            4.860633             -2.567070
| 46>   H                    : -1.330700            4.843908             -0.895012
| 47> *
| 48>
| 49> #Run DFT-D3 single point of the particle with dimer basis set
| 50> $new_job
| 51> %base "8-190_DFT_B"
| 52> ! wB97X-D3 def2-TZVP TIGHTSCF CHELPG PMODEL
| 53>
| 54> %scf
| 55> MaxIter 1000
| 56> end
| 57>
| 58> * xyz 0 1
| 59>   C                    : -3.614518            2.377771             -3.383967
| 60>   O                    : -2.329150            2.667694             -3.971855
| 61>   H                    : -1.580685            2.454712             -3.361758
| 62>   H                    : -4.317410            3.034180             -3.857457
| 63>   H                    : -3.902533            1.347979             -3.342968
| 64>   H                    : -3.658207            2.674005             -2.304684
| 65>   C                      -0.965457            4.781044             -1.881305
| 66>   O                      -0.332805            3.515278             -2.121490
| 67>   H                      0.266753             3.400385             -1.455536
| 68>   H                      -0.340095            5.601950             -2.194661
| 69>   H                      -1.826995            4.860633             -2.567070
| 70>   H                      -1.330700            4.843908             -0.895012
| 71> *
| 72>
| 73>                          ****END OF INPUT****
 Total Charge           Charge          ....    0
 Multiplicity           Mult            ....    1
 Number of Electrons    NEL             ....   36
Dispersion correction           -0.002114251
FINAL SINGLE POINT ENERGY      -231.471122369106
Dispersion correction           -0.000273171
FINAL SINGLE POINT ENERGY      -115.732090500125

CARTESIAN COORDINATES (ANGSTROEM)
---------------------------------
  C     -3.614518    2.377771   -3.383967
  O     -2.329150    2.667694   -3.971855
  H     -1.580685    2.454712   -3.361758
  H     -4.317410    3.034180   -3.857457
  H     -3.902533    1.347979   -3.342968
  H     -3.658207    2.674005   -2.304684
  C     -0.965457    4.781044   -1.881305
  O     -0.332805    3.515278   -2.121490
  H      0.266753    3.400385   -1.455536
  H     -0.340095    5.601950   -2.194661
  H     -1.826995    4.860633   -2.567070
  H     -1.330700    4.843908   -0.895012

 Multiplicity           Mult            ....    1
 Number of Electrons    NEL             ....   18
 Basis Dimension        Dim             ....  172

ORBITAL ENERGIES
----------------

  NO   OCC          E(Eh)            E(eV)
   0   2.0000     -19.224112      -523.1147
   1   2.0000     -10.310064      -280.5511
   2   2.0000      -1.142561       -31.0907
   3   2.0000      -0.804423       -21.8895
   4   2.0000      -0.611918       -16.6511
   5   2.0000      -0.553660       -15.0659
   6   2.0000      -0.521712       -14.1965
   7   2.0000      -0.436261       -11.8713
   8   2.0000      -0.378812       -10.3080
   9   0.0000       0.094774         2.5789
  10   0.0000       0.130179         3.5423
  11   0.0000       0.156443         4.2570
  12   0.0000       0.185177         5.0389
  13   0.0000       0.201090         5.4719

MULLIKEN ATOMIC CHARGES
-----------------------
   0 C :   -0.000090
   1 O :    0.001273
   2 H :   -0.008291
   3 H :   -0.000424
   4 H :    0.000028
   5 H :   -0.000065
   6 C :   -0.165730
   7 O :   -0.458373
   8 H :    0.294831
   9 H :    0.111053
  10 H :    0.113466
  11 H :    0.112322
Sum of atomic charges:    0.0000000

LOEWDIN ATOMIC CHARGES
----------------------
   0 C :   -0.003880
   1 O :   -0.005577
   2 H :   -0.030480
   3 H :   -0.000167
   4 H :   -0.000027
   5 H :   -0.000837
   6 C :   -0.352272
   7 O :   -0.033137
   8 H :    0.126555
   9 H :    0.095416
  10 H :    0.114589
  11 H :    0.089818

  Mayer bond orders larger than 0.1
B(  6-C ,  7-O ) :   0.9862 B(  6-C ,  9-H ) :   0.9729 B(  6-C , 10-H ) :   0.9811
B(  6-C , 11-H ) :   0.9775 B(  7-O ,  8-H ) :   0.9178

Dispersion correction           -0.000232350
FINAL SINGLE POINT ENERGY      -115.731431359545

DIPOLE MOMENT
-------------
                                X             Y             Z
Electronic contribution:      0.78023      -1.56326      -0.25479
Nuclear contribution   :     -0.66373       2.02035       0.78674
                        -----------------------------------------
Total Dipole Moment    :      0.11649       0.45709       0.53195
                        -----------------------------------------
Magnitude (a.u.)       :      0.71097
Magnitude (Debye)      :      1.80714

Rotational constants in cm-1:     4.456986     0.817666     0.795134
Rotational constants in MHz : 133617.085148 24512.998388 23837.514493

                             ****ORCA TERMINATED NORMALLY****
TOTAL RUN TIME: 0 days 0 hours 0 minutes 47 seconds 300 msec
