                         Program Version 4.1.2  - RELEASE  -
|  1> #Run DFT-D3 single point of the dimer
|  2> ! wB97X-D3 def2-TZVP TIGHTSCF CHELPG PMODEL PAL8
|  3>
|  4> %base "21-206_DFT_AB"
|  5>
|  6> %scf
|  7> MaxIter 1000
|  8> end
|  9>
| 10> * xyz 0 1
| 11>   C                      -6.433659            -7.688560            -2.264360
| 12>   O                      -7.821233            -7.958168            -2.522958
| 13>   H                      -8.350406            -7.525737            -1.852029
| 14>   H                      -5.984123            -8.200384            -1.403321
| 15>   H                      -5.834364            -7.884514            -3.193238
| 16>   H                      -6.276113            -6.608584            -2.092495
| 17>   C                      -9.894746            -10.424157           -3.994685
| 18>   O                      -8.878708            -10.819831           -3.175086
| 19>   H                      -8.357523            -10.022226           -3.038583
| 20>   H                      -10.461767           -9.678682            -3.487673
| 21>   H                      -9.538777            -10.059147           -4.997187
| 22>   H                      -10.558657           -11.231030           -4.328539
| 23> *
| 24>
| 25> #Run DFT-D3 single point of the molecule with dimer basis set
| 26> $new_job
| 27> %base "21-206_DFT_A"
| 28> ! wB97X-D3 def2-TZVP TIGHTSCF CHELPG PMODEL
| 29>
| 30> %scf
| 31> MaxIter 1000
| 32> end
| 33>
| 34> * xyz 0 1
| 35>   C                      -6.433659            -7.688560            -2.264360
| 36>   O                      -7.821233            -7.958168            -2.522958
| 37>   H                      -8.350406            -7.525737            -1.852029
| 38>   H                      -5.984123            -8.200384            -1.403321
| 39>   H                      -5.834364            -7.884514            -3.193238
| 40>   H                      -6.276113            -6.608584            -2.092495
| 41>   C                    : -9.894746            -10.424157           -3.994685
| 42>   O                    : -8.878708            -10.819831           -3.175086
| 43>   H                    : -8.357523            -10.022226           -3.038583
| 44>   H                    : -10.461767           -9.678682            -3.487673
| 45>   H                    : -9.538777            -10.059147           -4.997187
| 46>   H                    : -10.558657           -11.231030           -4.328539
| 47> *
| 48>
| 49> #Run DFT-D3 single point of the particle with dimer basis set
| 50> $new_job
| 51> %base "21-206_DFT_B"
| 52> ! wB97X-D3 def2-TZVP TIGHTSCF CHELPG PMODEL
| 53>
| 54> %scf
| 55> MaxIter 1000
| 56> end
| 57>
| 58> * xyz 0 1
| 59>   C                    : -6.433659            -7.688560            -2.264360
| 60>   O                    : -7.821233            -7.958168            -2.522958
| 61>   H                    : -8.350406            -7.525737            -1.852029
| 62>   H                    : -5.984123            -8.200384            -1.403321
| 63>   H                    : -5.834364            -7.884514            -3.193238
| 64>   H                    : -6.276113            -6.608584            -2.092495
| 65>   C                      -9.894746            -10.424157           -3.994685
| 66>   O                      -8.878708            -10.819831           -3.175086
| 67>   H                      -8.357523            -10.022226           -3.038583
| 68>   H                      -10.461767           -9.678682            -3.487673
| 69>   H                      -9.538777            -10.059147           -4.997187
| 70>   H                      -10.558657           -11.231030           -4.328539
| 71> *
| 72>
| 73>                          ****END OF INPUT****
 Total Charge           Charge          ....    0
 Multiplicity           Mult            ....    1
 Number of Electrons    NEL             ....   36
Dispersion correction           -0.001643690
FINAL SINGLE POINT ENERGY      -231.474161322018
Dispersion correction           -0.000267510
FINAL SINGLE POINT ENERGY      -115.734836946700

CARTESIAN COORDINATES (ANGSTROEM)
---------------------------------
  C     -6.433659   -7.688560   -2.264360
  O     -7.821233   -7.958168   -2.522958
  H     -8.350406   -7.525737   -1.852029
  H     -5.984123   -8.200384   -1.403321
  H     -5.834364   -7.884514   -3.193238
  H     -6.276113   -6.608584   -2.092495
  C     -9.894746  -10.424157   -3.994685
  O     -8.878708  -10.819831   -3.175086
  H     -8.357523  -10.022226   -3.038583
  H    -10.461767   -9.678682   -3.487673
  H     -9.538777  -10.059147   -4.997187
  H    -10.558657  -11.231030   -4.328539

 Multiplicity           Mult            ....    1
 Number of Electrons    NEL             ....   18
 Basis Dimension        Dim             ....  172

ORBITAL ENERGIES
----------------

  NO   OCC          E(Eh)            E(eV)
   0   2.0000     -19.232180      -523.3342
   1   2.0000     -10.309342      -280.5315
   2   2.0000      -1.155937       -31.4546
   3   2.0000      -0.791893       -21.5485
   4   2.0000      -0.617746       -16.8097
   5   2.0000      -0.558228       -15.1901
   6   2.0000      -0.532535       -14.4910
   7   2.0000      -0.427176       -11.6240
   8   2.0000      -0.372127       -10.1261
   9   0.0000       0.067647         1.8408
  10   0.0000       0.127809         3.4778
  11   0.0000       0.154958         4.2166
  12   0.0000       0.160026         4.3545
  13   0.0000       0.192822         5.2469

MULLIKEN ATOMIC CHARGES
-----------------------
   0 C :   -0.001122
   1 O :   -0.001811
   2 H :   -0.000176
   3 H :   -0.000004
   4 H :   -0.000069
   5 H :    0.000011
   6 C :   -0.163036
   7 O :   -0.455207
   8 H :    0.316512
   9 H :    0.101668
  10 H :    0.085626
  11 H :    0.117607
Sum of atomic charges:   -0.0000000

LOEWDIN ATOMIC CHARGES
----------------------
   0 C :   -0.002206
   1 O :   -0.009797
   2 H :   -0.000770
   3 H :   -0.000075
   4 H :   -0.000128
   5 H :   -0.000049
   6 C :   -0.430271
   7 O :   -0.032988
   8 H :    0.181696
   9 H :    0.088807
  10 H :    0.096567
  11 H :    0.109215

  Mayer bond orders larger than 0.1
B(  6-C ,  7-O ) :   0.9977 B(  6-C ,  9-H ) :   0.9849 B(  6-C , 10-H ) :   0.9774
B(  6-C , 11-H ) :   0.9710 B(  7-O ,  8-H ) :   0.9057

Dispersion correction           -0.000210941
FINAL SINGLE POINT ENERGY      -115.731080994770

DIPOLE MOMENT
-------------
                                X             Y             Z
Electronic contribution:      1.29934      -0.69623       1.22000
Nuclear contribution   :     -1.35348       1.31678      -1.42578
                        -----------------------------------------
Total Dipole Moment    :     -0.05414       0.62054      -0.20578
                        -----------------------------------------
Magnitude (a.u.)       :      0.65601
Magnitude (Debye)      :      1.66745

Rotational constants in cm-1:     4.330329     0.877067     0.850161
Rotational constants in MHz : 129820.011984 26293.801776 25487.189168

                             ****ORCA TERMINATED NORMALLY****
TOTAL RUN TIME: 0 days 0 hours 1 minutes 6 seconds 432 msec
