                         Program Version 4.1.2  - RELEASE  -
|  1> #Run DFT-D3 single point of the dimer
|  2> ! wB97X-D3 def2-TZVP TIGHTSCF CHELPG PMODEL PAL8
|  3>
|  4> %base "7-153_DFT_AB"
|  5>
|  6> %scf
|  7> MaxIter 1000
|  8> end
|  9>
| 10> * xyz 0 1
| 11>   C                      -5.953416            6.441439             -5.791146
| 12>   O                      -4.882713            6.105189             -6.733241
| 13>   H                      -4.725952            5.151699             -6.657263
| 14>   H                      -5.894636            7.567412             -5.696806
| 15>   H                      -6.940423            6.332680             -6.210736
| 16>   H                      -5.806236            5.876499             -4.860108
| 17>   C                      -4.689874            2.477957             -5.657461
| 18>   O                      -4.070348            3.742163             -5.395652
| 19>   H                      -3.950294            3.802633             -4.417182
| 20>   H                      -5.262581            2.615438             -6.581683
| 21>   H                      -3.949888            1.703794             -5.863848
| 22>   H                      -5.266612            2.155315             -4.816156
| 23> *
| 24>
| 25> #Run DFT-D3 single point of the molecule with dimer basis set
| 26> $new_job
| 27> %base "7-153_DFT_A"
| 28> ! wB97X-D3 def2-TZVP TIGHTSCF CHELPG PMODEL
| 29>
| 30> %scf
| 31> MaxIter 1000
| 32> end
| 33>
| 34> * xyz 0 1
| 35>   C                      -5.953416            6.441439             -5.791146
| 36>   O                      -4.882713            6.105189             -6.733241
| 37>   H                      -4.725952            5.151699             -6.657263
| 38>   H                      -5.894636            7.567412             -5.696806
| 39>   H                      -6.940423            6.332680             -6.210736
| 40>   H                      -5.806236            5.876499             -4.860108
| 41>   C                    : -4.689874            2.477957             -5.657461
| 42>   O                    : -4.070348            3.742163             -5.395652
| 43>   H                    : -3.950294            3.802633             -4.417182
| 44>   H                    : -5.262581            2.615438             -6.581683
| 45>   H                    : -3.949888            1.703794             -5.863848
| 46>   H                    : -5.266612            2.155315             -4.816156
| 47> *
| 48>
| 49> #Run DFT-D3 single point of the particle with dimer basis set
| 50> $new_job
| 51> %base "7-153_DFT_B"
| 52> ! wB97X-D3 def2-TZVP TIGHTSCF CHELPG PMODEL
| 53>
| 54> %scf
| 55> MaxIter 1000
| 56> end
| 57>
| 58> * xyz 0 1
| 59>   C                    : -5.953416            6.441439             -5.791146
| 60>   O                    : -4.882713            6.105189             -6.733241
| 61>   H                    : -4.725952            5.151699             -6.657263
| 62>   H                    : -5.894636            7.567412             -5.696806
| 63>   H                    : -6.940423            6.332680             -6.210736
| 64>   H                    : -5.806236            5.876499             -4.860108
| 65>   C                      -4.689874            2.477957             -5.657461
| 66>   O                      -4.070348            3.742163             -5.395652
| 67>   H                      -3.950294            3.802633             -4.417182
| 68>   H                      -5.262581            2.615438             -6.581683
| 69>   H                      -3.949888            1.703794             -5.863848
| 70>   H                      -5.266612            2.155315             -4.816156
| 71> *
| 72>
| 73>                          ****END OF INPUT****
 Total Charge           Charge          ....    0
 Multiplicity           Mult            ....    1
 Number of Electrons    NEL             ....   36
Dispersion correction           -0.002005919
FINAL SINGLE POINT ENERGY      -231.471777629102
Dispersion correction           -0.000260813
FINAL SINGLE POINT ENERGY      -115.731747215566

CARTESIAN COORDINATES (ANGSTROEM)
---------------------------------
  C     -5.953416    6.441439   -5.791146
  O     -4.882713    6.105189   -6.733241
  H     -4.725952    5.151699   -6.657263
  H     -5.894636    7.567412   -5.696806
  H     -6.940423    6.332680   -6.210736
  H     -5.806236    5.876499   -4.860108
  C     -4.689874    2.477957   -5.657461
  O     -4.070348    3.742163   -5.395652
  H     -3.950294    3.802633   -4.417182
  H     -5.262581    2.615438   -6.581683
  H     -3.949888    1.703794   -5.863848
  H     -5.266612    2.155315   -4.816156

 Multiplicity           Mult            ....    1
 Number of Electrons    NEL             ....   18
 Basis Dimension        Dim             ....  172

ORBITAL ENERGIES
----------------

  NO   OCC          E(Eh)            E(eV)
   0   2.0000     -19.232027      -523.3301
   1   2.0000     -10.311430      -280.5883
   2   2.0000      -1.126393       -30.6507
   3   2.0000      -0.794491       -21.6192
   4   2.0000      -0.608930       -16.5698
   5   2.0000      -0.537333       -14.6216
   6   2.0000      -0.524186       -14.2638
   7   2.0000      -0.440853       -11.9962
   8   2.0000      -0.371384       -10.1059
   9   0.0000       0.095168         2.5896
  10   0.0000       0.125882         3.4254
  11   0.0000       0.153283         4.1710
  12   0.0000       0.179686         4.8895
  13   0.0000       0.203703         5.5430

MULLIKEN ATOMIC CHARGES
-----------------------
   0 C :    0.006951
   1 O :    0.002188
   2 H :   -0.008276
   3 H :   -0.000548
   4 H :   -0.000770
   5 H :   -0.013046
   6 C :   -0.168964
   7 O :   -0.467810
   8 H :    0.312107
   9 H :    0.122206
  10 H :    0.104096
  11 H :    0.111866
Sum of atomic charges:   -0.0000000

LOEWDIN ATOMIC CHARGES
----------------------
   0 C :   -0.008211
   1 O :   -0.006595
   2 H :   -0.031905
   3 H :   -0.000112
   4 H :   -0.000118
   5 H :   -0.006645
   6 C :   -0.367187
   7 O :   -0.060340
   8 H :    0.182631
   9 H :    0.110424
  10 H :    0.095693
  11 H :    0.092366

  Mayer bond orders larger than 0.1
B(  6-C ,  7-O ) :   0.9926 B(  6-C ,  9-H ) :   0.9809 B(  6-C , 10-H ) :   0.9695
B(  6-C , 11-H ) :   0.9796 B(  7-O ,  8-H ) :   0.8975

Dispersion correction           -0.000240506
FINAL SINGLE POINT ENERGY      -115.734851490987

DIPOLE MOMENT
-------------
                                X             Y             Z
Electronic contribution:      0.71244       1.57071       0.21859
Nuclear contribution   :     -0.88568      -2.06002       0.29084
                        -----------------------------------------
Total Dipole Moment    :     -0.17324      -0.48931       0.50943
                        -----------------------------------------
Magnitude (a.u.)       :      0.72729
Magnitude (Debye)      :      1.84862

Rotational constants in cm-1:     4.226208     0.826225     0.787269
Rotational constants in MHz : 126698.522970 24769.587914 23601.741807

                             ****ORCA TERMINATED NORMALLY****
TOTAL RUN TIME: 0 days 0 hours 1 minutes 9 seconds 783 msec
