                         Program Version 4.1.2  - RELEASE  -
|  1> #Run DFT-D3 single point of the dimer
|  2> ! wB97X-D3 def2-TZVP TIGHTSCF CHELPG PMODEL PAL8
|  3>
|  4> %base "2-110_DFT_AB"
|  5>
|  6> %scf
|  7> MaxIter 1000
|  8> end
|  9>
| 10> * xyz 0 1
| 11>   C                      -11.039653           -0.863043            -7.009951
| 12>   O                      -9.846374            -0.423377            -7.613633
| 13>   H                      -9.078687            -0.729567            -7.139579
| 14>   H                      -10.911681           -0.614363            -5.982342
| 15>   H                      -11.876190           -0.281241            -7.407889
| 16>   H                      -11.245498           -1.931224            -7.171333
| 17>   C                      -6.316329            -5.802914            -5.097869
| 18>   O                      -6.414243            -4.511786            -5.694485
| 19>   H                      -7.301852            -4.215808            -5.520922
| 20>   H                      -7.225144            -6.399396            -5.193592
| 21>   H                      -5.578863            -6.487633            -5.451147
| 22>   H                      -6.465521            -5.734463            -4.001976
| 23> *
| 24>
| 25> #Run DFT-D3 single point of the molecule with dimer basis set
| 26> $new_job
| 27> %base "2-110_DFT_A"
| 28> ! wB97X-D3 def2-TZVP TIGHTSCF CHELPG PMODEL
| 29>
| 30> %scf
| 31> MaxIter 1000
| 32> end
| 33>
| 34> * xyz 0 1
| 35>   C                      -11.039653           -0.863043            -7.009951
| 36>   O                      -9.846374            -0.423377            -7.613633
| 37>   H                      -9.078687            -0.729567            -7.139579
| 38>   H                      -10.911681           -0.614363            -5.982342
| 39>   H                      -11.876190           -0.281241            -7.407889
| 40>   H                      -11.245498           -1.931224            -7.171333
| 41>   C                    : -6.316329            -5.802914            -5.097869
| 42>   O                    : -6.414243            -4.511786            -5.694485
| 43>   H                    : -7.301852            -4.215808            -5.520922
| 44>   H                    : -7.225144            -6.399396            -5.193592
| 45>   H                    : -5.578863            -6.487633            -5.451147
| 46>   H                    : -6.465521            -5.734463            -4.001976
| 47> *
| 48>
| 49> #Run DFT-D3 single point of the particle with dimer basis set
| 50> $new_job
| 51> %base "2-110_DFT_B"
| 52> ! wB97X-D3 def2-TZVP TIGHTSCF CHELPG PMODEL
| 53>
| 54> %scf
| 55> MaxIter 1000
| 56> end
| 57>
| 58> * xyz 0 1
| 59>   C                    : -11.039653           -0.863043            -7.009951
| 60>   O                    : -9.846374            -0.423377            -7.613633
| 61>   H                    : -9.078687            -0.729567            -7.139579
| 62>   H                    : -10.911681           -0.614363            -5.982342
| 63>   H                    : -11.876190           -0.281241            -7.407889
| 64>   H                    : -11.245498           -1.931224            -7.171333
| 65>   C                      -6.316329            -5.802914            -5.097869
| 66>   O                      -6.414243            -4.511786            -5.694485
| 67>   H                      -7.301852            -4.215808            -5.520922
| 68>   H                      -7.225144            -6.399396            -5.193592
| 69>   H                      -5.578863            -6.487633            -5.451147
| 70>   H                      -6.465521            -5.734463            -4.001976
| 71> *
| 72>
| 73>                          ****END OF INPUT****
 Total Charge           Charge          ....    0
 Multiplicity           Mult            ....    1
 Number of Electrons    NEL             ....   36
Dispersion correction           -0.000574513
FINAL SINGLE POINT ENERGY      -231.455027898876
Dispersion correction           -0.000228634
FINAL SINGLE POINT ENERGY      -115.733810595547

CARTESIAN COORDINATES (ANGSTROEM)
---------------------------------
  C    -11.039653   -0.863043   -7.009951
  O     -9.846374   -0.423377   -7.613633
  H     -9.078687   -0.729567   -7.139579
  H    -10.911681   -0.614363   -5.982342
  H    -11.876190   -0.281241   -7.407889
  H    -11.245498   -1.931224   -7.171333
  C     -6.316329   -5.802914   -5.097869
  O     -6.414243   -4.511786   -5.694485
  H     -7.301852   -4.215808   -5.520922
  H     -7.225144   -6.399396   -5.193592
  H     -5.578863   -6.487633   -5.451147
  H     -6.465521   -5.734463   -4.001976

 Multiplicity           Mult            ....    1
 Number of Electrons    NEL             ....   18
 Basis Dimension        Dim             ....  172

ORBITAL ENERGIES
----------------

  NO   OCC          E(Eh)            E(eV)
   0   2.0000     -19.233601      -523.3729
   1   2.0000     -10.313787      -280.6524
   2   2.0000      -1.137698       -30.9583
   3   2.0000      -0.802533       -21.8380
   4   2.0000      -0.619224       -16.8499
   5   2.0000      -0.549135       -14.9427
   6   2.0000      -0.511246       -13.9117
   7   2.0000      -0.443870       -12.0783
   8   2.0000      -0.367559       -10.0018
   9   0.0000       0.081725         2.2239
  10   0.0000       0.113199         3.0803
  11   0.0000       0.147490         4.0134
  12   0.0000       0.167326         4.5532
  13   0.0000       0.193851         5.2750

MULLIKEN ATOMIC CHARGES
-----------------------
   0 C :   -0.000002
   1 O :    0.000002
   2 H :   -0.000023
   3 H :    0.000000
   4 H :   -0.000000
   5 H :   -0.000002
   6 C :   -0.197076
   7 O :   -0.466089
   8 H :    0.316604
   9 H :    0.103775
  10 H :    0.139501
  11 H :    0.103311
Sum of atomic charges:   -0.0000000

LOEWDIN ATOMIC CHARGES
----------------------
   0 C :   -0.000005
   1 O :   -0.000000
   2 H :   -0.000015
   3 H :   -0.000000
   4 H :   -0.000000
   5 H :   -0.000002
   6 C :   -0.391111
   7 O :   -0.078593
   8 H :    0.166982
   9 H :    0.096747
  10 H :    0.104656
  11 H :    0.101341

  Mayer bond orders larger than 0.1
B(  6-C ,  7-O ) :   0.9953 B(  6-C ,  9-H ) :   0.9762 B(  6-C , 10-H ) :   0.9686
B(  6-C , 11-H ) :   0.9765 B(  7-O ,  8-H ) :   0.8995

Dispersion correction           -0.000240279
FINAL SINGLE POINT ENERGY      -115.721421517016

DIPOLE MOMENT
-------------
                                X             Y             Z
Electronic contribution:      0.31424       1.74670      -0.96911
Nuclear contribution   :     -0.88778      -2.10288       1.29698
                        -----------------------------------------
Total Dipole Moment    :     -0.57354      -0.35618       0.32787
                        -----------------------------------------
Magnitude (a.u.)       :      0.75053
Magnitude (Debye)      :      1.90771

Rotational constants in cm-1:     4.507679     0.819289     0.775695
Rotational constants in MHz : 135136.831258 24561.660658 23254.758507

                             ****ORCA TERMINATED NORMALLY****
TOTAL RUN TIME: 0 days 0 hours 5 minutes 57 seconds 850 msec
