                         Program Version 4.1.2  - RELEASE  -
|  1> #Run DFT-D3 single point of the dimer
|  2> ! wB97X-D3 def2-TZVP TIGHTSCF CHELPG PMODEL PAL8
|  3>
|  4> %base "20-59_DFT_AB"
|  5>
|  6> %scf
|  7> MaxIter 1000
|  8> end
|  9>
| 10> * xyz 0 1
| 11>   C                      6.774995             -8.324252            -6.953877
| 12>   O                      7.881105             -8.521997            -6.079112
| 13>   H                      7.517149             -8.829247            -5.213137
| 14>   H                      6.347906             -9.271718            -7.258913
| 15>   H                      6.000089             -7.780573            -6.407686
| 16>   H                      7.153695             -7.866640            -7.863631
| 17>   C                      9.776861             -9.109288            -9.269210
| 18>   O                      10.300531            -9.021929            -10.581409
| 19>   H                      9.480383             -8.848750            -11.025954
| 20>   H                      8.931605             -9.829989            -9.327098
| 21>   H                      10.492807            -9.525603            -8.564970
| 22>   H                      9.522681             -8.060756            -8.912104
| 23> *
| 24>
| 25> #Run DFT-D3 single point of the molecule with dimer basis set
| 26> $new_job
| 27> %base "20-59_DFT_A"
| 28> ! wB97X-D3 def2-TZVP TIGHTSCF CHELPG PMODEL
| 29>
| 30> %scf
| 31> MaxIter 1000
| 32> end
| 33>
| 34> * xyz 0 1
| 35>   C                      6.774995             -8.324252            -6.953877
| 36>   O                      7.881105             -8.521997            -6.079112
| 37>   H                      7.517149             -8.829247            -5.213137
| 38>   H                      6.347906             -9.271718            -7.258913
| 39>   H                      6.000089             -7.780573            -6.407686
| 40>   H                      7.153695             -7.866640            -7.863631
| 41>   C                    : 9.776861             -9.109288            -9.269210
| 42>   O                    : 10.300531            -9.021929            -10.581409
| 43>   H                    : 9.480383             -8.848750            -11.025954
| 44>   H                    : 8.931605             -9.829989            -9.327098
| 45>   H                    : 10.492807            -9.525603            -8.564970
| 46>   H                    : 9.522681             -8.060756            -8.912104
| 47> *
| 48>
| 49> #Run DFT-D3 single point of the particle with dimer basis set
| 50> $new_job
| 51> %base "20-59_DFT_B"
| 52> ! wB97X-D3 def2-TZVP TIGHTSCF CHELPG PMODEL
| 53>
| 54> %scf
| 55> MaxIter 1000
| 56> end
| 57>
| 58> * xyz 0 1
| 59>   C                    : 6.774995             -8.324252            -6.953877
| 60>   O                    : 7.881105             -8.521997            -6.079112
| 61>   H                    : 7.517149             -8.829247            -5.213137
| 62>   H                    : 6.347906             -9.271718            -7.258913
| 63>   H                    : 6.000089             -7.780573            -6.407686
| 64>   H                    : 7.153695             -7.866640            -7.863631
| 65>   C                      9.776861             -9.109288            -9.269210
| 66>   O                      10.300531            -9.021929            -10.581409
| 67>   H                      9.480383             -8.848750            -11.025954
| 68>   H                      8.931605             -9.829989            -9.327098
| 69>   H                      10.492807            -9.525603            -8.564970
| 70>   H                      9.522681             -8.060756            -8.912104
| 71> *
| 72>
| 73>                          ****END OF INPUT****
 Total Charge           Charge          ....    0
 Multiplicity           Mult            ....    1
 Number of Electrons    NEL             ....   36
Dispersion correction           -0.001575554
FINAL SINGLE POINT ENERGY      -231.465288515876
Dispersion correction           -0.000226969
FINAL SINGLE POINT ENERGY      -115.734362829354

CARTESIAN COORDINATES (ANGSTROEM)
---------------------------------
  C      6.774995   -8.324252   -6.953877
  O      7.881105   -8.521997   -6.079112
  H      7.517149   -8.829247   -5.213137
  H      6.347906   -9.271718   -7.258913
  H      6.000089   -7.780573   -6.407686
  H      7.153695   -7.866640   -7.863631
  C      9.776861   -9.109288   -9.269210
  O     10.300531   -9.021929  -10.581409
  H      9.480383   -8.848750  -11.025954
  H      8.931605   -9.829989   -9.327098
  H     10.492807   -9.525603   -8.564970
  H      9.522681   -8.060756   -8.912104

 Multiplicity           Mult            ....    1
 Number of Electrons    NEL             ....   18
 Basis Dimension        Dim             ....  172

ORBITAL ENERGIES
----------------

  NO   OCC          E(Eh)            E(eV)
   0   2.0000     -19.229537      -523.2623
   1   2.0000     -10.320236      -280.8279
   2   2.0000      -1.145700       -31.1761
   3   2.0000      -0.786564       -21.4035
   4   2.0000      -0.604489       -16.4490
   5   2.0000      -0.549439       -14.9510
   6   2.0000      -0.528672       -14.3859
   7   2.0000      -0.437209       -11.8970
   8   2.0000      -0.373625       -10.1669
   9   0.0000       0.081324         2.2129
  10   0.0000       0.114216         3.1080
  11   0.0000       0.155893         4.2421
  12   0.0000       0.165607         4.5064
  13   0.0000       0.173129         4.7111

MULLIKEN ATOMIC CHARGES
-----------------------
   0 C :   -0.000626
   1 O :    0.000270
   2 H :    0.000011
   3 H :   -0.000075
   4 H :   -0.000125
   5 H :   -0.002193
   6 C :   -0.178648
   7 O :   -0.454078
   8 H :    0.312366
   9 H :    0.101922
  10 H :    0.121242
  11 H :    0.099934
Sum of atomic charges:   -0.0000000

LOEWDIN ATOMIC CHARGES
----------------------
   0 C :   -0.003765
   1 O :   -0.000358
   2 H :   -0.000014
   3 H :   -0.000310
   4 H :   -0.000031
   5 H :   -0.003601
   6 C :   -0.393506
   7 O :   -0.075218
   8 H :    0.166782
   9 H :    0.101073
  10 H :    0.104164
  11 H :    0.104784

  Mayer bond orders larger than 0.1
B(  6-C ,  7-O ) :   0.9974 B(  6-C ,  9-H ) :   0.9857 B(  6-C , 10-H ) :   0.9699
B(  6-C , 11-H ) :   0.9732 B(  7-O ,  8-H ) :   0.9075

Dispersion correction           -0.000208288
FINAL SINGLE POINT ENERGY      -115.729606200510

DIPOLE MOMENT
-------------
                                X             Y             Z
Electronic contribution:      0.86430       0.06717      -1.60320
Nuclear contribution   :     -1.53470      -0.02202       1.83162
                        -----------------------------------------
Total Dipole Moment    :     -0.67040       0.04516       0.22841
                        -----------------------------------------
Magnitude (a.u.)       :      0.70968
Magnitude (Debye)      :      1.80386

Rotational constants in cm-1:     4.051528     0.840900     0.820744
Rotational constants in MHz : 121461.759963 25209.549489 24605.281309

                             ****ORCA TERMINATED NORMALLY****
TOTAL RUN TIME: 0 days 0 hours 1 minutes 7 seconds 192 msec
