                         Program Version 4.1.2  - RELEASE  -
|  1> #Run DFT-D3 single point of the dimer
|  2> ! wB97X-D3 def2-TZVP TIGHTSCF CHELPG PMODEL PAL8
|  3>
|  4> %base "13-210_DFT_AB"
|  5>
|  6> %scf
|  7> MaxIter 1000
|  8> end
|  9>
| 10> * xyz 0 1
| 11>   C                      -8.511850            -0.963525            -8.511419
| 12>   O                      -7.419741            -0.358722            -7.879378
| 13>   H                      -6.722054            -0.542908            -8.465725
| 14>   H                      -8.506354            -2.102621            -8.689913
| 15>   H                      -9.434446            -0.754104            -8.016659
| 16>   H                      -8.626261            -0.625500            -9.523608
| 17>   C                      -6.945636            3.312507             -8.402463
| 18>   O                      -6.953330            2.354367             -7.433523
| 19>   H                      -6.634259            1.523126             -7.842062
| 20>   H                      -7.547421            3.051407             -9.268377
| 21>   H                      -7.182945            4.348131             -8.049637
| 22>   H                      -5.994893            3.351768             -8.844000
| 23> *
| 24>
| 25> #Run DFT-D3 single point of the molecule with dimer basis set
| 26> $new_job
| 27> %base "13-210_DFT_A"
| 28> ! wB97X-D3 def2-TZVP TIGHTSCF CHELPG PMODEL
| 29>
| 30> %scf
| 31> MaxIter 1000
| 32> end
| 33>
| 34> * xyz 0 1
| 35>   C                      -8.511850            -0.963525            -8.511419
| 36>   O                      -7.419741            -0.358722            -7.879378
| 37>   H                      -6.722054            -0.542908            -8.465725
| 38>   H                      -8.506354            -2.102621            -8.689913
| 39>   H                      -9.434446            -0.754104            -8.016659
| 40>   H                      -8.626261            -0.625500            -9.523608
| 41>   C                    : -6.945636            3.312507             -8.402463
| 42>   O                    : -6.953330            2.354367             -7.433523
| 43>   H                    : -6.634259            1.523126             -7.842062
| 44>   H                    : -7.547421            3.051407             -9.268377
| 45>   H                    : -7.182945            4.348131             -8.049637
| 46>   H                    : -5.994893            3.351768             -8.844000
| 47> *
| 48>
| 49> #Run DFT-D3 single point of the particle with dimer basis set
| 50> $new_job
| 51> %base "13-210_DFT_B"
| 52> ! wB97X-D3 def2-TZVP TIGHTSCF CHELPG PMODEL
| 53>
| 54> %scf
| 55> MaxIter 1000
| 56> end
| 57>
| 58> * xyz 0 1
| 59>   C                    : -8.511850            -0.963525            -8.511419
| 60>   O                    : -7.419741            -0.358722            -7.879378
| 61>   H                    : -6.722054            -0.542908            -8.465725
| 62>   H                    : -8.506354            -2.102621            -8.689913
| 63>   H                    : -9.434446            -0.754104            -8.016659
| 64>   H                    : -8.626261            -0.625500            -9.523608
| 65>   C                      -6.945636            3.312507             -8.402463
| 66>   O                      -6.953330            2.354367             -7.433523
| 67>   H                      -6.634259            1.523126             -7.842062
| 68>   H                      -7.547421            3.051407             -9.268377
| 69>   H                      -7.182945            4.348131             -8.049637
| 70>   H                      -5.994893            3.351768             -8.844000
| 71> *
| 72>
| 73>                          ****END OF INPUT****
 Total Charge           Charge          ....    0
 Multiplicity           Mult            ....    1
 Number of Electrons    NEL             ....   36
Dispersion correction           -0.001577940
FINAL SINGLE POINT ENERGY      -231.458544210352
Dispersion correction           -0.000241307
FINAL SINGLE POINT ENERGY      -115.729916507913

CARTESIAN COORDINATES (ANGSTROEM)
---------------------------------
  C     -8.511850   -0.963525   -8.511419
  O     -7.419741   -0.358722   -7.879378
  H     -6.722054   -0.542908   -8.465725
  H     -8.506354   -2.102621   -8.689913
  H     -9.434446   -0.754104   -8.016659
  H     -8.626261   -0.625500   -9.523608
  C     -6.945636    3.312507   -8.402463
  O     -6.953330    2.354367   -7.433523
  H     -6.634259    1.523126   -7.842062
  H     -7.547421    3.051407   -9.268377
  H     -7.182945    4.348131   -8.049637
  H     -5.994893    3.351768   -8.844000

 Multiplicity           Mult            ....    1
 Number of Electrons    NEL             ....   18
 Basis Dimension        Dim             ....  172

ORBITAL ENERGIES
----------------

  NO   OCC          E(Eh)            E(eV)
   0   2.0000     -19.233436      -523.3684
   1   2.0000     -10.305071      -280.4152
   2   2.0000      -1.151433       -31.3321
   3   2.0000      -0.794185       -21.6109
   4   2.0000      -0.625732       -17.0270
   5   2.0000      -0.543124       -14.7792
   6   2.0000      -0.536266       -14.5925
   7   2.0000      -0.433984       -11.8093
   8   2.0000      -0.367207        -9.9922
   9   0.0000       0.071631         1.9492
  10   0.0000       0.127272         3.4632
  11   0.0000       0.148541         4.0420
  12   0.0000       0.181598         4.9415
  13   0.0000       0.191463         5.2100

MULLIKEN ATOMIC CHARGES
-----------------------
   0 C :   -0.003733
   1 O :   -0.003130
   2 H :   -0.000921
   3 H :   -0.000109
   4 H :    0.000480
   5 H :    0.000060
   6 C :   -0.167276
   7 O :   -0.453816
   8 H :    0.320083
   9 H :    0.091444
  10 H :    0.115877
  11 H :    0.101041
Sum of atomic charges:   -0.0000000

LOEWDIN ATOMIC CHARGES
----------------------
   0 C :   -0.003070
   1 O :   -0.018181
   2 H :   -0.003713
   3 H :   -0.000082
   4 H :   -0.000175
   5 H :   -0.000112
   6 C :   -0.428145
   7 O :   -0.032251
   8 H :    0.196198
   9 H :    0.090610
  10 H :    0.114687
  11 H :    0.084235

  Mayer bond orders larger than 0.1
B(  6-C ,  7-O ) :   1.0074 B(  6-C ,  9-H ) :   0.9736 B(  6-C , 10-H ) :   0.9694
B(  6-C , 11-H ) :   0.9919 B(  7-O ,  8-H ) :   0.8909

Dispersion correction           -0.000208708
FINAL SINGLE POINT ENERGY      -115.729362241699

DIPOLE MOMENT
-------------
                                X             Y             Z
Electronic contribution:     -0.12549      -1.14862       1.51102
Nuclear contribution   :      0.36110       0.98859      -2.13153
                        -----------------------------------------
Total Dipole Moment    :      0.23561      -0.16003      -0.62051
                        -----------------------------------------
Magnitude (a.u.)       :      0.68275
Magnitude (Debye)      :      1.73542

Rotational constants in cm-1:     4.408927     0.886657     0.837283
Rotational constants in MHz : 132176.293302 26581.306424 25101.112520

                             ****ORCA TERMINATED NORMALLY****
TOTAL RUN TIME: 0 days 0 hours 1 minutes 3 seconds 582 msec
