                         Program Version 4.1.2  - RELEASE  -
|  1> #Run DFT geometry optimization
|  2> ! wB97X-D3 def2-TZVP TIGHTSCF Grid5 FinalGrid6 Opt CHELPG PAL4
|  3>
|  4> %base "0_geo_opt"
|  5> %geom MaxIter 500
|  6> end
|  7>
|  8> %geom
|  9>   Constraints
| 10>     { B 2 1 C }
| 11>   end
| 12> end
| 13>
| 14>
| 15> * xyz 0 1
| 16>   C                    3.011110             -1.181288            0.598733
| 17>   O                    4.394476             -1.128441            0.874549
| 18>   H                    4.772393             -0.378631            0.412252
| 19>   H                    2.806237             -1.319356            -0.469109
| 20>   H                    2.611435             -2.040656            1.136140
| 21>   H                    2.484560             -0.284882            0.945900
| 22> *
| 23>
| 24>                          ****END OF INPUT****
 Total Charge           Charge          ....    0
 Multiplicity           Mult            ....    1
 Number of Electrons    NEL             ....   18
Dispersion correction           -0.000239368
FINAL SINGLE POINT ENERGY      -115.738050348125
Dispersion correction            ... done
                    ***********************HURRAY********************

CARTESIAN COORDINATES (ANGSTROEM)
---------------------------------
  C      3.011170   -1.181309    0.598758
  O      4.394508   -1.128444    0.874544
  H      4.772342   -0.378599    0.412236
  H      2.806249   -1.319360   -0.469081
  H      2.611352   -2.040640    1.136115
  H      2.484590   -0.284903    0.945894

 Multiplicity           Mult            ....    1
 Number of Electrons    NEL             ....   18
 Basis Dimension        Dim             ....   86

ORBITAL ENERGIES
----------------

  NO   OCC          E(Eh)            E(eV)
   0   2.0000     -19.228174      -523.2252
   1   2.0000     -10.315098      -280.6881
   2   2.0000      -1.136617       -30.9289
   3   2.0000      -0.795245       -21.6397
   4   2.0000      -0.611482       -16.6393
   5   2.0000      -0.541753       -14.7419
   6   2.0000      -0.526302       -14.3214
   7   2.0000      -0.433757       -11.8031
   8   2.0000      -0.373571       -10.1654
   9   0.0000       0.116535         3.1711
  10   0.0000       0.156632         4.2622
  11   0.0000       0.202570         5.5122
  12   0.0000       0.205121         5.5816
  13   0.0000       0.226336         6.1589

MULLIKEN ATOMIC CHARGES
-----------------------
   0 C :   -0.150851
   1 O :   -0.477758
   2 H :    0.313146
   3 H :    0.098620
   4 H :    0.118219
   5 H :    0.098624
Sum of atomic charges:   -0.0000000

LOEWDIN ATOMIC CHARGES
----------------------
   0 C :   -0.385309
   1 O :   -0.076563
   2 H :    0.166419
   3 H :    0.093387
   4 H :    0.108681
   5 H :    0.093385

  Mayer bond orders larger than 0.1
B(  0-C ,  1-O ) :   0.9987 B(  0-C ,  3-H ) :   0.9755 B(  0-C ,  4-H ) :   0.9749
B(  0-C ,  5-H ) :   0.9755 B(  1-O ,  2-H ) :   0.9000

Dispersion correction           -0.000239358
FINAL SINGLE POINT ENERGY      -115.738050364581

DIPOLE MOMENT
-------------
                                X             Y             Z
Electronic contribution:      1.75594      -0.02871       0.42013
Nuclear contribution   :     -2.06556       0.47651      -0.81788
                        -----------------------------------------
Total Dipole Moment    :     -0.30962       0.44780      -0.39775
                        -----------------------------------------
Magnitude (a.u.)       :      0.67424
Magnitude (Debye)      :      1.71378

Rotational constants in cm-1:     4.291251     0.833788     0.804837
Rotational constants in MHz : 128648.475973 24996.320868 24128.417654

                             ****ORCA TERMINATED NORMALLY****
TOTAL RUN TIME: 0 days 0 hours 0 minutes 35 seconds 456 msec
