                         Program Version 4.1.2  - RELEASE  -
|  1> #Run DFT-D3 single point of the dimer
|  2> ! wB97X-D3 def2-TZVP TIGHTSCF CHELPG PMODEL PAL8
|  3>
|  4> %base "22-102_DFT_AB"
|  5>
|  6> %scf
|  7> MaxIter 1000
|  8> end
|  9>
| 10> * xyz 0 1
| 11>   C                      5.079205             10.088721            1.155748
| 12>   O                      4.727494             10.801788            -0.003881
| 13>   H                      5.357990             11.570185            -0.053049
| 14>   H                      4.991311             9.059950             0.974332
| 15>   H                      6.151954             10.261616            1.523012
| 16>   H                      4.377701             10.170308            2.005355
| 17>   C                      9.892906             9.948220             2.234763
| 18>   O                      9.866900             11.239805            2.819834
| 19>   H                      10.462097            11.343286            3.650748
| 20>   H                      9.950216             9.143950             2.926643
| 21>   H                      9.032625             9.820571             1.548276
| 22>   H                      10.853482            9.926381             1.630245
| 23> *
| 24>
| 25> #Run DFT-D3 single point of the molecule with dimer basis set
| 26> $new_job
| 27> %base "22-102_DFT_A"
| 28> ! wB97X-D3 def2-TZVP TIGHTSCF CHELPG PMODEL
| 29>
| 30> %scf
| 31> MaxIter 1000
| 32> end
| 33>
| 34> * xyz 0 1
| 35>   C                      5.079205             10.088721            1.155748
| 36>   O                      4.727494             10.801788            -0.003881
| 37>   H                      5.357990             11.570185            -0.053049
| 38>   H                      4.991311             9.059950             0.974332
| 39>   H                      6.151954             10.261616            1.523012
| 40>   H                      4.377701             10.170308            2.005355
| 41>   C                    : 9.892906             9.948220             2.234763
| 42>   O                    : 9.866900             11.239805            2.819834
| 43>   H                    : 10.462097            11.343286            3.650748
| 44>   H                    : 9.950216             9.143950             2.926643
| 45>   H                    : 9.032625             9.820571             1.548276
| 46>   H                    : 10.853482            9.926381             1.630245
| 47> *
| 48>
| 49> #Run DFT-D3 single point of the particle with dimer basis set
| 50> $new_job
| 51> %base "22-102_DFT_B"
| 52> ! wB97X-D3 def2-TZVP TIGHTSCF CHELPG PMODEL
| 53>
| 54> %scf
| 55> MaxIter 1000
| 56> end
| 57>
| 58> * xyz 0 1
| 59>   C                    : 5.079205             10.088721            1.155748
| 60>   O                    : 4.727494             10.801788            -0.003881
| 61>   H                    : 5.357990             11.570185            -0.053049
| 62>   H                    : 4.991311             9.059950             0.974332
| 63>   H                    : 6.151954             10.261616            1.523012
| 64>   H                    : 4.377701             10.170308            2.005355
| 65>   C                      9.892906             9.948220             2.234763
| 66>   O                      9.866900             11.239805            2.819834
| 67>   H                      10.462097            11.343286            3.650748
| 68>   H                      9.950216             9.143950             2.926643
| 69>   H                      9.032625             9.820571             1.548276
| 70>   H                      10.853482            9.926381             1.630245
| 71> *
| 72>
| 73>                          ****END OF INPUT****
 Total Charge           Charge          ....    0
 Multiplicity           Mult            ....    1
 Number of Electrons    NEL             ....   36
Dispersion correction           -0.000945135
FINAL SINGLE POINT ENERGY      -231.457343580481
Dispersion correction           -0.000265139
FINAL SINGLE POINT ENERGY      -115.728545272966

CARTESIAN COORDINATES (ANGSTROEM)
---------------------------------
  C      5.079205   10.088721    1.155748
  O      4.727494   10.801788   -0.003881
  H      5.357990   11.570185   -0.053049
  H      4.991311    9.059950    0.974332
  H      6.151954   10.261616    1.523012
  H      4.377701   10.170308    2.005355
  C      9.892906    9.948220    2.234763
  O      9.866900   11.239805    2.819834
  H     10.462097   11.343286    3.650748
  H      9.950216    9.143950    2.926643
  H      9.032625    9.820571    1.548276
  H     10.853482    9.926381    1.630245

 Multiplicity           Mult            ....    1
 Number of Electrons    NEL             ....   18
 Basis Dimension        Dim             ....  172

ORBITAL ENERGIES
----------------

  NO   OCC          E(Eh)            E(eV)
   0   2.0000     -19.230759      -523.2956
   1   2.0000     -10.315913      -280.7103
   2   2.0000      -1.118390       -30.4329
   3   2.0000      -0.789657       -21.4877
   4   2.0000      -0.605043       -16.4641
   5   2.0000      -0.533709       -14.5230
   6   2.0000      -0.526184       -14.3182
   7   2.0000      -0.427312       -11.6278
   8   2.0000      -0.364872        -9.9287
   9   0.0000       0.089996         2.4489
  10   0.0000       0.107987         2.9385
  11   0.0000       0.150508         4.0955
  12   0.0000       0.167980         4.5710
  13   0.0000       0.185785         5.0555

MULLIKEN ATOMIC CHARGES
-----------------------
   0 C :   -0.001249
   1 O :    0.000020
   2 H :   -0.000007
   3 H :    0.000106
   4 H :    0.001804
   5 H :    0.000016
   6 C :   -0.153395
   7 O :   -0.495812
   8 H :    0.319776
   9 H :    0.105361
  10 H :    0.123170
  11 H :    0.100210
Sum of atomic charges:   -0.0000000

LOEWDIN ATOMIC CHARGES
----------------------
   0 C :   -0.000319
   1 O :   -0.000002
   2 H :   -0.000003
   3 H :   -0.000009
   4 H :   -0.000675
   5 H :   -0.000002
   6 C :   -0.385073
   7 O :   -0.116596
   8 H :    0.203134
   9 H :    0.085439
  10 H :    0.111503
  11 H :    0.102600

  Mayer bond orders larger than 0.1
B(  6-C ,  7-O ) :   0.9939 B(  6-C ,  9-H ) :   0.9718 B(  6-C , 10-H ) :   0.9675
B(  6-C , 11-H ) :   0.9879 B(  7-O ,  8-H ) :   0.8833

Dispersion correction           -0.000258909
FINAL SINGLE POINT ENERGY      -115.727911751667

DIPOLE MOMENT
-------------
                                X             Y             Z
Electronic contribution:     -0.27156       1.57814       0.72865
Nuclear contribution   :      0.64426      -2.04886      -0.42242
                        -----------------------------------------
Total Dipole Moment    :      0.37270      -0.47072       0.30623
                        -----------------------------------------
Magnitude (a.u.)       :      0.67399
Magnitude (Debye)      :      1.71313

Rotational constants in cm-1:     4.186528     0.818923     0.787124
Rotational constants in MHz : 125508.948342 24550.702029 23597.398319

                             ****ORCA TERMINATED NORMALLY****
TOTAL RUN TIME: 0 days 0 hours 0 minutes 53 seconds 895 msec
