                         Program Version 4.1.2  - RELEASE  -
|  1> #Run DFT-D3 single point of the dimer
|  2> ! wB97X-D3 def2-TZVP TIGHTSCF CHELPG PMODEL PAL8
|  3>
|  4> %base "12-204_DFT_AB"
|  5>
|  6> %scf
|  7> MaxIter 1000
|  8> end
|  9>
| 10> * xyz 0 1
| 11>   C                      -1.886966            3.401750             -6.044239
| 12>   O                      -0.921737            4.078071             -6.853895
| 13>   H                      -0.892529            4.940198             -6.472396
| 14>   H                      -2.806686            4.015178             -6.070793
| 15>   H                      -2.034100            2.396483             -6.525987
| 16>   H                      -1.610210            3.299918             -5.032761
| 17>   C                      -0.185844            2.691163             -9.628898
| 18>   O                      0.109350             1.924719             -8.554653
| 19>   H                      -0.008046            2.536020             -7.847624
| 20>   H                      -1.233257            2.868429             -9.660183
| 21>   H                      0.324916             3.674351             -9.649120
| 22>   H                      0.084191             2.225719             -10.584759
| 23> *
| 24>
| 25> #Run DFT-D3 single point of the molecule with dimer basis set
| 26> $new_job
| 27> %base "12-204_DFT_A"
| 28> ! wB97X-D3 def2-TZVP TIGHTSCF CHELPG PMODEL
| 29>
| 30> %scf
| 31> MaxIter 1000
| 32> end
| 33>
| 34> * xyz 0 1
| 35>   C                      -1.886966            3.401750             -6.044239
| 36>   O                      -0.921737            4.078071             -6.853895
| 37>   H                      -0.892529            4.940198             -6.472396
| 38>   H                      -2.806686            4.015178             -6.070793
| 39>   H                      -2.034100            2.396483             -6.525987
| 40>   H                      -1.610210            3.299918             -5.032761
| 41>   C                    : -0.185844            2.691163             -9.628898
| 42>   O                    : 0.109350             1.924719             -8.554653
| 43>   H                    : -0.008046            2.536020             -7.847624
| 44>   H                    : -1.233257            2.868429             -9.660183
| 45>   H                    : 0.324916             3.674351             -9.649120
| 46>   H                    : 0.084191             2.225719             -10.584759
| 47> *
| 48>
| 49> #Run DFT-D3 single point of the particle with dimer basis set
| 50> $new_job
| 51> %base "12-204_DFT_B"
| 52> ! wB97X-D3 def2-TZVP TIGHTSCF CHELPG PMODEL
| 53>
| 54> %scf
| 55> MaxIter 1000
| 56> end
| 57>
| 58> * xyz 0 1
| 59>   C                    : -1.886966            3.401750             -6.044239
| 60>   O                    : -0.921737            4.078071             -6.853895
| 61>   H                    : -0.892529            4.940198             -6.472396
| 62>   H                    : -2.806686            4.015178             -6.070793
| 63>   H                    : -2.034100            2.396483             -6.525987
| 64>   H                    : -1.610210            3.299918             -5.032761
| 65>   C                      -0.185844            2.691163             -9.628898
| 66>   O                      0.109350             1.924719             -8.554653
| 67>   H                      -0.008046            2.536020             -7.847624
| 68>   H                      -1.233257            2.868429             -9.660183
| 69>   H                      0.324916             3.674351             -9.649120
| 70>   H                      0.084191             2.225719             -10.584759
| 71> *
| 72>
| 73>                          ****END OF INPUT****
 Total Charge           Charge          ....    0
 Multiplicity           Mult            ....    1
 Number of Electrons    NEL             ....   36
Dispersion correction           -0.002031718
FINAL SINGLE POINT ENERGY      -231.472682348767
Dispersion correction           -0.000217446
FINAL SINGLE POINT ENERGY      -115.733282435427

CARTESIAN COORDINATES (ANGSTROEM)
---------------------------------
  C     -1.886966    3.401750   -6.044239
  O     -0.921737    4.078071   -6.853895
  H     -0.892529    4.940198   -6.472396
  H     -2.806686    4.015178   -6.070793
  H     -2.034100    2.396483   -6.525987
  H     -1.610210    3.299918   -5.032761
  C     -0.185844    2.691163   -9.628898
  O      0.109350    1.924719   -8.554653
  H     -0.008046    2.536020   -7.847624
  H     -1.233257    2.868429   -9.660183
  H      0.324916    3.674351   -9.649120
  H      0.084191    2.225719  -10.584759

 Multiplicity           Mult            ....    1
 Number of Electrons    NEL             ....   18
 Basis Dimension        Dim             ....  172

ORBITAL ENERGIES
----------------

  NO   OCC          E(Eh)            E(eV)
   0   2.0000     -19.232608      -523.3459
   1   2.0000     -10.306054      -280.4420
   2   2.0000      -1.167097       -31.7583
   3   2.0000      -0.793485       -21.5918
   4   2.0000      -0.625744       -17.0274
   5   2.0000      -0.554988       -15.1020
   6   2.0000      -0.537184       -14.6175
   7   2.0000      -0.434262       -11.8169
   8   2.0000      -0.372919       -10.1476
   9   0.0000       0.070180         1.9097
  10   0.0000       0.136639         3.7181
  11   0.0000       0.156999         4.2722
  12   0.0000       0.159570         4.3421
  13   0.0000       0.188928         5.1410

MULLIKEN ATOMIC CHARGES
-----------------------
   0 C :   -0.000408
   1 O :   -0.003132
   2 H :   -0.000177
   3 H :   -0.000084
   4 H :   -0.005488
   5 H :    0.000021
   6 C :   -0.170589
   7 O :   -0.440811
   8 H :    0.314889
   9 H :    0.099275
  10 H :    0.092529
  11 H :    0.113975
Sum of atomic charges:   -0.0000000

LOEWDIN ATOMIC CHARGES
----------------------
   0 C :   -0.006109
   1 O :   -0.013741
   2 H :   -0.000481
   3 H :   -0.000071
   4 H :   -0.003736
   5 H :   -0.000089
   6 C :   -0.435748
   7 O :   -0.005232
   8 H :    0.173534
   9 H :    0.087669
  10 H :    0.095814
  11 H :    0.108190

  Mayer bond orders larger than 0.1
B(  6-C ,  7-O ) :   1.0013 B(  6-C ,  9-H ) :   0.9825 B(  6-C , 10-H ) :   0.9830
B(  6-C , 11-H ) :   0.9737 B(  7-O ,  8-H ) :   0.9107

Dispersion correction           -0.000197819
FINAL SINGLE POINT ENERGY      -115.731000028057

DIPOLE MOMENT
-------------
                                X             Y             Z
Electronic contribution:      0.45075      -1.22971       1.42189
Nuclear contribution   :     -0.62374       1.87297      -1.37060
                        -----------------------------------------
Total Dipole Moment    :     -0.17299       0.64326       0.05128
                        -----------------------------------------
Magnitude (a.u.)       :      0.66809
Magnitude (Debye)      :      1.69815

Rotational constants in cm-1:     4.388499     0.898307     0.863143
Rotational constants in MHz : 131563.880104 26930.559368 25876.389193

                             ****ORCA TERMINATED NORMALLY****
TOTAL RUN TIME: 0 days 0 hours 1 minutes 15 seconds 569 msec
