                         Program Version 4.1.2  - RELEASE  -
|  1> #Run DFT-D3 single point of the dimer
|  2> ! wB97X-D3 def2-TZVP TIGHTSCF CHELPG PMODEL PAL8
|  3>
|  4> %base "22-38_DFT_AB"
|  5>
|  6> %scf
|  7> MaxIter 1000
|  8> end
|  9>
| 10> * xyz 0 1
| 11>   C                      3.346385             5.166609             -0.324777
| 12>   O                      4.605433             4.856927             -0.851271
| 13>   H                      4.735588             5.658297             -1.389277
| 14>   H                      2.939554             4.225934             -0.016089
| 15>   H                      3.411675             5.727115             0.579502
| 16>   H                      2.613158             5.716876             -1.000328
| 17>   C                      5.079205             10.088721            1.155748
| 18>   O                      4.727494             10.801788            -0.003881
| 19>   H                      5.357990             11.570185            -0.053049
| 20>   H                      4.991311             9.059950             0.974332
| 21>   H                      6.151954             10.261616            1.523012
| 22>   H                      4.377701             10.170308            2.005355
| 23> *
| 24>
| 25> #Run DFT-D3 single point of the molecule with dimer basis set
| 26> $new_job
| 27> %base "22-38_DFT_A"
| 28> ! wB97X-D3 def2-TZVP TIGHTSCF CHELPG PMODEL
| 29>
| 30> %scf
| 31> MaxIter 1000
| 32> end
| 33>
| 34> * xyz 0 1
| 35>   C                      3.346385             5.166609             -0.324777
| 36>   O                      4.605433             4.856927             -0.851271
| 37>   H                      4.735588             5.658297             -1.389277
| 38>   H                      2.939554             4.225934             -0.016089
| 39>   H                      3.411675             5.727115             0.579502
| 40>   H                      2.613158             5.716876             -1.000328
| 41>   C                    : 5.079205             10.088721            1.155748
| 42>   O                    : 4.727494             10.801788            -0.003881
| 43>   H                    : 5.357990             11.570185            -0.053049
| 44>   H                    : 4.991311             9.059950             0.974332
| 45>   H                    : 6.151954             10.261616            1.523012
| 46>   H                    : 4.377701             10.170308            2.005355
| 47> *
| 48>
| 49> #Run DFT-D3 single point of the particle with dimer basis set
| 50> $new_job
| 51> %base "22-38_DFT_B"
| 52> ! wB97X-D3 def2-TZVP TIGHTSCF CHELPG PMODEL
| 53>
| 54> %scf
| 55> MaxIter 1000
| 56> end
| 57>
| 58> * xyz 0 1
| 59>   C                    : 3.346385             5.166609             -0.324777
| 60>   O                    : 4.605433             4.856927             -0.851271
| 61>   H                    : 4.735588             5.658297             -1.389277
| 62>   H                    : 2.939554             4.225934             -0.016089
| 63>   H                    : 3.411675             5.727115             0.579502
| 64>   H                    : 2.613158             5.716876             -1.000328
| 65>   C                      5.079205             10.088721            1.155748
| 66>   O                      4.727494             10.801788            -0.003881
| 67>   H                      5.357990             11.570185            -0.053049
| 68>   H                      4.991311             9.059950             0.974332
| 69>   H                      6.151954             10.261616            1.523012
| 70>   H                      4.377701             10.170308            2.005355
| 71> *
| 72>
| 73>                          ****END OF INPUT****
 Total Charge           Charge          ....    0
 Multiplicity           Mult            ....    1
 Number of Electrons    NEL             ....   36
Dispersion correction           -0.000734320
FINAL SINGLE POINT ENERGY      -231.458495009303
Dispersion correction           -0.000224358
FINAL SINGLE POINT ENERGY      -115.729267821138

CARTESIAN COORDINATES (ANGSTROEM)
---------------------------------
  C      3.346385    5.166609   -0.324777
  O      4.605433    4.856927   -0.851271
  H      4.735588    5.658297   -1.389277
  H      2.939554    4.225934   -0.016089
  H      3.411675    5.727115    0.579502
  H      2.613158    5.716876   -1.000328
  C      5.079205   10.088721    1.155748
  O      4.727494   10.801788   -0.003881
  H      5.357990   11.570185   -0.053049
  H      4.991311    9.059950    0.974332
  H      6.151954   10.261616    1.523012
  H      4.377701   10.170308    2.005355

 Multiplicity           Mult            ....    1
 Number of Electrons    NEL             ....   18
 Basis Dimension        Dim             ....  172

ORBITAL ENERGIES
----------------

  NO   OCC          E(Eh)            E(eV)
   0   2.0000     -19.237346      -523.4748
   1   2.0000     -10.313669      -280.6492
   2   2.0000      -1.135149       -30.8890
   3   2.0000      -0.794254       -21.6128
   4   2.0000      -0.607377       -16.5276
   5   2.0000      -0.536741       -14.6055
   6   2.0000      -0.530097       -14.4247
   7   2.0000      -0.435873       -11.8607
   8   2.0000      -0.371573       -10.1110
   9   0.0000       0.086523         2.3544
  10   0.0000       0.110025         2.9939
  11   0.0000       0.148379         4.0376
  12   0.0000       0.168847         4.5946
  13   0.0000       0.185072         5.0361

MULLIKEN ATOMIC CHARGES
-----------------------
   0 C :    0.000029
   1 O :   -0.000010
   2 H :   -0.000007
   3 H :    0.000006
   4 H :   -0.000040
   5 H :   -0.000011
   6 C :   -0.179098
   7 O :   -0.464365
   8 H :    0.321942
   9 H :    0.121970
  10 H :    0.100722
  11 H :    0.098863
Sum of atomic charges:   -0.0000000

LOEWDIN ATOMIC CHARGES
----------------------
   0 C :   -0.000118
   1 O :   -0.000003
   2 H :   -0.000023
   3 H :   -0.000000
   4 H :   -0.000143
   5 H :   -0.000003
   6 C :   -0.406946
   7 O :   -0.082505
   8 H :    0.193651
   9 H :    0.093248
  10 H :    0.105648
  11 H :    0.097194

  Mayer bond orders larger than 0.1
B(  6-C ,  7-O ) :   1.0218 B(  6-C ,  9-H ) :   0.9793 B(  6-C , 10-H ) :   0.9802
B(  6-C , 11-H ) :   0.9724 B(  7-O ,  8-H ) :   0.8939

Dispersion correction           -0.000265139
FINAL SINGLE POINT ENERGY      -115.728537259286

DIPOLE MOMENT
-------------
                                X             Y             Z
Electronic contribution:     -0.59182       0.92872      -1.63203
Nuclear contribution   :      1.11718      -0.75121       2.02222
                        -----------------------------------------
Total Dipole Moment    :      0.52536       0.17751       0.39019
                        -----------------------------------------
Magnitude (a.u.)       :      0.67805
Magnitude (Debye)      :      1.72348

Rotational constants in cm-1:     4.308490     0.833896     0.790557
Rotational constants in MHz : 129165.277007 24999.559902 23700.300551

                             ****ORCA TERMINATED NORMALLY****
TOTAL RUN TIME: 0 days 0 hours 0 minutes 55 seconds 738 msec
