                         Program Version 4.1.2  - RELEASE  -
|  1> #Run DFT-D3 single point of the dimer
|  2> ! wB97X-D3 def2-TZVP TIGHTSCF CHELPG PMODEL PAL8
|  3>
|  4> %base "3-59_DFT_AB"
|  5>
|  6> %scf
|  7> MaxIter 1000
|  8> end
|  9>
| 10> * xyz 0 1
| 11>   C                      -8.550756            3.122368             3.230009
| 12>   O                      -8.562572            2.964860             1.793958
| 13>   H                      -8.190921            3.761981             1.375839
| 14>   H                      -9.274297            2.452273             3.762807
| 15>   H                      -7.574168            2.767367             3.602449
| 16>   H                      -8.847867            4.108928             3.617314
| 17>   C                      -9.453415            2.272637             -1.854125
| 18>   O                      -10.232456           1.206431             -1.363501
| 19>   H                      -11.006896           1.523808             -0.899338
| 20>   H                      -10.083920           3.094927             -2.171707
| 21>   H                      -8.932081            2.767258             -0.972822
| 22>   H                      -8.653163            1.996415             -2.563846
| 23> *
| 24>
| 25> #Run DFT-D3 single point of the molecule with dimer basis set
| 26> $new_job
| 27> %base "3-59_DFT_A"
| 28> ! wB97X-D3 def2-TZVP TIGHTSCF CHELPG PMODEL
| 29>
| 30> %scf
| 31> MaxIter 1000
| 32> end
| 33>
| 34> * xyz 0 1
| 35>   C                      -8.550756            3.122368             3.230009
| 36>   O                      -8.562572            2.964860             1.793958
| 37>   H                      -8.190921            3.761981             1.375839
| 38>   H                      -9.274297            2.452273             3.762807
| 39>   H                      -7.574168            2.767367             3.602449
| 40>   H                      -8.847867            4.108928             3.617314
| 41>   C                    : -9.453415            2.272637             -1.854125
| 42>   O                    : -10.232456           1.206431             -1.363501
| 43>   H                    : -11.006896           1.523808             -0.899338
| 44>   H                    : -10.083920           3.094927             -2.171707
| 45>   H                    : -8.932081            2.767258             -0.972822
| 46>   H                    : -8.653163            1.996415             -2.563846
| 47> *
| 48>
| 49> #Run DFT-D3 single point of the particle with dimer basis set
| 50> $new_job
| 51> %base "3-59_DFT_B"
| 52> ! wB97X-D3 def2-TZVP TIGHTSCF CHELPG PMODEL
| 53>
| 54> %scf
| 55> MaxIter 1000
| 56> end
| 57>
| 58> * xyz 0 1
| 59>   C                    : -8.550756            3.122368             3.230009
| 60>   O                    : -8.562572            2.964860             1.793958
| 61>   H                    : -8.190921            3.761981             1.375839
| 62>   H                    : -9.274297            2.452273             3.762807
| 63>   H                    : -7.574168            2.767367             3.602449
| 64>   H                    : -8.847867            4.108928             3.617314
| 65>   C                      -9.453415            2.272637             -1.854125
| 66>   O                      -10.232456           1.206431             -1.363501
| 67>   H                      -11.006896           1.523808             -0.899338
| 68>   H                      -10.083920           3.094927             -2.171707
| 69>   H                      -8.932081            2.767258             -0.972822
| 70>   H                      -8.653163            1.996415             -2.563846
| 71> *
| 72>
| 73>                          ****END OF INPUT****
 Total Charge           Charge          ....    0
 Multiplicity           Mult            ....    1
 Number of Electrons    NEL             ....   36
Dispersion correction           -0.001253242
FINAL SINGLE POINT ENERGY      -231.461906862909
Dispersion correction           -0.000281362
FINAL SINGLE POINT ENERGY      -115.731413212730

CARTESIAN COORDINATES (ANGSTROEM)
---------------------------------
  C     -8.550756    3.122368    3.230009
  O     -8.562572    2.964860    1.793958
  H     -8.190921    3.761981    1.375839
  H     -9.274297    2.452273    3.762807
  H     -7.574168    2.767367    3.602449
  H     -8.847867    4.108928    3.617314
  C     -9.453415    2.272637   -1.854125
  O    -10.232456    1.206431   -1.363501
  H    -11.006896    1.523808   -0.899338
  H    -10.083920    3.094927   -2.171707
  H     -8.932081    2.767258   -0.972822
  H     -8.653163    1.996415   -2.563846

 Multiplicity           Mult            ....    1
 Number of Electrons    NEL             ....   18
 Basis Dimension        Dim             ....  172

ORBITAL ENERGIES
----------------

  NO   OCC          E(Eh)            E(eV)
   0   2.0000     -19.228626      -523.2375
   1   2.0000     -10.318444      -280.7791
   2   2.0000      -1.136677       -30.9306
   3   2.0000      -0.794304       -21.6141
   4   2.0000      -0.616596       -16.7784
   5   2.0000      -0.539220       -14.6729
   6   2.0000      -0.525304       -14.2942
   7   2.0000      -0.434366       -11.8197
   8   2.0000      -0.364985        -9.9318
   9   0.0000       0.084053         2.2872
  10   0.0000       0.115641         3.1468
  11   0.0000       0.144875         3.9422
  12   0.0000       0.169789         4.6202
  13   0.0000       0.196977         5.3600

MULLIKEN ATOMIC CHARGES
-----------------------
   0 C :    0.000552
   1 O :    0.001405
   2 H :   -0.000507
   3 H :   -0.000003
   4 H :   -0.000028
   5 H :   -0.000020
   6 C :   -0.163976
   7 O :   -0.479007
   8 H :    0.318322
   9 H :    0.109250
  10 H :    0.083027
  11 H :    0.130984
Sum of atomic charges:    0.0000000

LOEWDIN ATOMIC CHARGES
----------------------
   0 C :   -0.000082
   1 O :   -0.002338
   2 H :   -0.002849
   3 H :   -0.000004
   4 H :   -0.000003
   5 H :   -0.000002
   6 C :   -0.393611
   7 O :   -0.075326
   8 H :    0.168002
   9 H :    0.093269
  10 H :    0.101005
  11 H :    0.111939

  Mayer bond orders larger than 0.1
B(  6-C ,  7-O ) :   0.9948 B(  6-C ,  9-H ) :   0.9818 B(  6-C , 10-H ) :   0.9778
B(  6-C , 11-H ) :   0.9678 B(  7-O ,  8-H ) :   0.8945

Dispersion correction           -0.000242712
FINAL SINGLE POINT ENERGY      -115.730227212474

DIPOLE MOMENT
-------------
                                X             Y             Z
Electronic contribution:     -0.95022      -1.59326       0.35259
Nuclear contribution   :      0.74711       2.22916      -0.25276
                        -----------------------------------------
Total Dipole Moment    :     -0.20311       0.63590       0.09983
                        -----------------------------------------
Magnitude (a.u.)       :      0.67497
Magnitude (Debye)      :      1.71565

Rotational constants in cm-1:     4.296327     0.832584     0.792526
Rotational constants in MHz : 128800.634877 24960.247179 23759.334309

                             ****ORCA TERMINATED NORMALLY****
TOTAL RUN TIME: 0 days 0 hours 6 minutes 2 seconds 317 msec
