                         Program Version 4.1.2  - RELEASE  -
|  1> #Run DFT-D3 single point of the dimer
|  2> ! wB97X-D3 def2-TZVP TIGHTSCF CHELPG PMODEL PAL8
|  3>
|  4> %base "12-98_DFT_AB"
|  5>
|  6> %scf
|  7> MaxIter 1000
|  8> end
|  9>
| 10> * xyz 0 1
| 11>   C                      7.069487             6.948817             1.348319
| 12>   O                      6.833436             7.462442             0.067141
| 13>   H                      6.469724             6.786522             -0.512093
| 14>   H                      6.543788             6.020128             1.325691
| 15>   H                      8.106300             6.629288             1.569079
| 16>   H                      6.689718             7.616708             2.082214
| 17>   C                      4.935027             10.096146            -2.149973
| 18>   O                      3.643900             10.409832            -1.754304
| 19>   H                      3.059249             9.656433             -1.985649
| 20>   H                      4.791418             9.622786             -3.172130
| 21>   H                      5.548370             10.968374            -2.274996
| 22>   H                      5.286407             9.378235             -1.404877
| 23> *
| 24>
| 25> #Run DFT-D3 single point of the molecule with dimer basis set
| 26> $new_job
| 27> %base "12-98_DFT_A"
| 28> ! wB97X-D3 def2-TZVP TIGHTSCF CHELPG PMODEL
| 29>
| 30> %scf
| 31> MaxIter 1000
| 32> end
| 33>
| 34> * xyz 0 1
| 35>   C                      7.069487             6.948817             1.348319
| 36>   O                      6.833436             7.462442             0.067141
| 37>   H                      6.469724             6.786522             -0.512093
| 38>   H                      6.543788             6.020128             1.325691
| 39>   H                      8.106300             6.629288             1.569079
| 40>   H                      6.689718             7.616708             2.082214
| 41>   C                    : 4.935027             10.096146            -2.149973
| 42>   O                    : 3.643900             10.409832            -1.754304
| 43>   H                    : 3.059249             9.656433             -1.985649
| 44>   H                    : 4.791418             9.622786             -3.172130
| 45>   H                    : 5.548370             10.968374            -2.274996
| 46>   H                    : 5.286407             9.378235             -1.404877
| 47> *
| 48>
| 49> #Run DFT-D3 single point of the particle with dimer basis set
| 50> $new_job
| 51> %base "12-98_DFT_B"
| 52> ! wB97X-D3 def2-TZVP TIGHTSCF CHELPG PMODEL
| 53>
| 54> %scf
| 55> MaxIter 1000
| 56> end
| 57>
| 58> * xyz 0 1
| 59>   C                    : 7.069487             6.948817             1.348319
| 60>   O                    : 6.833436             7.462442             0.067141
| 61>   H                    : 6.469724             6.786522             -0.512093
| 62>   H                    : 6.543788             6.020128             1.325691
| 63>   H                    : 8.106300             6.629288             1.569079
| 64>   H                    : 6.689718             7.616708             2.082214
| 65>   C                      4.935027             10.096146            -2.149973
| 66>   O                      3.643900             10.409832            -1.754304
| 67>   H                      3.059249             9.656433             -1.985649
| 68>   H                      4.791418             9.622786             -3.172130
| 69>   H                      5.548370             10.968374            -2.274996
| 70>   H                      5.286407             9.378235             -1.404877
| 71> *
| 72>
| 73>                          ****END OF INPUT****
 Total Charge           Charge          ....    0
 Multiplicity           Mult            ....    1
 Number of Electrons    NEL             ....   36
Dispersion correction           -0.001039154
FINAL SINGLE POINT ENERGY      -231.458541040039
Dispersion correction           -0.000230809
FINAL SINGLE POINT ENERGY      -115.729200038541

CARTESIAN COORDINATES (ANGSTROEM)
---------------------------------
  C      7.069487    6.948817    1.348319
  O      6.833436    7.462442    0.067141
  H      6.469724    6.786522   -0.512093
  H      6.543788    6.020128    1.325691
  H      8.106300    6.629288    1.569079
  H      6.689718    7.616708    2.082214
  C      4.935027   10.096146   -2.149973
  O      3.643900   10.409832   -1.754304
  H      3.059249    9.656433   -1.985649
  H      4.791418    9.622786   -3.172130
  H      5.548370   10.968374   -2.274996
  H      5.286407    9.378235   -1.404877

 Multiplicity           Mult            ....    1
 Number of Electrons    NEL             ....   18
 Basis Dimension        Dim             ....  172

ORBITAL ENERGIES
----------------

  NO   OCC          E(Eh)            E(eV)
   0   2.0000     -19.224320      -523.1204
   1   2.0000     -10.312245      -280.6104
   2   2.0000      -1.139352       -31.0033
   3   2.0000      -0.787547       -21.4302
   4   2.0000      -0.605063       -16.4646
   5   2.0000      -0.555324       -15.1111
   6   2.0000      -0.533907       -14.5283
   7   2.0000      -0.422082       -11.4854
   8   2.0000      -0.365775        -9.9533
   9   0.0000       0.084077         2.2878
  10   0.0000       0.110574         3.0089
  11   0.0000       0.150428         4.0933
  12   0.0000       0.174890         4.7590
  13   0.0000       0.186086         5.0637

MULLIKEN ATOMIC CHARGES
-----------------------
   0 C :   -0.000239
   1 O :   -0.000316
   2 H :   -0.000420
   3 H :    0.000003
   4 H :    0.000005
   5 H :   -0.000006
   6 C :   -0.161531
   7 O :   -0.477374
   8 H :    0.319781
   9 H :    0.093171
  10 H :    0.120592
  11 H :    0.106333
Sum of atomic charges:    0.0000000

LOEWDIN ATOMIC CHARGES
----------------------
   0 C :   -0.000273
   1 O :   -0.002467
   2 H :   -0.001012
   3 H :   -0.000006
   4 H :   -0.000006
   5 H :   -0.000022
   6 C :   -0.403558
   7 O :   -0.078062
   8 H :    0.183165
   9 H :    0.102927
  10 H :    0.101888
  11 H :    0.097425

  Mayer bond orders larger than 0.1
B(  6-C ,  7-O ) :   0.9829 B(  6-C ,  9-H ) :   0.9939 B(  6-C , 10-H ) :   0.9644
B(  6-C , 11-H ) :   0.9811 B(  7-O ,  8-H ) :   0.8935

Dispersion correction           -0.000200423
FINAL SINGLE POINT ENERGY      -115.728457325044

DIPOLE MOMENT
-------------
                                X             Y             Z
Electronic contribution:     -1.42426       0.63821       0.63223
Nuclear contribution   :      1.54526      -1.20737      -0.93335
                        -----------------------------------------
Total Dipole Moment    :      0.12100      -0.56917      -0.30112
                        -----------------------------------------
Magnitude (a.u.)       :      0.65518
Magnitude (Debye)      :      1.66534

Rotational constants in cm-1:     4.080424     0.871048     0.843236
Rotational constants in MHz : 122328.028070 26113.356492 25279.594282

                             ****ORCA TERMINATED NORMALLY****
TOTAL RUN TIME: 0 days 0 hours 0 minutes 42 seconds 681 msec
