                         Program Version 4.1.2  - RELEASE  -
|  1> #Run DFT-D3 single point of the dimer
|  2> ! wB97X-D3 def2-TZVP TIGHTSCF CHELPG PMODEL PAL8
|  3>
|  4> %base "19-172_DFT_AB"
|  5>
|  6> %scf
|  7> MaxIter 1000
|  8> end
|  9>
| 10> * xyz 0 1
| 11>   C                      -7.054189            -10.202237           -8.208105
| 12>   O                      -7.807311            -10.115136           -7.076616
| 13>   H                      -8.441169            -9.383807            -7.207022
| 14>   H                      -6.824841            -9.282687            -8.695055
| 15>   H                      -6.087356            -10.612694           -8.096553
| 16>   H                      -7.525287            -10.779858           -9.050024
| 17>   C                      -10.515816           -7.115298            -4.453699
| 18>   O                      -9.387827            -7.988762            -4.395006
| 19>   H                      -8.723203            -7.769116            -5.073158
| 20>   H                      -10.485551           -6.500536            -5.387973
| 21>   H                      -11.530329           -7.570905            -4.515946
| 22>   H                      -10.438081           -6.409289            -3.639123
| 23> *
| 24>
| 25> #Run DFT-D3 single point of the molecule with dimer basis set
| 26> $new_job
| 27> %base "19-172_DFT_A"
| 28> ! wB97X-D3 def2-TZVP TIGHTSCF CHELPG PMODEL
| 29>
| 30> %scf
| 31> MaxIter 1000
| 32> end
| 33>
| 34> * xyz 0 1
| 35>   C                      -7.054189            -10.202237           -8.208105
| 36>   O                      -7.807311            -10.115136           -7.076616
| 37>   H                      -8.441169            -9.383807            -7.207022
| 38>   H                      -6.824841            -9.282687            -8.695055
| 39>   H                      -6.087356            -10.612694           -8.096553
| 40>   H                      -7.525287            -10.779858           -9.050024
| 41>   C                    : -10.515816           -7.115298            -4.453699
| 42>   O                    : -9.387827            -7.988762            -4.395006
| 43>   H                    : -8.723203            -7.769116            -5.073158
| 44>   H                    : -10.485551           -6.500536            -5.387973
| 45>   H                    : -11.530329           -7.570905            -4.515946
| 46>   H                    : -10.438081           -6.409289            -3.639123
| 47> *
| 48>
| 49> #Run DFT-D3 single point of the particle with dimer basis set
| 50> $new_job
| 51> %base "19-172_DFT_B"
| 52> ! wB97X-D3 def2-TZVP TIGHTSCF CHELPG PMODEL
| 53>
| 54> %scf
| 55> MaxIter 1000
| 56> end
| 57>
| 58> * xyz 0 1
| 59>   C                    : -7.054189            -10.202237           -8.208105
| 60>   O                    : -7.807311            -10.115136           -7.076616
| 61>   H                    : -8.441169            -9.383807            -7.207022
| 62>   H                    : -6.824841            -9.282687            -8.695055
| 63>   H                    : -6.087356            -10.612694           -8.096553
| 64>   H                    : -7.525287            -10.779858           -9.050024
| 65>   C                      -10.515816           -7.115298            -4.453699
| 66>   O                      -9.387827            -7.988762            -4.395006
| 67>   H                      -8.723203            -7.769116            -5.073158
| 68>   H                      -10.485551           -6.500536            -5.387973
| 69>   H                      -11.530329           -7.570905            -4.515946
| 70>   H                      -10.438081           -6.409289            -3.639123
| 71> *
| 72>
| 73>                          ****END OF INPUT****
 Total Charge           Charge          ....    0
 Multiplicity           Mult            ....    1
 Number of Electrons    NEL             ....   36
Dispersion correction           -0.001102482
FINAL SINGLE POINT ENERGY      -231.459643543265
Dispersion correction           -0.000237946
FINAL SINGLE POINT ENERGY      -115.729382508629

CARTESIAN COORDINATES (ANGSTROEM)
---------------------------------
  C     -7.054189  -10.202237   -8.208105
  O     -7.807311  -10.115136   -7.076616
  H     -8.441169   -9.383807   -7.207022
  H     -6.824841   -9.282687   -8.695055
  H     -6.087356  -10.612694   -8.096553
  H     -7.525287  -10.779858   -9.050024
  C    -10.515816   -7.115298   -4.453699
  O     -9.387827   -7.988762   -4.395006
  H     -8.723203   -7.769116   -5.073158
  H    -10.485551   -6.500536   -5.387973
  H    -11.530329   -7.570905   -4.515946
  H    -10.438081   -6.409289   -3.639123

 Multiplicity           Mult            ....    1
 Number of Electrons    NEL             ....   18
 Basis Dimension        Dim             ....  172

ORBITAL ENERGIES
----------------

  NO   OCC          E(Eh)            E(eV)
   0   2.0000     -19.231372      -523.3122
   1   2.0000     -10.318604      -280.7835
   2   2.0000      -1.127523       -30.6815
   3   2.0000      -0.794891       -21.6301
   4   2.0000      -0.609085       -16.5740
   5   2.0000      -0.543303       -14.7840
   6   2.0000      -0.522107       -14.2072
   7   2.0000      -0.422544       -11.4980
   8   2.0000      -0.376127       -10.2349
   9   0.0000       0.080118         2.1801
  10   0.0000       0.114161         3.1065
  11   0.0000       0.147070         4.0020
  12   0.0000       0.186271         5.0687
  13   0.0000       0.194935         5.3044

MULLIKEN ATOMIC CHARGES
-----------------------
   0 C :    0.000626
   1 O :    0.000115
   2 H :   -0.005296
   3 H :   -0.000069
   4 H :    0.000029
   5 H :   -0.000035
   6 C :   -0.170747
   7 O :   -0.483637
   8 H :    0.324781
   9 H :    0.101447
  10 H :    0.116858
  11 H :    0.115930
Sum of atomic charges:    0.0000000

LOEWDIN ATOMIC CHARGES
----------------------
   0 C :   -0.000050
   1 O :   -0.000763
   2 H :   -0.003637
   3 H :   -0.000002
   4 H :   -0.000002
   5 H :   -0.000001
   6 C :   -0.381236
   7 O :   -0.094871
   8 H :    0.177190
   9 H :    0.100558
  10 H :    0.106764
  11 H :    0.096049

  Mayer bond orders larger than 0.1
B(  6-C ,  7-O ) :   1.0024 B(  6-C ,  9-H ) :   0.9863 B(  6-C , 10-H ) :   0.9646
B(  6-C , 11-H ) :   0.9785 B(  7-O ,  8-H ) :   0.8905

Dispersion correction           -0.000266984
FINAL SINGLE POINT ENERGY      -115.730945431616

DIPOLE MOMENT
-------------
                                X             Y             Z
Electronic contribution:      1.34810      -1.28259       0.28522
Nuclear contribution   :     -1.37895       1.80344      -0.76642
                        -----------------------------------------
Total Dipole Moment    :     -0.03085       0.52085      -0.48120
                        -----------------------------------------
Magnitude (a.u.)       :      0.70978
Magnitude (Debye)      :      1.80412

Rotational constants in cm-1:     4.334403     0.801909     0.780252
Rotational constants in MHz : 129942.123541 24040.616549 23391.376156

                             ****ORCA TERMINATED NORMALLY****
TOTAL RUN TIME: 0 days 0 hours 1 minutes 33 seconds 478 msec
