                         Program Version 4.1.2  - RELEASE  -
|  1> #Run DFT-D3 single point of the dimer
|  2> ! wB97X-D3 def2-TZVP TIGHTSCF CHELPG PMODEL PAL8
|  3>
|  4> %base "6-155_DFT_AB"
|  5>
|  6> %scf
|  7> MaxIter 1000
|  8> end
|  9>
| 10> * xyz 0 1
| 11>   C                      6.703492             0.396091             5.305588
| 12>   O                      5.442587             0.726832             5.796296
| 13>   H                      4.738979             0.132312             5.362893
| 14>   H                      6.654158             0.514180             4.212192
| 15>   H                      7.419029             1.101467             5.651365
| 16>   H                      6.987095             -0.656286            5.527411
| 17>   C                      3.347516             2.510579             7.905746
| 18>   O                      2.922121             1.520003             7.053050
| 19>   H                      3.423921             0.693581             7.132739
| 20>   H                      4.440464             2.763975             7.918784
| 21>   H                      2.761968             3.416181             7.826046
| 22>   H                      3.109263             2.132877             8.914459
| 23> *
| 24>
| 25> #Run DFT-D3 single point of the molecule with dimer basis set
| 26> $new_job
| 27> %base "6-155_DFT_A"
| 28> ! wB97X-D3 def2-TZVP TIGHTSCF CHELPG PMODEL
| 29>
| 30> %scf
| 31> MaxIter 1000
| 32> end
| 33>
| 34> * xyz 0 1
| 35>   C                      6.703492             0.396091             5.305588
| 36>   O                      5.442587             0.726832             5.796296
| 37>   H                      4.738979             0.132312             5.362893
| 38>   H                      6.654158             0.514180             4.212192
| 39>   H                      7.419029             1.101467             5.651365
| 40>   H                      6.987095             -0.656286            5.527411
| 41>   C                    : 3.347516             2.510579             7.905746
| 42>   O                    : 2.922121             1.520003             7.053050
| 43>   H                    : 3.423921             0.693581             7.132739
| 44>   H                    : 4.440464             2.763975             7.918784
| 45>   H                    : 2.761968             3.416181             7.826046
| 46>   H                    : 3.109263             2.132877             8.914459
| 47> *
| 48>
| 49> #Run DFT-D3 single point of the particle with dimer basis set
| 50> $new_job
| 51> %base "6-155_DFT_B"
| 52> ! wB97X-D3 def2-TZVP TIGHTSCF CHELPG PMODEL
| 53>
| 54> %scf
| 55> MaxIter 1000
| 56> end
| 57>
| 58> * xyz 0 1
| 59>   C                    : 6.703492             0.396091             5.305588
| 60>   O                    : 5.442587             0.726832             5.796296
| 61>   H                    : 4.738979             0.132312             5.362893
| 62>   H                    : 6.654158             0.514180             4.212192
| 63>   H                    : 7.419029             1.101467             5.651365
| 64>   H                    : 6.987095             -0.656286            5.527411
| 65>   C                      3.347516             2.510579             7.905746
| 66>   O                      2.922121             1.520003             7.053050
| 67>   H                      3.423921             0.693581             7.132739
| 68>   H                      4.440464             2.763975             7.918784
| 69>   H                      2.761968             3.416181             7.826046
| 70>   H                      3.109263             2.132877             8.914459
| 71> *
| 72>
| 73>                          ****END OF INPUT****
 Total Charge           Charge          ....    0
 Multiplicity           Mult            ....    1
 Number of Electrons    NEL             ....   36
Dispersion correction           -0.001581314
FINAL SINGLE POINT ENERGY      -231.464553818513
Dispersion correction           -0.000227307
FINAL SINGLE POINT ENERGY      -115.731906347736

CARTESIAN COORDINATES (ANGSTROEM)
---------------------------------
  C      6.703492    0.396091    5.305588
  O      5.442587    0.726832    5.796296
  H      4.738979    0.132312    5.362893
  H      6.654158    0.514180    4.212192
  H      7.419029    1.101467    5.651365
  H      6.987095   -0.656286    5.527411
  C      3.347516    2.510579    7.905746
  O      2.922121    1.520003    7.053050
  H      3.423921    0.693581    7.132739
  H      4.440464    2.763975    7.918784
  H      2.761968    3.416181    7.826046
  H      3.109263    2.132877    8.914459

 Multiplicity           Mult            ....    1
 Number of Electrons    NEL             ....   18
 Basis Dimension        Dim             ....  172

ORBITAL ENERGIES
----------------

  NO   OCC          E(Eh)            E(eV)
   0   2.0000     -19.231231      -523.3084
   1   2.0000     -10.312991      -280.6308
   2   2.0000      -1.145079       -31.1592
   3   2.0000      -0.795436       -21.6449
   4   2.0000      -0.618427       -16.8282
   5   2.0000      -0.540186       -14.6992
   6   2.0000      -0.538583       -14.6556
   7   2.0000      -0.425992       -11.5918
   8   2.0000      -0.367063        -9.9883
   9   0.0000       0.079068         2.1516
  10   0.0000       0.123554         3.3621
  11   0.0000       0.145898         3.9701
  12   0.0000       0.183470         4.9925
  13   0.0000       0.191887         5.2215

MULLIKEN ATOMIC CHARGES
-----------------------
   0 C :   -0.001403
   1 O :   -0.005902
   2 H :   -0.003985
   3 H :    0.000058
   4 H :    0.000039
   5 H :   -0.000013
   6 C :   -0.155958
   7 O :   -0.469846
   8 H :    0.325822
   9 H :    0.096710
  10 H :    0.120885
  11 H :    0.093593
Sum of atomic charges:   -0.0000000

LOEWDIN ATOMIC CHARGES
----------------------
   0 C :   -0.000595
   1 O :   -0.010941
   2 H :   -0.005769
   3 H :   -0.000015
   4 H :   -0.000029
   5 H :   -0.000018
   6 C :   -0.419345
   7 O :   -0.041987
   8 H :    0.179913
   9 H :    0.097128
  10 H :    0.106369
  11 H :    0.095289

  Mayer bond orders larger than 0.1
B(  6-C ,  7-O ) :   1.0074 B(  6-C ,  9-H ) :   0.9644 B(  6-C , 10-H ) :   0.9693
B(  6-C , 11-H ) :   0.9953 B(  7-O ,  8-H ) :   0.8849

Dispersion correction           -0.000242431
FINAL SINGLE POINT ENERGY      -115.731479529510

DIPOLE MOMENT
-------------
                                X             Y             Z
Electronic contribution:     -0.62574      -1.14658      -1.34424
Nuclear contribution   :      1.07718       0.99986       1.73001
                        -----------------------------------------
Total Dipole Moment    :      0.45144      -0.14672       0.38576
                        -----------------------------------------
Magnitude (a.u.)       :      0.61167
Magnitude (Debye)      :      1.55473

Rotational constants in cm-1:     4.379919     0.856989     0.825838
Rotational constants in MHz : 131306.681390 25691.873368 24757.996974

                             ****ORCA TERMINATED NORMALLY****
TOTAL RUN TIME: 0 days 0 hours 1 minutes 2 seconds 725 msec
