                         Program Version 4.1.2  - RELEASE  -
|  1> #Run DFT-D3 single point of the dimer
|  2> ! wB97X-D3 def2-TZVP TIGHTSCF CHELPG PMODEL PAL8
|  3>
|  4> %base "14-2_DFT_AB"
|  5>
|  6> %scf
|  7> MaxIter 1000
|  8> end
|  9>
| 10> * xyz 0 1
| 11>   C                      2.263257             -4.148155            5.412082
| 12>   O                      2.954997             -4.750595            6.535683
| 13>   H                      3.854224             -4.751128            6.203519
| 14>   H                      2.189910             -3.055356            5.686844
| 15>   H                      2.686634             -4.323060            4.395248
| 16>   H                      1.297417             -4.690642            5.387383
| 17>   C                      -0.902070            -3.157981            3.493314
| 18>   O                      0.133759             -2.613469            2.684156
| 19>   H                      0.577743             -3.368369            2.322678
| 20>   H                      -0.511078            -4.028069            4.052424
| 21>   H                      -1.286494            -2.302959            4.148782
| 22>   H                      -1.672193            -3.504648            2.850024
| 23> *
| 24>
| 25> #Run DFT-D3 single point of the molecule with dimer basis set
| 26> $new_job
| 27> %base "14-2_DFT_A"
| 28> ! wB97X-D3 def2-TZVP TIGHTSCF CHELPG PMODEL
| 29>
| 30> %scf
| 31> MaxIter 1000
| 32> end
| 33>
| 34> * xyz 0 1
| 35>   C                      2.263257             -4.148155            5.412082
| 36>   O                      2.954997             -4.750595            6.535683
| 37>   H                      3.854224             -4.751128            6.203519
| 38>   H                      2.189910             -3.055356            5.686844
| 39>   H                      2.686634             -4.323060            4.395248
| 40>   H                      1.297417             -4.690642            5.387383
| 41>   C                    : -0.902070            -3.157981            3.493314
| 42>   O                    : 0.133759             -2.613469            2.684156
| 43>   H                    : 0.577743             -3.368369            2.322678
| 44>   H                    : -0.511078            -4.028069            4.052424
| 45>   H                    : -1.286494            -2.302959            4.148782
| 46>   H                    : -1.672193            -3.504648            2.850024
| 47> *
| 48>
| 49> #Run DFT-D3 single point of the particle with dimer basis set
| 50> $new_job
| 51> %base "14-2_DFT_B"
| 52> ! wB97X-D3 def2-TZVP TIGHTSCF CHELPG PMODEL
| 53>
| 54> %scf
| 55> MaxIter 1000
| 56> end
| 57>
| 58> * xyz 0 1
| 59>   C                    : 2.263257             -4.148155            5.412082
| 60>   O                    : 2.954997             -4.750595            6.535683
| 61>   H                    : 3.854224             -4.751128            6.203519
| 62>   H                    : 2.189910             -3.055356            5.686844
| 63>   H                    : 2.686634             -4.323060            4.395248
| 64>   H                    : 1.297417             -4.690642            5.387383
| 65>   C                      -0.902070            -3.157981            3.493314
| 66>   O                      0.133759             -2.613469            2.684156
| 67>   H                      0.577743             -3.368369            2.322678
| 68>   H                      -0.511078            -4.028069            4.052424
| 69>   H                      -1.286494            -2.302959            4.148782
| 70>   H                      -1.672193            -3.504648            2.850024
| 71> *
| 72>
| 73>                          ****END OF INPUT****
 Total Charge           Charge          ....    0
 Multiplicity           Mult            ....    1
 Number of Electrons    NEL             ....   36
Dispersion correction           -0.001692735
FINAL SINGLE POINT ENERGY      -231.462056841440
Dispersion correction           -0.000245725
FINAL SINGLE POINT ENERGY      -115.728427104468

CARTESIAN COORDINATES (ANGSTROEM)
---------------------------------
  C      2.263257   -4.148155    5.412082
  O      2.954997   -4.750595    6.535683
  H      3.854224   -4.751128    6.203519
  H      2.189910   -3.055356    5.686844
  H      2.686634   -4.323060    4.395248
  H      1.297417   -4.690642    5.387383
  C     -0.902070   -3.157981    3.493314
  O      0.133759   -2.613469    2.684156
  H      0.577743   -3.368369    2.322678
  H     -0.511078   -4.028069    4.052424
  H     -1.286494   -2.302959    4.148782
  H     -1.672193   -3.504648    2.850024

 Multiplicity           Mult            ....    1
 Number of Electrons    NEL             ....   18
 Basis Dimension        Dim             ....  172

ORBITAL ENERGIES
----------------

  NO   OCC          E(Eh)            E(eV)
   0   2.0000     -19.226662      -523.1841
   1   2.0000     -10.316707      -280.7319
   2   2.0000      -1.137684       -30.9580
   3   2.0000      -0.791191       -21.5294
   4   2.0000      -0.611162       -16.6306
   5   2.0000      -0.544300       -14.8112
   6   2.0000      -0.520000       -14.1499
   7   2.0000      -0.439284       -11.9535
   8   2.0000      -0.372028       -10.1234
   9   0.0000       0.080873         2.2007
  10   0.0000       0.124485         3.3874
  11   0.0000       0.153736         4.1834
  12   0.0000       0.175363         4.7719
  13   0.0000       0.187424         5.1001

MULLIKEN ATOMIC CHARGES
-----------------------
   0 C :   -0.000639
   1 O :    0.000064
   2 H :   -0.000011
   3 H :   -0.000573
   4 H :   -0.001428
   5 H :    0.000199
   6 C :   -0.175224
   7 O :   -0.472840
   8 H :    0.309167
   9 H :    0.103543
  10 H :    0.121168
  11 H :    0.116573
Sum of atomic charges:    0.0000000

LOEWDIN ATOMIC CHARGES
----------------------
   0 C :   -0.005414
   1 O :   -0.000045
   2 H :   -0.000009
   3 H :   -0.000501
   4 H :   -0.000956
   5 H :   -0.004219
   6 C :   -0.376070
   7 O :   -0.080154
   8 H :    0.159180
   9 H :    0.099618
  10 H :    0.120738
  11 H :    0.087832

  Mayer bond orders larger than 0.1
B(  6-C ,  7-O ) :   0.9787 B(  6-C ,  9-H ) :   0.9794 B(  6-C , 10-H ) :   0.9722
B(  6-C , 11-H ) :   0.9785 B(  7-O ,  8-H ) :   0.9060

Dispersion correction           -0.000216984
FINAL SINGLE POINT ENERGY      -115.732847453616

DIPOLE MOMENT
-------------
                                X             Y             Z
Electronic contribution:      1.20476       0.78868      -0.94500
Nuclear contribution   :     -1.34616      -1.48520       1.01893
                        -----------------------------------------
Total Dipole Moment    :     -0.14140      -0.69653       0.07393
                        -----------------------------------------
Magnitude (a.u.)       :      0.71457
Magnitude (Debye)      :      1.81629

Rotational constants in cm-1:     4.099313     0.843700     0.800505
Rotational constants in MHz : 122894.314099 25293.493100 23998.532096

                             ****ORCA TERMINATED NORMALLY****
TOTAL RUN TIME: 0 days 0 hours 1 minutes 5 seconds 204 msec
