                         Program Version 4.1.2  - RELEASE  -
|  1> #Run DFT-D3 single point of the dimer
|  2> ! wB97X-D3 def2-TZVP TIGHTSCF CHELPG PMODEL PAL8
|  3>
|  4> %base "16-143_DFT_AB"
|  5>
|  6> %scf
|  7> MaxIter 1000
|  8> end
|  9>
| 10> * xyz 0 1
| 11>   C                      -1.631992            1.956017             -9.277053
| 12>   O                      -1.772947            3.220567             -9.838238
| 13>   H                      -1.416225            3.163725             -10.735111
| 14>   H                      -1.824583            1.947769             -8.203156
| 15>   H                      -2.335217            1.321095             -9.892011
| 16>   H                      -0.550905            1.698402             -9.377842
| 17>   C                      -2.833394            3.356421             -5.756961
| 18>   O                      -2.355531            4.681336             -5.753562
| 19>   H                      -2.846205            5.233091             -6.310607
| 20>   H                      -2.789939            2.826615             -6.740365
| 21>   H                      -2.255881            2.728479             -5.178716
| 22>   H                      -3.909778            3.281264             -5.410658
| 23> *
| 24>
| 25> #Run DFT-D3 single point of the molecule with dimer basis set
| 26> $new_job
| 27> %base "16-143_DFT_A"
| 28> ! wB97X-D3 def2-TZVP TIGHTSCF CHELPG PMODEL
| 29>
| 30> %scf
| 31> MaxIter 1000
| 32> end
| 33>
| 34> * xyz 0 1
| 35>   C                      -1.631992            1.956017             -9.277053
| 36>   O                      -1.772947            3.220567             -9.838238
| 37>   H                      -1.416225            3.163725             -10.735111
| 38>   H                      -1.824583            1.947769             -8.203156
| 39>   H                      -2.335217            1.321095             -9.892011
| 40>   H                      -0.550905            1.698402             -9.377842
| 41>   C                    : -2.833394            3.356421             -5.756961
| 42>   O                    : -2.355531            4.681336             -5.753562
| 43>   H                    : -2.846205            5.233091             -6.310607
| 44>   H                    : -2.789939            2.826615             -6.740365
| 45>   H                    : -2.255881            2.728479             -5.178716
| 46>   H                    : -3.909778            3.281264             -5.410658
| 47> *
| 48>
| 49> #Run DFT-D3 single point of the particle with dimer basis set
| 50> $new_job
| 51> %base "16-143_DFT_B"
| 52> ! wB97X-D3 def2-TZVP TIGHTSCF CHELPG PMODEL
| 53>
| 54> %scf
| 55> MaxIter 1000
| 56> end
| 57>
| 58> * xyz 0 1
| 59>   C                    : -1.631992            1.956017             -9.277053
| 60>   O                    : -1.772947            3.220567             -9.838238
| 61>   H                    : -1.416225            3.163725             -10.735111
| 62>   H                    : -1.824583            1.947769             -8.203156
| 63>   H                    : -2.335217            1.321095             -9.892011
| 64>   H                    : -0.550905            1.698402             -9.377842
| 65>   C                      -2.833394            3.356421             -5.756961
| 66>   O                      -2.355531            4.681336             -5.753562
| 67>   H                      -2.846205            5.233091             -6.310607
| 68>   H                      -2.789939            2.826615             -6.740365
| 69>   H                      -2.255881            2.728479             -5.178716
| 70>   H                      -3.909778            3.281264             -5.410658
| 71> *
| 72>
| 73>                          ****END OF INPUT****
 Total Charge           Charge          ....    0
 Multiplicity           Mult            ....    1
 Number of Electrons    NEL             ....   36
Dispersion correction           -0.001441520
FINAL SINGLE POINT ENERGY      -231.459735377836
Dispersion correction           -0.000203318
FINAL SINGLE POINT ENERGY      -115.729233085067

CARTESIAN COORDINATES (ANGSTROEM)
---------------------------------
  C     -1.631992    1.956017   -9.277053
  O     -1.772947    3.220567   -9.838238
  H     -1.416225    3.163725  -10.735111
  H     -1.824583    1.947769   -8.203156
  H     -2.335217    1.321095   -9.892011
  H     -0.550905    1.698402   -9.377842
  C     -2.833394    3.356421   -5.756961
  O     -2.355531    4.681336   -5.753562
  H     -2.846205    5.233091   -6.310607
  H     -2.789939    2.826615   -6.740365
  H     -2.255881    2.728479   -5.178716
  H     -3.909778    3.281264   -5.410658

 Multiplicity           Mult            ....    1
 Number of Electrons    NEL             ....   18
 Basis Dimension        Dim             ....  172

ORBITAL ENERGIES
----------------

  NO   OCC          E(Eh)            E(eV)
   0   2.0000     -19.229290      -523.2556
   1   2.0000     -10.313686      -280.6497
   2   2.0000      -1.143537       -31.1172
   3   2.0000      -0.805067       -21.9070
   4   2.0000      -0.618174       -16.8214
   5   2.0000      -0.542977       -14.7752
   6   2.0000      -0.528384       -14.3781
   7   2.0000      -0.431905       -11.7527
   8   2.0000      -0.374582       -10.1929
   9   0.0000       0.085761         2.3337
  10   0.0000       0.124408         3.3853
  11   0.0000       0.148491         4.0407
  12   0.0000       0.180433         4.9098
  13   0.0000       0.188702         5.1348

MULLIKEN ATOMIC CHARGES
-----------------------
   0 C :    0.002419
   1 O :   -0.000531
   2 H :   -0.000026
   3 H :    0.001199
   4 H :   -0.000214
   5 H :   -0.000381
   6 C :   -0.153404
   7 O :   -0.471133
   8 H :    0.311971
   9 H :    0.086245
  10 H :    0.123352
  11 H :    0.100504
Sum of atomic charges:   -0.0000000

LOEWDIN ATOMIC CHARGES
----------------------
   0 C :   -0.005889
   1 O :   -0.000100
   2 H :   -0.000010
   3 H :   -0.012138
   4 H :   -0.000058
   5 H :   -0.000063
   6 C :   -0.380980
   7 O :   -0.049586
   8 H :    0.145897
   9 H :    0.107239
  10 H :    0.093770
  11 H :    0.101917

  Mayer bond orders larger than 0.1
B(  6-C ,  7-O ) :   1.0020 B(  6-C ,  9-H ) :   0.9685 B(  6-C , 10-H ) :   0.9759
B(  6-C , 11-H ) :   0.9772 B(  7-O ,  8-H ) :   0.9038

Dispersion correction           -0.000264746
FINAL SINGLE POINT ENERGY      -115.730546617155

DIPOLE MOMENT
-------------
                                X             Y             Z
Electronic contribution:      0.79398       1.76948       0.15018
Nuclear contribution   :     -1.27565      -1.94512      -0.50838
                        -----------------------------------------
Total Dipole Moment    :     -0.48167      -0.17564      -0.35820
                        -----------------------------------------
Magnitude (a.u.)       :      0.62543
Magnitude (Debye)      :      1.58973

Rotational constants in cm-1:     4.537248     0.818247     0.798719
Rotational constants in MHz : 136023.285278 24530.423111 23945.007997

                             ****ORCA TERMINATED NORMALLY****
TOTAL RUN TIME: 0 days 0 hours 0 minutes 57 seconds 316 msec
