                         Program Version 4.1.2  - RELEASE  -
|  1> #Run DFT-D3 single point of the dimer
|  2> ! wB97X-D3 def2-TZVP TIGHTSCF CHELPG PMODEL PAL8
|  3>
|  4> %base "19-72_DFT_AB"
|  5>
|  6> %scf
|  7> MaxIter 1000
|  8> end
|  9>
| 10> * xyz 0 1
| 11>   C                      -0.575067            -10.156360           7.923037
| 12>   O                      0.034573             -8.867391            8.103202
| 13>   H                      0.063083             -8.534555            7.191090
| 14>   H                      -0.260916            -10.777409           8.756213
| 15>   H                      -1.647497            -10.080484           7.981376
| 16>   H                      -0.388357            -10.646817           7.019382
| 17>   C                      -4.820240            -6.867480            7.732437
| 18>   O                      -3.651096            -7.047806            6.967407
| 19>   H                      -2.892290            -6.756424            7.484280
| 20>   H                      -5.073807            -7.703325            8.381583
| 21>   H                      -4.832445            -5.895153            8.276370
| 22>   H                      -5.724504            -6.692857            7.115147
| 23> *
| 24>
| 25> #Run DFT-D3 single point of the molecule with dimer basis set
| 26> $new_job
| 27> %base "19-72_DFT_A"
| 28> ! wB97X-D3 def2-TZVP TIGHTSCF CHELPG PMODEL
| 29>
| 30> %scf
| 31> MaxIter 1000
| 32> end
| 33>
| 34> * xyz 0 1
| 35>   C                      -0.575067            -10.156360           7.923037
| 36>   O                      0.034573             -8.867391            8.103202
| 37>   H                      0.063083             -8.534555            7.191090
| 38>   H                      -0.260916            -10.777409           8.756213
| 39>   H                      -1.647497            -10.080484           7.981376
| 40>   H                      -0.388357            -10.646817           7.019382
| 41>   C                    : -4.820240            -6.867480            7.732437
| 42>   O                    : -3.651096            -7.047806            6.967407
| 43>   H                    : -2.892290            -6.756424            7.484280
| 44>   H                    : -5.073807            -7.703325            8.381583
| 45>   H                    : -4.832445            -5.895153            8.276370
| 46>   H                    : -5.724504            -6.692857            7.115147
| 47> *
| 48>
| 49> #Run DFT-D3 single point of the particle with dimer basis set
| 50> $new_job
| 51> %base "19-72_DFT_B"
| 52> ! wB97X-D3 def2-TZVP TIGHTSCF CHELPG PMODEL
| 53>
| 54> %scf
| 55> MaxIter 1000
| 56> end
| 57>
| 58> * xyz 0 1
| 59>   C                    : -0.575067            -10.156360           7.923037
| 60>   O                    : 0.034573             -8.867391            8.103202
| 61>   H                    : 0.063083             -8.534555            7.191090
| 62>   H                    : -0.260916            -10.777409           8.756213
| 63>   H                    : -1.647497            -10.080484           7.981376
| 64>   H                    : -0.388357            -10.646817           7.019382
| 65>   C                      -4.820240            -6.867480            7.732437
| 66>   O                      -3.651096            -7.047806            6.967407
| 67>   H                      -2.892290            -6.756424            7.484280
| 68>   H                      -5.073807            -7.703325            8.381583
| 69>   H                      -4.832445            -5.895153            8.276370
| 70>   H                      -5.724504            -6.692857            7.115147
| 71> *
| 72>
| 73>                          ****END OF INPUT****
 Total Charge           Charge          ....    0
 Multiplicity           Mult            ....    1
 Number of Electrons    NEL             ....   36
Dispersion correction           -0.001027921
FINAL SINGLE POINT ENERGY      -231.467321067574
Dispersion correction           -0.000234221
FINAL SINGLE POINT ENERGY      -115.732359708370

CARTESIAN COORDINATES (ANGSTROEM)
---------------------------------
  C     -0.575067  -10.156360    7.923037
  O      0.034573   -8.867391    8.103202
  H      0.063083   -8.534555    7.191090
  H     -0.260916  -10.777409    8.756213
  H     -1.647497  -10.080484    7.981376
  H     -0.388357  -10.646817    7.019382
  C     -4.820240   -6.867480    7.732437
  O     -3.651096   -7.047806    6.967407
  H     -2.892290   -6.756424    7.484280
  H     -5.073807   -7.703325    8.381583
  H     -4.832445   -5.895153    8.276370
  H     -5.724504   -6.692857    7.115147

 Multiplicity           Mult            ....    1
 Number of Electrons    NEL             ....   18
 Basis Dimension        Dim             ....  172

ORBITAL ENERGIES
----------------

  NO   OCC          E(Eh)            E(eV)
   0   2.0000     -19.234043      -523.3849
   1   2.0000     -10.315739      -280.7055
   2   2.0000      -1.138137       -30.9703
   3   2.0000      -0.795869       -21.6567
   4   2.0000      -0.611593       -16.6423
   5   2.0000      -0.547320       -14.8933
   6   2.0000      -0.525044       -14.2872
   7   2.0000      -0.422657       -11.5011
   8   2.0000      -0.378963       -10.3121
   9   0.0000       0.083822         2.2809
  10   0.0000       0.122118         3.3230
  11   0.0000       0.145487         3.9589
  12   0.0000       0.174195         4.7401
  13   0.0000       0.191678         5.2158

MULLIKEN ATOMIC CHARGES
-----------------------
   0 C :    0.000779
   1 O :   -0.000020
   2 H :   -0.000139
   3 H :   -0.000090
   4 H :   -0.002669
   5 H :   -0.000002
   6 C :   -0.174652
   7 O :   -0.472014
   8 H :    0.321119
   9 H :    0.110230
  10 H :    0.102843
  11 H :    0.114617
Sum of atomic charges:    0.0000000

LOEWDIN ATOMIC CHARGES
----------------------
   0 C :   -0.000673
   1 O :   -0.000108
   2 H :   -0.000187
   3 H :   -0.000012
   4 H :   -0.000984
   5 H :   -0.000005
   6 C :   -0.402651
   7 O :   -0.072345
   8 H :    0.173183
   9 H :    0.093791
  10 H :    0.100163
  11 H :    0.109829

  Mayer bond orders larger than 0.1
B(  6-C ,  7-O ) :   1.0098 B(  6-C ,  9-H ) :   0.9706 B(  6-C , 10-H ) :   0.9811
B(  6-C , 11-H ) :   0.9716 B(  7-O ,  8-H ) :   0.8945

Dispersion correction           -0.000263160
FINAL SINGLE POINT ENERGY      -115.733011748449

DIPOLE MOMENT
-------------
                                X             Y             Z
Electronic contribution:      1.57049      -0.39503      -1.08028
Nuclear contribution   :     -1.56083       0.68258       1.69638
                        -----------------------------------------
Total Dipole Moment    :      0.00966       0.28755       0.61609
                        -----------------------------------------
Magnitude (a.u.)       :      0.67996
Magnitude (Debye)      :      1.72833

Rotational constants in cm-1:     4.385737     0.815792     0.798221
Rotational constants in MHz : 131481.093672 24456.826068 23930.067522

                             ****ORCA TERMINATED NORMALLY****
TOTAL RUN TIME: 0 days 0 hours 2 minutes 21 seconds 925 msec
