                         Program Version 4.1.2  - RELEASE  -
|  1> #Run DFT-D3 single point of the dimer
|  2> ! wB97X-D3 def2-TZVP TIGHTSCF CHELPG PMODEL PAL8
|  3>
|  4> %base "11-93_DFT_AB"
|  5>
|  6> %scf
|  7> MaxIter 1000
|  8> end
|  9>
| 10> * xyz 0 1
| 11>   C                      5.805939             10.294651            -6.906468
| 12>   O                      5.983511             11.721538            -7.025334
| 13>   H                      5.096172             12.079015            -7.135066
| 14>   H                      5.223192             9.968730             -7.767834
| 15>   H                      6.785383             9.801651             -6.954070
| 16>   H                      5.389869             9.935072             -5.948628
| 17>   C                      4.799980             6.006494             -5.167319
| 18>   O                      3.951177             6.217455             -4.023773
| 19>   H                      3.955789             5.362684             -3.580391
| 20>   H                      4.974411             6.973716             -5.687132
| 21>   H                      5.733022             5.639043             -4.789739
| 22>   H                      4.363213             5.250652             -5.814487
| 23> *
| 24>
| 25> #Run DFT-D3 single point of the molecule with dimer basis set
| 26> $new_job
| 27> %base "11-93_DFT_A"
| 28> ! wB97X-D3 def2-TZVP TIGHTSCF CHELPG PMODEL
| 29>
| 30> %scf
| 31> MaxIter 1000
| 32> end
| 33>
| 34> * xyz 0 1
| 35>   C                      5.805939             10.294651            -6.906468
| 36>   O                      5.983511             11.721538            -7.025334
| 37>   H                      5.096172             12.079015            -7.135066
| 38>   H                      5.223192             9.968730             -7.767834
| 39>   H                      6.785383             9.801651             -6.954070
| 40>   H                      5.389869             9.935072             -5.948628
| 41>   C                    : 4.799980             6.006494             -5.167319
| 42>   O                    : 3.951177             6.217455             -4.023773
| 43>   H                    : 3.955789             5.362684             -3.580391
| 44>   H                    : 4.974411             6.973716             -5.687132
| 45>   H                    : 5.733022             5.639043             -4.789739
| 46>   H                    : 4.363213             5.250652             -5.814487
| 47> *
| 48>
| 49> #Run DFT-D3 single point of the particle with dimer basis set
| 50> $new_job
| 51> %base "11-93_DFT_B"
| 52> ! wB97X-D3 def2-TZVP TIGHTSCF CHELPG PMODEL
| 53>
| 54> %scf
| 55> MaxIter 1000
| 56> end
| 57>
| 58> * xyz 0 1
| 59>   C                    : 5.805939             10.294651            -6.906468
| 60>   O                    : 5.983511             11.721538            -7.025334
| 61>   H                    : 5.096172             12.079015            -7.135066
| 62>   H                    : 5.223192             9.968730             -7.767834
| 63>   H                    : 6.785383             9.801651             -6.954070
| 64>   H                    : 5.389869             9.935072             -5.948628
| 65>   C                      4.799980             6.006494             -5.167319
| 66>   O                      3.951177             6.217455             -4.023773
| 67>   H                      3.955789             5.362684             -3.580391
| 68>   H                      4.974411             6.973716             -5.687132
| 69>   H                      5.733022             5.639043             -4.789739
| 70>   H                      4.363213             5.250652             -5.814487
| 71> *
| 72>
| 73>                          ****END OF INPUT****
 Total Charge           Charge          ....    0
 Multiplicity           Mult            ....    1
 Number of Electrons    NEL             ....   36
Dispersion correction           -0.000924314
FINAL SINGLE POINT ENERGY      -231.469567834569
Dispersion correction           -0.000251328
FINAL SINGLE POINT ENERGY      -115.734664236867

CARTESIAN COORDINATES (ANGSTROEM)
---------------------------------
  C      5.805939   10.294651   -6.906468
  O      5.983511   11.721538   -7.025334
  H      5.096172   12.079015   -7.135066
  H      5.223192    9.968730   -7.767834
  H      6.785383    9.801651   -6.954070
  H      5.389869    9.935072   -5.948628
  C      4.799980    6.006494   -5.167319
  O      3.951177    6.217455   -4.023773
  H      3.955789    5.362684   -3.580391
  H      4.974411    6.973716   -5.687132
  H      5.733022    5.639043   -4.789739
  H      4.363213    5.250652   -5.814487

 Multiplicity           Mult            ....    1
 Number of Electrons    NEL             ....   18
 Basis Dimension        Dim             ....  172

ORBITAL ENERGIES
----------------

  NO   OCC          E(Eh)            E(eV)
   0   2.0000     -19.227432      -523.2050
   1   2.0000     -10.313907      -280.6557
   2   2.0000      -1.129373       -30.7318
   3   2.0000      -0.793164       -21.5831
   4   2.0000      -0.604239       -16.4422
   5   2.0000      -0.544573       -14.8186
   6   2.0000      -0.522432       -14.2161
   7   2.0000      -0.439329       -11.9548
   8   2.0000      -0.372185       -10.1277
   9   0.0000       0.085617         2.3297
  10   0.0000       0.114777         3.1232
  11   0.0000       0.147805         4.0220
  12   0.0000       0.173556         4.7227
  13   0.0000       0.190440         5.1821

MULLIKEN ATOMIC CHARGES
-----------------------
   0 C :   -0.000592
   1 O :    0.000009
   2 H :    0.000002
   3 H :   -0.000069
   4 H :   -0.000053
   5 H :    0.000714
   6 C :   -0.170610
   7 O :   -0.475152
   8 H :    0.310525
   9 H :    0.124196
  10 H :    0.103513
  11 H :    0.107516
Sum of atomic charges:   -0.0000000

LOEWDIN ATOMIC CHARGES
----------------------
   0 C :   -0.000981
   1 O :   -0.000005
   2 H :   -0.000002
   3 H :   -0.000067
   4 H :   -0.000084
   5 H :   -0.000514
   6 C :   -0.363803
   7 O :   -0.101317
   8 H :    0.168397
   9 H :    0.113678
  10 H :    0.090687
  11 H :    0.094011

  Mayer bond orders larger than 0.1
B(  6-C ,  7-O ) :   0.9916 B(  6-C ,  9-H ) :   0.9713 B(  6-C , 10-H ) :   0.9845
B(  6-C , 11-H ) :   0.9756 B(  7-O ,  8-H ) :   0.9040

Dispersion correction           -0.000217154
FINAL SINGLE POINT ENERGY      -115.734386614830

DIPOLE MOMENT
-------------
                                X             Y             Z
Electronic contribution:     -1.07867       0.43390       1.29428
Nuclear contribution   :      1.44198      -1.04936      -1.48058
                        -----------------------------------------
Total Dipole Moment    :      0.36332      -0.61546      -0.18631
                        -----------------------------------------
Magnitude (a.u.)       :      0.73858
Magnitude (Debye)      :      1.87732

Rotational constants in cm-1:     4.183552     0.823917     0.788574
Rotational constants in MHz : 125419.737642 24700.409989 23640.854732

                             ****ORCA TERMINATED NORMALLY****
TOTAL RUN TIME: 0 days 0 hours 1 minutes 9 seconds 818 msec
