                         Program Version 4.1.2  - RELEASE  -
|  1> #Run DFT-D3 single point of the dimer
|  2> ! wB97X-D3 def2-TZVP TIGHTSCF CHELPG PMODEL PAL8
|  3>
|  4> %base "12-174_DFT_AB"
|  5>
|  6> %scf
|  7> MaxIter 1000
|  8> end
|  9>
| 10> * xyz 0 1
| 11>   C                      6.899267             -3.826440            -6.158132
| 12>   O                      5.992380             -2.977941            -5.412868
| 13>   H                      6.206806             -2.101877            -5.713724
| 14>   H                      6.811481             -3.596181            -7.261637
| 15>   H                      7.912850             -3.696008            -5.921194
| 16>   H                      6.757874             -4.848951            -6.004020
| 17>   C                      3.282959             -1.182157            -6.440100
| 18>   O                      3.648288             -1.701234            -5.111247
| 19>   H                      4.038148             -2.570260            -5.268204
| 20>   H                      3.870765             -0.329049            -6.677919
| 21>   H                      3.429946             -1.968021            -7.207339
| 22>   H                      2.192807             -0.973335            -6.479095
| 23> *
| 24>
| 25> #Run DFT-D3 single point of the molecule with dimer basis set
| 26> $new_job
| 27> %base "12-174_DFT_A"
| 28> ! wB97X-D3 def2-TZVP TIGHTSCF CHELPG PMODEL
| 29>
| 30> %scf
| 31> MaxIter 1000
| 32> end
| 33>
| 34> * xyz 0 1
| 35>   C                      6.899267             -3.826440            -6.158132
| 36>   O                      5.992380             -2.977941            -5.412868
| 37>   H                      6.206806             -2.101877            -5.713724
| 38>   H                      6.811481             -3.596181            -7.261637
| 39>   H                      7.912850             -3.696008            -5.921194
| 40>   H                      6.757874             -4.848951            -6.004020
| 41>   C                    : 3.282959             -1.182157            -6.440100
| 42>   O                    : 3.648288             -1.701234            -5.111247
| 43>   H                    : 4.038148             -2.570260            -5.268204
| 44>   H                    : 3.870765             -0.329049            -6.677919
| 45>   H                    : 3.429946             -1.968021            -7.207339
| 46>   H                    : 2.192807             -0.973335            -6.479095
| 47> *
| 48>
| 49> #Run DFT-D3 single point of the particle with dimer basis set
| 50> $new_job
| 51> %base "12-174_DFT_B"
| 52> ! wB97X-D3 def2-TZVP TIGHTSCF CHELPG PMODEL
| 53>
| 54> %scf
| 55> MaxIter 1000
| 56> end
| 57>
| 58> * xyz 0 1
| 59>   C                    : 6.899267             -3.826440            -6.158132
| 60>   O                    : 5.992380             -2.977941            -5.412868
| 61>   H                    : 6.206806             -2.101877            -5.713724
| 62>   H                    : 6.811481             -3.596181            -7.261637
| 63>   H                    : 7.912850             -3.696008            -5.921194
| 64>   H                    : 6.757874             -4.848951            -6.004020
| 65>   C                      3.282959             -1.182157            -6.440100
| 66>   O                      3.648288             -1.701234            -5.111247
| 67>   H                      4.038148             -2.570260            -5.268204
| 68>   H                      3.870765             -0.329049            -6.677919
| 69>   H                      3.429946             -1.968021            -7.207339
| 70>   H                      2.192807             -0.973335            -6.479095
| 71> *
| 72>
| 73>                          ****END OF INPUT****
 Total Charge           Charge          ....    0
 Multiplicity           Mult            ....    1
 Number of Electrons    NEL             ....   36
Dispersion correction           -0.001811925
FINAL SINGLE POINT ENERGY      -231.468009964009
Dispersion correction           -0.000241472
FINAL SINGLE POINT ENERGY      -115.730451404579

CARTESIAN COORDINATES (ANGSTROEM)
---------------------------------
  C      6.899267   -3.826440   -6.158132
  O      5.992380   -2.977941   -5.412868
  H      6.206806   -2.101877   -5.713724
  H      6.811481   -3.596181   -7.261637
  H      7.912850   -3.696008   -5.921194
  H      6.757874   -4.848951   -6.004020
  C      3.282959   -1.182157   -6.440100
  O      3.648288   -1.701234   -5.111247
  H      4.038148   -2.570260   -5.268204
  H      3.870765   -0.329049   -6.677919
  H      3.429946   -1.968021   -7.207339
  H      2.192807   -0.973335   -6.479095

 Multiplicity           Mult            ....    1
 Number of Electrons    NEL             ....   18
 Basis Dimension        Dim             ....  172

ORBITAL ENERGIES
----------------

  NO   OCC          E(Eh)            E(eV)
   0   2.0000     -19.231300      -523.3103
   1   2.0000     -10.318856      -280.7904
   2   2.0000      -1.119675       -30.4679
   3   2.0000      -0.796825       -21.6827
   4   2.0000      -0.599539       -16.3143
   5   2.0000      -0.544683       -14.8216
   6   2.0000      -0.516552       -14.0561
   7   2.0000      -0.436434       -11.8760
   8   2.0000      -0.378228       -10.2921
   9   0.0000       0.073570         2.0019
  10   0.0000       0.128346         3.4925
  11   0.0000       0.145940         3.9712
  12   0.0000       0.170202         4.6314
  13   0.0000       0.190501         5.1838

MULLIKEN ATOMIC CHARGES
-----------------------
   0 C :   -0.001666
   1 O :   -0.009806
   2 H :   -0.004283
   3 H :    0.000055
   4 H :    0.000026
   5 H :    0.000223
   6 C :   -0.181012
   7 O :   -0.473698
   8 H :    0.316631
   9 H :    0.123483
  10 H :    0.109096
  11 H :    0.120949
Sum of atomic charges:   -0.0000000

LOEWDIN ATOMIC CHARGES
----------------------
   0 C :   -0.001885
   1 O :   -0.024793
   2 H :   -0.008246
   3 H :   -0.000079
   4 H :   -0.000053
   5 H :   -0.000051
   6 C :   -0.341535
   7 O :   -0.101727
   8 H :    0.174687
   9 H :    0.094814
  10 H :    0.101554
  11 H :    0.107314

  Mayer bond orders larger than 0.1
B(  6-C ,  7-O ) :   0.9911 B(  6-C ,  9-H ) :   0.9735 B(  6-C , 10-H ) :   0.9846
B(  6-C , 11-H ) :   0.9727 B(  7-O ,  8-H ) :   0.9019

Dispersion correction           -0.000263689
FINAL SINGLE POINT ENERGY      -115.733269727205

DIPOLE MOMENT
-------------
                                X             Y             Z
Electronic contribution:      0.42826      -0.38155       1.69644
Nuclear contribution   :     -0.35412       0.05730      -2.37535
                        -----------------------------------------
Total Dipole Moment    :      0.07415      -0.32425      -0.67891
                        -----------------------------------------
Magnitude (a.u.)       :      0.75601
Magnitude (Debye)      :      1.92162

Rotational constants in cm-1:     4.223785     0.779950     0.756091
Rotational constants in MHz : 126625.899094 23382.302876 22667.034583

                             ****ORCA TERMINATED NORMALLY****
TOTAL RUN TIME: 0 days 0 hours 1 minutes 14 seconds 797 msec
