                         Program Version 4.1.2  - RELEASE  -
|  1> #Run DFT-D3 single point of the dimer
|  2> ! wB97X-D3 def2-TZVP TIGHTSCF CHELPG PMODEL PAL8
|  3>
|  4> %base "22-9_DFT_AB"
|  5>
|  6> %scf
|  7> MaxIter 1000
|  8> end
|  9>
| 10> * xyz 0 1
| 11>   C                      -3.366488            1.354718             8.299496
| 12>   O                      -2.747762            2.580068             8.513952
| 13>   H                      -2.097212            2.607204             7.804503
| 14>   H                      -3.091532            0.606645             9.087924
| 15>   H                      -4.464560            1.385830             8.357553
| 16>   H                      -3.098089            0.935276             7.304372
| 17>   C                      -2.384133            5.612888             10.250260
| 18>   O                      -2.876529            4.335479             10.740839
| 19>   H                      -3.130271            3.791132             9.947765
| 20>   H                      -3.259201            6.241876             10.017787
| 21>   H                      -1.742954            6.086604             10.965910
| 22>   H                      -1.794586            5.557124             9.331309
| 23> *
| 24>
| 25> #Run DFT-D3 single point of the molecule with dimer basis set
| 26> $new_job
| 27> %base "22-9_DFT_A"
| 28> ! wB97X-D3 def2-TZVP TIGHTSCF CHELPG PMODEL
| 29>
| 30> %scf
| 31> MaxIter 1000
| 32> end
| 33>
| 34> * xyz 0 1
| 35>   C                      -3.366488            1.354718             8.299496
| 36>   O                      -2.747762            2.580068             8.513952
| 37>   H                      -2.097212            2.607204             7.804503
| 38>   H                      -3.091532            0.606645             9.087924
| 39>   H                      -4.464560            1.385830             8.357553
| 40>   H                      -3.098089            0.935276             7.304372
| 41>   C                    : -2.384133            5.612888             10.250260
| 42>   O                    : -2.876529            4.335479             10.740839
| 43>   H                    : -3.130271            3.791132             9.947765
| 44>   H                    : -3.259201            6.241876             10.017787
| 45>   H                    : -1.742954            6.086604             10.965910
| 46>   H                    : -1.794586            5.557124             9.331309
| 47> *
| 48>
| 49> #Run DFT-D3 single point of the particle with dimer basis set
| 50> $new_job
| 51> %base "22-9_DFT_B"
| 52> ! wB97X-D3 def2-TZVP TIGHTSCF CHELPG PMODEL
| 53>
| 54> %scf
| 55> MaxIter 1000
| 56> end
| 57>
| 58> * xyz 0 1
| 59>   C                    : -3.366488            1.354718             8.299496
| 60>   O                    : -2.747762            2.580068             8.513952
| 61>   H                    : -2.097212            2.607204             7.804503
| 62>   H                    : -3.091532            0.606645             9.087924
| 63>   H                    : -4.464560            1.385830             8.357553
| 64>   H                    : -3.098089            0.935276             7.304372
| 65>   C                      -2.384133            5.612888             10.250260
| 66>   O                      -2.876529            4.335479             10.740839
| 67>   H                      -3.130271            3.791132             9.947765
| 68>   H                      -3.259201            6.241876             10.017787
| 69>   H                      -1.742954            6.086604             10.965910
| 70>   H                      -1.794586            5.557124             9.331309
| 71> *
| 72>
| 73>                          ****END OF INPUT****
 Total Charge           Charge          ....    0
 Multiplicity           Mult            ....    1
 Number of Electrons    NEL             ....   36
Dispersion correction           -0.001643225
FINAL SINGLE POINT ENERGY      -231.472684683664
Dispersion correction           -0.000239875
FINAL SINGLE POINT ENERGY      -115.732807583077

CARTESIAN COORDINATES (ANGSTROEM)
---------------------------------
  C     -3.366488    1.354718    8.299496
  O     -2.747762    2.580068    8.513952
  H     -2.097212    2.607204    7.804503
  H     -3.091532    0.606645    9.087924
  H     -4.464560    1.385830    8.357553
  H     -3.098089    0.935276    7.304372
  C     -2.384133    5.612888   10.250260
  O     -2.876529    4.335479   10.740839
  H     -3.130271    3.791132    9.947765
  H     -3.259201    6.241876   10.017787
  H     -1.742954    6.086604   10.965910
  H     -1.794586    5.557124    9.331309

 Multiplicity           Mult            ....    1
 Number of Electrons    NEL             ....   18
 Basis Dimension        Dim             ....  172

ORBITAL ENERGIES
----------------

  NO   OCC          E(Eh)            E(eV)
   0   2.0000     -19.234041      -523.3849
   1   2.0000     -10.314485      -280.6714
   2   2.0000      -1.118197       -30.4277
   3   2.0000      -0.796163       -21.6647
   4   2.0000      -0.600262       -16.3340
   5   2.0000      -0.540447       -14.7063
   6   2.0000      -0.519015       -14.1231
   7   2.0000      -0.437965       -11.9176
   8   2.0000      -0.373773       -10.1709
   9   0.0000       0.070066         1.9066
  10   0.0000       0.127587         3.4718
  11   0.0000       0.148715         4.0467
  12   0.0000       0.163917         4.4604
  13   0.0000       0.195009         5.3065

MULLIKEN ATOMIC CHARGES
-----------------------
   0 C :   -0.002600
   1 O :   -0.005433
   2 H :   -0.000158
   3 H :   -0.000018
   4 H :   -0.000177
   5 H :    0.000059
   6 C :   -0.180545
   7 O :   -0.476151
   8 H :    0.318395
   9 H :    0.110201
  10 H :    0.126928
  11 H :    0.109498
Sum of atomic charges:    0.0000000

LOEWDIN ATOMIC CHARGES
----------------------
   0 C :   -0.003423
   1 O :   -0.023318
   2 H :   -0.001150
   3 H :   -0.000144
   4 H :   -0.000207
   5 H :   -0.000066
   6 C :   -0.358642
   7 O :   -0.108409
   8 H :    0.197208
   9 H :    0.099659
  10 H :    0.102476
  11 H :    0.096016

  Mayer bond orders larger than 0.1
B(  6-C ,  7-O ) :   0.9936 B(  6-C ,  9-H ) :   0.9821 B(  6-C , 10-H ) :   0.9708
B(  6-C , 11-H ) :   0.9706 B(  7-O ,  8-H ) :   0.8977

Dispersion correction           -0.000260610
FINAL SINGLE POINT ENERGY      -115.733482115845

DIPOLE MOMENT
-------------
                                X             Y             Z
Electronic contribution:     -0.52936      -1.54922       0.82900
Nuclear contribution   :      0.59893       1.74904      -1.52073
                        -----------------------------------------
Total Dipole Moment    :      0.06958       0.19981      -0.69173
                        -----------------------------------------
Magnitude (a.u.)       :      0.72336
Magnitude (Debye)      :      1.83865

Rotational constants in cm-1:     4.279811     0.790690     0.764114
Rotational constants in MHz : 128305.504143 23704.301457 22907.558073

                             ****ORCA TERMINATED NORMALLY****
TOTAL RUN TIME: 0 days 0 hours 1 minutes 0 seconds 386 msec
