                         Program Version 4.1.2  - RELEASE  -
|  1> #Run DFT-D3 single point of the dimer
|  2> ! wB97X-D3 def2-TZVP TIGHTSCF CHELPG PMODEL PAL8
|  3>
|  4> %base "3-163_DFT_AB"
|  5>
|  6> %scf
|  7> MaxIter 1000
|  8> end
|  9>
| 10> * xyz 0 1
| 11>   C                      5.111816             11.315297            -1.583076
| 12>   O                      4.924592             11.111814            -2.969516
| 13>   H                      4.468329             10.305470            -3.080474
| 14>   H                      5.285687             10.443004            -1.053035
| 15>   H                      5.970411             11.931998            -1.384776
| 16>   H                      4.228074             11.748586            -1.120460
| 17>   C                      3.627030             10.424831            -6.554399
| 18>   O                      2.944274             9.136227             -6.804718
| 19>   H                      3.141310             8.568076             -6.040726
| 20>   H                      3.795692             10.976671            -7.513833
| 21>   H                      2.933857             11.063324            -5.997272
| 22>   H                      4.543997             10.303838            -5.930602
| 23> *
| 24>
| 25> #Run DFT-D3 single point of the molecule with dimer basis set
| 26> $new_job
| 27> %base "3-163_DFT_A"
| 28> ! wB97X-D3 def2-TZVP TIGHTSCF CHELPG PMODEL
| 29>
| 30> %scf
| 31> MaxIter 1000
| 32> end
| 33>
| 34> * xyz 0 1
| 35>   C                      5.111816             11.315297            -1.583076
| 36>   O                      4.924592             11.111814            -2.969516
| 37>   H                      4.468329             10.305470            -3.080474
| 38>   H                      5.285687             10.443004            -1.053035
| 39>   H                      5.970411             11.931998            -1.384776
| 40>   H                      4.228074             11.748586            -1.120460
| 41>   C                    : 3.627030             10.424831            -6.554399
| 42>   O                    : 2.944274             9.136227             -6.804718
| 43>   H                    : 3.141310             8.568076             -6.040726
| 44>   H                    : 3.795692             10.976671            -7.513833
| 45>   H                    : 2.933857             11.063324            -5.997272
| 46>   H                    : 4.543997             10.303838            -5.930602
| 47> *
| 48>
| 49> #Run DFT-D3 single point of the particle with dimer basis set
| 50> $new_job
| 51> %base "3-163_DFT_B"
| 52> ! wB97X-D3 def2-TZVP TIGHTSCF CHELPG PMODEL
| 53>
| 54> %scf
| 55> MaxIter 1000
| 56> end
| 57>
| 58> * xyz 0 1
| 59>   C                    : 5.111816             11.315297            -1.583076
| 60>   O                    : 4.924592             11.111814            -2.969516
| 61>   H                    : 4.468329             10.305470            -3.080474
| 62>   H                    : 5.285687             10.443004            -1.053035
| 63>   H                    : 5.970411             11.931998            -1.384776
| 64>   H                    : 4.228074             11.748586            -1.120460
| 65>   C                      3.627030             10.424831            -6.554399
| 66>   O                      2.944274             9.136227             -6.804718
| 67>   H                      3.141310             8.568076             -6.040726
| 68>   H                      3.795692             10.976671            -7.513833
| 69>   H                      2.933857             11.063324            -5.997272
| 70>   H                      4.543997             10.303838            -5.930602
| 71> *
| 72>
| 73>                          ****END OF INPUT****
 Total Charge           Charge          ....    0
 Multiplicity           Mult            ....    1
 Number of Electrons    NEL             ....   36
Dispersion correction           -0.001209006
FINAL SINGLE POINT ENERGY      -231.464926851310
Dispersion correction           -0.000231786
FINAL SINGLE POINT ENERGY      -115.732857785941

CARTESIAN COORDINATES (ANGSTROEM)
---------------------------------
  C      5.111816   11.315297   -1.583076
  O      4.924592   11.111814   -2.969516
  H      4.468329   10.305470   -3.080474
  H      5.285687   10.443004   -1.053035
  H      5.970411   11.931998   -1.384776
  H      4.228074   11.748586   -1.120460
  C      3.627030   10.424831   -6.554399
  O      2.944274    9.136227   -6.804718
  H      3.141310    8.568076   -6.040726
  H      3.795692   10.976671   -7.513833
  H      2.933857   11.063324   -5.997272
  H      4.543997   10.303838   -5.930602

 Multiplicity           Mult            ....    1
 Number of Electrons    NEL             ....   18
 Basis Dimension        Dim             ....  172

ORBITAL ENERGIES
----------------

  NO   OCC          E(Eh)            E(eV)
   0   2.0000     -19.230657      -523.2928
   1   2.0000     -10.324216      -280.9362
   2   2.0000      -1.115346       -30.3501
   3   2.0000      -0.792717       -21.5709
   4   2.0000      -0.596927       -16.2432
   5   2.0000      -0.528965       -14.3939
   6   2.0000      -0.520371       -14.1600
   7   2.0000      -0.440848       -11.9961
   8   2.0000      -0.371995       -10.1225
   9   0.0000       0.077857         2.1186
  10   0.0000       0.110520         3.0074
  11   0.0000       0.143008         3.8914
  12   0.0000       0.177282         4.8241
  13   0.0000       0.188871         5.1394

MULLIKEN ATOMIC CHARGES
-----------------------
   0 C :   -0.000284
   1 O :   -0.000283
   2 H :    0.000304
   3 H :    0.000009
   4 H :    0.000004
   5 H :    0.000012
   6 C :   -0.182510
   7 O :   -0.482408
   8 H :    0.313472
   9 H :    0.126153
  10 H :    0.112245
  11 H :    0.113284
Sum of atomic charges:   -0.0000000

LOEWDIN ATOMIC CHARGES
----------------------
   0 C :   -0.000071
   1 O :   -0.000903
   2 H :   -0.001010
   3 H :   -0.000001
   4 H :   -0.000002
   5 H :   -0.000002
   6 C :   -0.348528
   7 O :   -0.130825
   8 H :    0.170349
   9 H :    0.113004
  10 H :    0.096502
  11 H :    0.101486

  Mayer bond orders larger than 0.1
B(  6-C ,  7-O ) :   0.9936 B(  6-C ,  9-H ) :   0.9715 B(  6-C , 10-H ) :   0.9765
B(  6-C , 11-H ) :   0.9733 B(  7-O ,  8-H ) :   0.9012

Dispersion correction           -0.000271891
FINAL SINGLE POINT ENERGY      -115.731443544806

DIPOLE MOMENT
-------------
                                X             Y             Z
Electronic contribution:     -0.79050      -1.55899      -0.48134
Nuclear contribution   :      1.19783       1.75960       1.06977
                        -----------------------------------------
Total Dipole Moment    :      0.40733       0.20062       0.58843
                        -----------------------------------------
Magnitude (a.u.)       :      0.74324
Magnitude (Debye)      :      1.88917

Rotational constants in cm-1:     4.136988     0.775634     0.739316
Rotational constants in MHz : 124023.781985 23252.935653 22164.128706

                             ****ORCA TERMINATED NORMALLY****
TOTAL RUN TIME: 0 days 0 hours 5 minutes 28 seconds 466 msec
