                         Program Version 4.1.2  - RELEASE  -
|  1> #Run DFT-D3 single point of the dimer
|  2> ! wB97X-D3 def2-TZVP TIGHTSCF CHELPG PMODEL PAL8
|  3>
|  4> %base "20-62_DFT_AB"
|  5>
|  6> %scf
|  7> MaxIter 1000
|  8> end
|  9>
| 10> * xyz 0 1
| 11>   C                      0.659082             8.615269             -3.643497
| 12>   O                      0.571755             9.841283             -3.042450
| 13>   H                      0.633439             10.539445            -3.712564
| 14>   H                      1.490287             8.549697             -4.355124
| 15>   H                      0.762765             7.880298             -2.852222
| 16>   H                      -0.254403            8.351689             -4.285406
| 17>   C                      -1.761067            5.722091             -2.002277
| 18>   O                      -1.949604            4.450320             -2.319201
| 19>   H                      -2.743328            3.992807             -2.075747
| 20>   H                      -2.692750            6.144057             -1.678658
| 21>   H                      -0.954174            5.871586             -1.341224
| 22>   H                      -1.561292            6.309232             -2.952997
| 23> *
| 24>
| 25> #Run DFT-D3 single point of the molecule with dimer basis set
| 26> $new_job
| 27> %base "20-62_DFT_A"
| 28> ! wB97X-D3 def2-TZVP TIGHTSCF CHELPG PMODEL
| 29>
| 30> %scf
| 31> MaxIter 1000
| 32> end
| 33>
| 34> * xyz 0 1
| 35>   C                      0.659082             8.615269             -3.643497
| 36>   O                      0.571755             9.841283             -3.042450
| 37>   H                      0.633439             10.539445            -3.712564
| 38>   H                      1.490287             8.549697             -4.355124
| 39>   H                      0.762765             7.880298             -2.852222
| 40>   H                      -0.254403            8.351689             -4.285406
| 41>   C                    : -1.761067            5.722091             -2.002277
| 42>   O                    : -1.949604            4.450320             -2.319201
| 43>   H                    : -2.743328            3.992807             -2.075747
| 44>   H                    : -2.692750            6.144057             -1.678658
| 45>   H                    : -0.954174            5.871586             -1.341224
| 46>   H                    : -1.561292            6.309232             -2.952997
| 47> *
| 48>
| 49> #Run DFT-D3 single point of the particle with dimer basis set
| 50> $new_job
| 51> %base "20-62_DFT_B"
| 52> ! wB97X-D3 def2-TZVP TIGHTSCF CHELPG PMODEL
| 53>
| 54> %scf
| 55> MaxIter 1000
| 56> end
| 57>
| 58> * xyz 0 1
| 59>   C                    : 0.659082             8.615269             -3.643497
| 60>   O                    : 0.571755             9.841283             -3.042450
| 61>   H                    : 0.633439             10.539445            -3.712564
| 62>   H                    : 1.490287             8.549697             -4.355124
| 63>   H                    : 0.762765             7.880298             -2.852222
| 64>   H                    : -0.254403            8.351689             -4.285406
| 65>   C                      -1.761067            5.722091             -2.002277
| 66>   O                      -1.949604            4.450320             -2.319201
| 67>   H                      -2.743328            3.992807             -2.075747
| 68>   H                      -2.692750            6.144057             -1.678658
| 69>   H                      -0.954174            5.871586             -1.341224
| 70>   H                      -1.561292            6.309232             -2.952997
| 71> *
| 72>
| 73>                          ****END OF INPUT****
 Total Charge           Charge          ....    0
 Multiplicity           Mult            ....    1
 Number of Electrons    NEL             ....   36
Dispersion correction           -0.001277693
FINAL SINGLE POINT ENERGY      -231.458180338881
Dispersion correction           -0.000234560
FINAL SINGLE POINT ENERGY      -115.734281512170

CARTESIAN COORDINATES (ANGSTROEM)
---------------------------------
  C      0.659082    8.615269   -3.643497
  O      0.571755    9.841283   -3.042450
  H      0.633439   10.539445   -3.712564
  H      1.490287    8.549697   -4.355124
  H      0.762765    7.880298   -2.852222
  H     -0.254403    8.351689   -4.285406
  C     -1.761067    5.722091   -2.002277
  O     -1.949604    4.450320   -2.319201
  H     -2.743328    3.992807   -2.075747
  H     -2.692750    6.144057   -1.678658
  H     -0.954174    5.871586   -1.341224
  H     -1.561292    6.309232   -2.952997

 Multiplicity           Mult            ....    1
 Number of Electrons    NEL             ....   18
 Basis Dimension        Dim             ....  172

ORBITAL ENERGIES
----------------

  NO   OCC          E(Eh)            E(eV)
   0   2.0000     -19.220770      -523.0237
   1   2.0000     -10.303220      -280.3649
   2   2.0000      -1.159303       -31.5462
   3   2.0000      -0.801885       -21.8204
   4   2.0000      -0.630954       -17.1691
   5   2.0000      -0.561938       -15.2911
   6   2.0000      -0.536022       -14.5859
   7   2.0000      -0.407474       -11.0879
   8   2.0000      -0.365372        -9.9423
   9   0.0000       0.089130         2.4253
  10   0.0000       0.116973         3.1830
  11   0.0000       0.151672         4.1272
  12   0.0000       0.179052         4.8723
  13   0.0000       0.185551         5.0491

MULLIKEN ATOMIC CHARGES
-----------------------
   0 C :    0.001058
   1 O :   -0.000030
   2 H :   -0.000001
   3 H :   -0.000073
   4 H :   -0.001262
   5 H :   -0.000647
   6 C :   -0.124620
   7 O :   -0.480860
   8 H :    0.326893
   9 H :    0.089926
  10 H :    0.100728
  11 H :    0.088887
Sum of atomic charges:    0.0000000

LOEWDIN ATOMIC CHARGES
----------------------
   0 C :   -0.003566
   1 O :   -0.000009
   2 H :   -0.000004
   3 H :   -0.000025
   4 H :   -0.001507
   5 H :   -0.002116
   6 C :   -0.443111
   7 O :   -0.006130
   8 H :    0.166114
   9 H :    0.091565
  10 H :    0.089572
  11 H :    0.109217

  Mayer bond orders larger than 0.1
B(  6-C ,  7-O ) :   1.0135 B(  6-C ,  9-H ) :   0.9932 B(  6-C , 10-H ) :   0.9718
B(  6-C , 11-H ) :   0.9751 B(  7-O ,  8-H ) :   0.8861

Dispersion correction           -0.000226593
FINAL SINGLE POINT ENERGY      -115.723051860270

DIPOLE MOMENT
-------------
                                X             Y             Z
Electronic contribution:     -0.12539      -1.77005      -0.25817
Nuclear contribution   :     -0.39177       1.90583       0.55911
                        -----------------------------------------
Total Dipole Moment    :     -0.51716       0.13578       0.30094
                        -----------------------------------------
Magnitude (a.u.)       :      0.61356
Magnitude (Debye)      :      1.55955

Rotational constants in cm-1:     4.539101     0.908095     0.884886
Rotational constants in MHz : 136078.831873 27223.993243 26528.227337

                             ****ORCA TERMINATED NORMALLY****
TOTAL RUN TIME: 0 days 0 hours 1 minutes 6 seconds 66 msec
