                         Program Version 4.1.2  - RELEASE  -
|  1> #Run DFT-D3 single point of the dimer
|  2> ! wB97X-D3 def2-TZVP TIGHTSCF CHELPG PMODEL PAL8
|  3>
|  4> %base "11-134_DFT_AB"
|  5>
|  6> %scf
|  7> MaxIter 1000
|  8> end
|  9>
| 10> * xyz 0 1
| 11>   C                      -3.148170            5.526536             0.250592
| 12>   O                      -4.122243            6.461500             0.653780
| 13>   H                      -4.972779            6.142392             0.328687
| 14>   H                      -2.964292            5.774731             -0.804132
| 15>   H                      -2.171916            5.713092             0.804986
| 16>   H                      -3.408570            4.525718             0.398298
| 17>   C                      -1.021915            2.852459             -2.001228
| 18>   O                      -0.952008            4.277122             -1.661741
| 19>   H                      -1.236880            4.719434             -2.465130
| 20>   H                      -0.167043            2.540624             -2.682369
| 21>   H                      -1.096906            2.264152             -1.113842
| 22>   H                      -1.909074            2.582421             -2.660496
| 23> *
| 24>
| 25> #Run DFT-D3 single point of the molecule with dimer basis set
| 26> $new_job
| 27> %base "11-134_DFT_A"
| 28> ! wB97X-D3 def2-TZVP TIGHTSCF CHELPG PMODEL
| 29>
| 30> %scf
| 31> MaxIter 1000
| 32> end
| 33>
| 34> * xyz 0 1
| 35>   C                      -3.148170            5.526536             0.250592
| 36>   O                      -4.122243            6.461500             0.653780
| 37>   H                      -4.972779            6.142392             0.328687
| 38>   H                      -2.964292            5.774731             -0.804132
| 39>   H                      -2.171916            5.713092             0.804986
| 40>   H                      -3.408570            4.525718             0.398298
| 41>   C                    : -1.021915            2.852459             -2.001228
| 42>   O                    : -0.952008            4.277122             -1.661741
| 43>   H                    : -1.236880            4.719434             -2.465130
| 44>   H                    : -0.167043            2.540624             -2.682369
| 45>   H                    : -1.096906            2.264152             -1.113842
| 46>   H                    : -1.909074            2.582421             -2.660496
| 47> *
| 48>
| 49> #Run DFT-D3 single point of the particle with dimer basis set
| 50> $new_job
| 51> %base "11-134_DFT_B"
| 52> ! wB97X-D3 def2-TZVP TIGHTSCF CHELPG PMODEL
| 53>
| 54> %scf
| 55> MaxIter 1000
| 56> end
| 57>
| 58> * xyz 0 1
| 59>   C                    : -3.148170            5.526536             0.250592
| 60>   O                    : -4.122243            6.461500             0.653780
| 61>   H                    : -4.972779            6.142392             0.328687
| 62>   H                    : -2.964292            5.774731             -0.804132
| 63>   H                    : -2.171916            5.713092             0.804986
| 64>   H                    : -3.408570            4.525718             0.398298
| 65>   C                      -1.021915            2.852459             -2.001228
| 66>   O                      -0.952008            4.277122             -1.661741
| 67>   H                      -1.236880            4.719434             -2.465130
| 68>   H                      -0.167043            2.540624             -2.682369
| 69>   H                      -1.096906            2.264152             -1.113842
| 70>   H                      -1.909074            2.582421             -2.660496
| 71> *
| 72>
| 73>                          ****END OF INPUT****
 Total Charge           Charge          ....    0
 Multiplicity           Mult            ....    1
 Number of Electrons    NEL             ....   36
Dispersion correction           -0.001740493
FINAL SINGLE POINT ENERGY      -231.463279618438
Dispersion correction           -0.000224914
FINAL SINGLE POINT ENERGY      -115.731651176907

CARTESIAN COORDINATES (ANGSTROEM)
---------------------------------
  C     -3.148170    5.526536    0.250592
  O     -4.122243    6.461500    0.653780
  H     -4.972779    6.142392    0.328687
  H     -2.964292    5.774731   -0.804132
  H     -2.171916    5.713092    0.804986
  H     -3.408570    4.525718    0.398298
  C     -1.021915    2.852459   -2.001228
  O     -0.952008    4.277122   -1.661741
  H     -1.236880    4.719434   -2.465130
  H     -0.167043    2.540624   -2.682369
  H     -1.096906    2.264152   -1.113842
  H     -1.909074    2.582421   -2.660496

 Multiplicity           Mult            ....    1
 Number of Electrons    NEL             ....   18
 Basis Dimension        Dim             ....  172

ORBITAL ENERGIES
----------------

  NO   OCC          E(Eh)            E(eV)
   0   2.0000     -19.235651      -523.4287
   1   2.0000     -10.325337      -280.9667
   2   2.0000      -1.125931       -30.6381
   3   2.0000      -0.793775       -21.5997
   4   2.0000      -0.604467       -16.4484
   5   2.0000      -0.534649       -14.5485
   6   2.0000      -0.514776       -14.0078
   7   2.0000      -0.447315       -12.1721
   8   2.0000      -0.375152       -10.2084
   9   0.0000       0.092196         2.5088
  10   0.0000       0.122574         3.3354
  11   0.0000       0.145641         3.9631
  12   0.0000       0.175394         4.7727
  13   0.0000       0.192773         5.2456

MULLIKEN ATOMIC CHARGES
-----------------------
   0 C :    0.017883
   1 O :   -0.000413
   2 H :   -0.000079
   3 H :   -0.018471
   4 H :   -0.004664
   5 H :   -0.003801
   6 C :   -0.200910
   7 O :   -0.463546
   8 H :    0.315631
   9 H :    0.112456
  10 H :    0.135711
  11 H :    0.110203
Sum of atomic charges:   -0.0000000

LOEWDIN ATOMIC CHARGES
----------------------
   0 C :   -0.016114
   1 O :   -0.000056
   2 H :   -0.000028
   3 H :   -0.008930
   4 H :   -0.002226
   5 H :   -0.001396
   6 C :   -0.361415
   7 O :   -0.087220
   8 H :    0.167817
   9 H :    0.104898
  10 H :    0.101407
  11 H :    0.103263

  Mayer bond orders larger than 0.1
B(  6-C ,  7-O ) :   0.9914 B(  6-C ,  9-H ) :   0.9661 B(  6-C , 10-H ) :   0.9737
B(  6-C , 11-H ) :   0.9724 B(  7-O ,  8-H ) :   0.9008

Dispersion correction           -0.000271257
FINAL SINGLE POINT ENERGY      -115.731004505277

DIPOLE MOMENT
-------------
                                X             Y             Z
Electronic contribution:      0.18201       1.76530       0.74619
Nuclear contribution   :     -0.39460      -2.08782      -1.38517
                        -----------------------------------------
Total Dipole Moment    :     -0.21259      -0.32251      -0.63898
                        -----------------------------------------
Magnitude (a.u.)       :      0.74666
Magnitude (Debye)      :      1.89787

Rotational constants in cm-1:     4.167162     0.781159     0.750421
Rotational constants in MHz : 124928.383261 23418.564263 22497.049094

                             ****ORCA TERMINATED NORMALLY****
TOTAL RUN TIME: 0 days 0 hours 1 minutes 15 seconds 450 msec
