                         Program Version 4.1.2  - RELEASE  -
|  1> #Run DFT-D3 single point of the dimer
|  2> ! wB97X-D3 def2-TZVP TIGHTSCF CHELPG PMODEL PAL8
|  3>
|  4> %base "4-114_DFT_AB"
|  5>
|  6> %scf
|  7> MaxIter 1000
|  8> end
|  9>
| 10> * xyz 0 1
| 11>   C                      2.306363             7.977900             -7.049044
| 12>   O                      3.680497             7.508819             -7.003539
| 13>   H                      3.822370             6.627895             -7.386926
| 14>   H                      2.324172             9.011762             -7.391483
| 15>   H                      1.650519             7.439648             -7.782240
| 16>   H                      1.747418             7.886337             -6.125104
| 17>   C                      3.758215             9.000766             -11.232383
| 18>   O                      3.081940             9.520575             -10.118957
| 19>   H                      3.790334             10.050160            -9.673086
| 20>   H                      4.451380             9.681015             -11.679457
| 21>   H                      4.379411             8.097384             -10.985518
| 22>   H                      2.958235             8.761899             -12.007994
| 23> *
| 24>
| 25> #Run DFT-D3 single point of the molecule with dimer basis set
| 26> $new_job
| 27> %base "4-114_DFT_A"
| 28> ! wB97X-D3 def2-TZVP TIGHTSCF CHELPG PMODEL
| 29>
| 30> %scf
| 31> MaxIter 1000
| 32> end
| 33>
| 34> * xyz 0 1
| 35>   C                      2.306363             7.977900             -7.049044
| 36>   O                      3.680497             7.508819             -7.003539
| 37>   H                      3.822370             6.627895             -7.386926
| 38>   H                      2.324172             9.011762             -7.391483
| 39>   H                      1.650519             7.439648             -7.782240
| 40>   H                      1.747418             7.886337             -6.125104
| 41>   C                    : 3.758215             9.000766             -11.232383
| 42>   O                    : 3.081940             9.520575             -10.118957
| 43>   H                    : 3.790334             10.050160            -9.673086
| 44>   H                    : 4.451380             9.681015             -11.679457
| 45>   H                    : 4.379411             8.097384             -10.985518
| 46>   H                    : 2.958235             8.761899             -12.007994
| 47> *
| 48>
| 49> #Run DFT-D3 single point of the particle with dimer basis set
| 50> $new_job
| 51> %base "4-114_DFT_B"
| 52> ! wB97X-D3 def2-TZVP TIGHTSCF CHELPG PMODEL
| 53>
| 54> %scf
| 55> MaxIter 1000
| 56> end
| 57>
| 58> * xyz 0 1
| 59>   C                    : 2.306363             7.977900             -7.049044
| 60>   O                    : 3.680497             7.508819             -7.003539
| 61>   H                    : 3.822370             6.627895             -7.386926
| 62>   H                    : 2.324172             9.011762             -7.391483
| 63>   H                    : 1.650519             7.439648             -7.782240
| 64>   H                    : 1.747418             7.886337             -6.125104
| 65>   C                      3.758215             9.000766             -11.232383
| 66>   O                      3.081940             9.520575             -10.118957
| 67>   H                      3.790334             10.050160            -9.673086
| 68>   H                      4.451380             9.681015             -11.679457
| 69>   H                      4.379411             8.097384             -10.985518
| 70>   H                      2.958235             8.761899             -12.007994
| 71> *
| 72>
| 73>                          ****END OF INPUT****
 Total Charge           Charge          ....    0
 Multiplicity           Mult            ....    1
 Number of Electrons    NEL             ....   36
Dispersion correction           -0.001601073
FINAL SINGLE POINT ENERGY      -231.465566732512
Dispersion correction           -0.000293986
FINAL SINGLE POINT ENERGY      -115.731642390859

CARTESIAN COORDINATES (ANGSTROEM)
---------------------------------
  C      2.306363    7.977900   -7.049044
  O      3.680497    7.508819   -7.003539
  H      3.822370    6.627895   -7.386926
  H      2.324172    9.011762   -7.391483
  H      1.650519    7.439648   -7.782240
  H      1.747418    7.886337   -6.125104
  C      3.758215    9.000766  -11.232383
  O      3.081940    9.520575  -10.118957
  H      3.790334   10.050160   -9.673086
  H      4.451380    9.681015  -11.679457
  H      4.379411    8.097384  -10.985518
  H      2.958235    8.761899  -12.007994

 Multiplicity           Mult            ....    1
 Number of Electrons    NEL             ....   18
 Basis Dimension        Dim             ....  172

ORBITAL ENERGIES
----------------

  NO   OCC          E(Eh)            E(eV)
   0   2.0000     -19.237441      -523.4774
   1   2.0000     -10.316992      -280.7396
   2   2.0000      -1.140216       -31.0269
   3   2.0000      -0.786460       -21.4007
   4   2.0000      -0.615568       -16.7505
   5   2.0000      -0.539021       -14.6675
   6   2.0000      -0.519741       -14.1429
   7   2.0000      -0.440734       -11.9930
   8   2.0000      -0.373381       -10.1602
   9   0.0000       0.089380         2.4321
  10   0.0000       0.121168         3.2971
  11   0.0000       0.148720         4.0469
  12   0.0000       0.172087         4.6827
  13   0.0000       0.190753         5.1906

MULLIKEN ATOMIC CHARGES
-----------------------
   0 C :    0.002070
   1 O :   -0.000559
   2 H :   -0.000150
   3 H :   -0.004787
   4 H :   -0.002027
   5 H :   -0.000399
   6 C :   -0.177107
   7 O :   -0.455341
   8 H :    0.316565
   9 H :    0.108679
  10 H :    0.097211
  11 H :    0.115845
Sum of atomic charges:    0.0000000

LOEWDIN ATOMIC CHARGES
----------------------
   0 C :   -0.007417
   1 O :   -0.000377
   2 H :   -0.000108
   3 H :   -0.004448
   4 H :   -0.001007
   5 H :   -0.000104
   6 C :   -0.409764
   7 O :   -0.069773
   8 H :    0.191386
   9 H :    0.087362
  10 H :    0.097466
  11 H :    0.116786

  Mayer bond orders larger than 0.1
B(  6-C ,  7-O ) :   1.0015 B(  6-C ,  9-H ) :   0.9745 B(  6-C , 10-H ) :   0.9691
B(  6-C , 11-H ) :   0.9756 B(  7-O ,  8-H ) :   0.8963

Dispersion correction           -0.000234648
FINAL SINGLE POINT ENERGY      -115.732053890337

DIPOLE MOMENT
-------------
                                X             Y             Z
Electronic contribution:     -1.01336       0.66244       1.43997
Nuclear contribution   :      1.71012      -0.48870      -1.59982
                        -----------------------------------------
Total Dipole Moment    :      0.69676       0.17374      -0.15985
                        -----------------------------------------
Magnitude (a.u.)       :      0.73567
Magnitude (Debye)      :      1.86994

Rotational constants in cm-1:     4.090851     0.847274     0.808452
Rotational constants in MHz : 122640.618587 25400.630198 24236.766710

                             ****ORCA TERMINATED NORMALLY****
TOTAL RUN TIME: 0 days 0 hours 1 minutes 27 seconds 220 msec
