                         Program Version 4.1.2  - RELEASE  -
|  1> #Run DFT-D3 single point of the dimer
|  2> ! wB97X-D3 def2-TZVP TIGHTSCF CHELPG PMODEL PAL8
|  3>
|  4> %base "22-95_DFT_AB"
|  5>
|  6> %scf
|  7> MaxIter 1000
|  8> end
|  9>
| 10> * xyz 0 1
| 11>   C                      8.152796             8.556054             -5.321419
| 12>   O                      6.909219             9.044673             -4.812207
| 13>   H                      6.285718             8.702034             -5.470259
| 14>   H                      8.064256             8.349003             -6.365875
| 15>   H                      9.010342             9.257000             -5.240811
| 16>   H                      8.377186             7.606242             -4.788367
| 17>   C                      7.365350             5.125921             -5.338019
| 18>   O                      8.689824             5.141311             -4.611010
| 19>   H                      9.239684             4.501322             -4.999733
| 20>   H                      7.687627             5.210151             -6.452757
| 21>   H                      6.816516             4.190270             -5.134899
| 22>   H                      6.715848             6.006609             -5.067874
| 23> *
| 24>
| 25> #Run DFT-D3 single point of the molecule with dimer basis set
| 26> $new_job
| 27> %base "22-95_DFT_A"
| 28> ! wB97X-D3 def2-TZVP TIGHTSCF CHELPG PMODEL
| 29>
| 30> %scf
| 31> MaxIter 1000
| 32> end
| 33>
| 34> * xyz 0 1
| 35>   C                      8.152796             8.556054             -5.321419
| 36>   O                      6.909219             9.044673             -4.812207
| 37>   H                      6.285718             8.702034             -5.470259
| 38>   H                      8.064256             8.349003             -6.365875
| 39>   H                      9.010342             9.257000             -5.240811
| 40>   H                      8.377186             7.606242             -4.788367
| 41>   C                    : 7.365350             5.125921             -5.338019
| 42>   O                    : 8.689824             5.141311             -4.611010
| 43>   H                    : 9.239684             4.501322             -4.999733
| 44>   H                    : 7.687627             5.210151             -6.452757
| 45>   H                    : 6.816516             4.190270             -5.134899
| 46>   H                    : 6.715848             6.006609             -5.067874
| 47> *
| 48>
| 49> #Run DFT-D3 single point of the particle with dimer basis set
| 50> $new_job
| 51> %base "22-95_DFT_B"
| 52> ! wB97X-D3 def2-TZVP TIGHTSCF CHELPG PMODEL
| 53>
| 54> %scf
| 55> MaxIter 1000
| 56> end
| 57>
| 58> * xyz 0 1
| 59>   C                    : 8.152796             8.556054             -5.321419
| 60>   O                    : 6.909219             9.044673             -4.812207
| 61>   H                    : 6.285718             8.702034             -5.470259
| 62>   H                    : 8.064256             8.349003             -6.365875
| 63>   H                    : 9.010342             9.257000             -5.240811
| 64>   H                    : 8.377186             7.606242             -4.788367
| 65>   C                      7.365350             5.125921             -5.338019
| 66>   O                      8.689824             5.141311             -4.611010
| 67>   H                      9.239684             4.501322             -4.999733
| 68>   H                      7.687627             5.210151             -6.452757
| 69>   H                      6.816516             4.190270             -5.134899
| 70>   H                      6.715848             6.006609             -5.067874
| 71> *
| 72>
| 73>                          ****END OF INPUT****
 Total Charge           Charge          ....    0
 Multiplicity           Mult            ....    1
 Number of Electrons    NEL             ....   36
Dispersion correction           -0.002090731
FINAL SINGLE POINT ENERGY      -231.458341972632
Dispersion correction           -0.000234502
FINAL SINGLE POINT ENERGY      -115.732155021395

CARTESIAN COORDINATES (ANGSTROEM)
---------------------------------
  C      8.152796    8.556054   -5.321419
  O      6.909219    9.044673   -4.812207
  H      6.285718    8.702034   -5.470259
  H      8.064256    8.349003   -6.365875
  H      9.010342    9.257000   -5.240811
  H      8.377186    7.606242   -4.788367
  C      7.365350    5.125921   -5.338019
  O      8.689824    5.141311   -4.611010
  H      9.239684    4.501322   -4.999733
  H      7.687627    5.210151   -6.452757
  H      6.816516    4.190270   -5.134899
  H      6.715848    6.006609   -5.067874

 Multiplicity           Mult            ....    1
 Number of Electrons    NEL             ....   18
 Basis Dimension        Dim             ....  172

ORBITAL ENERGIES
----------------

  NO   OCC          E(Eh)            E(eV)
   0   2.0000     -19.224615      -523.1284
   1   2.0000     -10.335263      -281.2368
   2   2.0000      -1.115654       -30.3585
   3   2.0000      -0.792350       -21.5610
   4   2.0000      -0.590706       -16.0739
   5   2.0000      -0.533940       -14.5293
   6   2.0000      -0.520961       -14.1761
   7   2.0000      -0.431474       -11.7410
   8   2.0000      -0.375132       -10.2079
   9   0.0000       0.091520         2.4904
  10   0.0000       0.120398         3.2762
  11   0.0000       0.146749         3.9932
  12   0.0000       0.169283         4.6064
  13   0.0000       0.189816         5.1652

MULLIKEN ATOMIC CHARGES
-----------------------
   0 C :   -0.001333
   1 O :   -0.000144
   2 H :   -0.000370
   3 H :   -0.000739
   4 H :    0.000516
   5 H :   -0.000267
   6 C :   -0.205168
   7 O :   -0.483209
   8 H :    0.305527
   9 H :    0.118446
  10 H :    0.129173
  11 H :    0.137566
Sum of atomic charges:    0.0000000

LOEWDIN ATOMIC CHARGES
----------------------
   0 C :   -0.009155
   1 O :   -0.000472
   2 H :   -0.001096
   3 H :   -0.000668
   4 H :   -0.000033
   5 H :   -0.011812
   6 C :   -0.324088
   7 O :   -0.123382
   8 H :    0.137963
   9 H :    0.114133
  10 H :    0.099057
  11 H :    0.119553

  Mayer bond orders larger than 0.1
B(  6-C ,  7-O ) :   0.9698 B(  6-C ,  9-H ) :   0.9826 B(  6-C , 10-H ) :   0.9616
B(  6-C , 11-H ) :   0.9698 B(  7-O ,  8-H ) :   0.9080

Dispersion correction           -0.000280108
FINAL SINGLE POINT ENERGY      -115.725059310874

DIPOLE MOMENT
-------------
                                X             Y             Z
Electronic contribution:      1.40534       0.09828       1.04188
Nuclear contribution   :     -1.65372      -0.51669      -1.60538
                        -----------------------------------------
Total Dipole Moment    :     -0.24838      -0.41841      -0.56350
                        -----------------------------------------
Magnitude (a.u.)       :      0.74451
Magnitude (Debye)      :      1.89238

Rotational constants in cm-1:     4.040973     0.744317     0.723201
Rotational constants in MHz : 121145.316233 22314.067822 21681.023484

                             ****ORCA TERMINATED NORMALLY****
TOTAL RUN TIME: 0 days 0 hours 0 minutes 50 seconds 84 msec
