                         Program Version 4.1.2  - RELEASE  -
|  1> #Run DFT-D3 single point of the dimer
|  2> ! wB97X-D3 def2-TZVP TIGHTSCF CHELPG PMODEL PAL8
|  3>
|  4> %base "4-113_DFT_AB"
|  5>
|  6> %scf
|  7> MaxIter 1000
|  8> end
|  9>
| 10> * xyz 0 1
| 11>   C                      2.306363             7.977900             -7.049044
| 12>   O                      3.680497             7.508819             -7.003539
| 13>   H                      3.822370             6.627895             -7.386926
| 14>   H                      2.324172             9.011762             -7.391483
| 15>   H                      1.650519             7.439648             -7.782240
| 16>   H                      1.747418             7.886337             -6.125104
| 17>   C                      5.147577             7.515241             -3.265000
| 18>   O                      3.716713             7.577363             -3.335981
| 19>   H                      3.412833             6.771940             -3.793769
| 20>   H                      5.660477             8.347349             -2.790045
| 21>   H                      5.521592             6.700084             -2.687815
| 22>   H                      5.589001             7.427400             -4.268107
| 23> *
| 24>
| 25> #Run DFT-D3 single point of the molecule with dimer basis set
| 26> $new_job
| 27> %base "4-113_DFT_A"
| 28> ! wB97X-D3 def2-TZVP TIGHTSCF CHELPG PMODEL
| 29>
| 30> %scf
| 31> MaxIter 1000
| 32> end
| 33>
| 34> * xyz 0 1
| 35>   C                      2.306363             7.977900             -7.049044
| 36>   O                      3.680497             7.508819             -7.003539
| 37>   H                      3.822370             6.627895             -7.386926
| 38>   H                      2.324172             9.011762             -7.391483
| 39>   H                      1.650519             7.439648             -7.782240
| 40>   H                      1.747418             7.886337             -6.125104
| 41>   C                    : 5.147577             7.515241             -3.265000
| 42>   O                    : 3.716713             7.577363             -3.335981
| 43>   H                    : 3.412833             6.771940             -3.793769
| 44>   H                    : 5.660477             8.347349             -2.790045
| 45>   H                    : 5.521592             6.700084             -2.687815
| 46>   H                    : 5.589001             7.427400             -4.268107
| 47> *
| 48>
| 49> #Run DFT-D3 single point of the particle with dimer basis set
| 50> $new_job
| 51> %base "4-113_DFT_B"
| 52> ! wB97X-D3 def2-TZVP TIGHTSCF CHELPG PMODEL
| 53>
| 54> %scf
| 55> MaxIter 1000
| 56> end
| 57>
| 58> * xyz 0 1
| 59>   C                    : 2.306363             7.977900             -7.049044
| 60>   O                    : 3.680497             7.508819             -7.003539
| 61>   H                    : 3.822370             6.627895             -7.386926
| 62>   H                    : 2.324172             9.011762             -7.391483
| 63>   H                    : 1.650519             7.439648             -7.782240
| 64>   H                    : 1.747418             7.886337             -6.125104
| 65>   C                      5.147577             7.515241             -3.265000
| 66>   O                      3.716713             7.577363             -3.335981
| 67>   H                      3.412833             6.771940             -3.793769
| 68>   H                      5.660477             8.347349             -2.790045
| 69>   H                      5.521592             6.700084             -2.687815
| 70>   H                      5.589001             7.427400             -4.268107
| 71> *
| 72>
| 73>                          ****END OF INPUT****
 Total Charge           Charge          ....    0
 Multiplicity           Mult            ....    1
 Number of Electrons    NEL             ....   36
Dispersion correction           -0.001561568
FINAL SINGLE POINT ENERGY      -231.465111297515
Dispersion correction           -0.000293986
FINAL SINGLE POINT ENERGY      -115.731758919401

CARTESIAN COORDINATES (ANGSTROEM)
---------------------------------
  C      2.306363    7.977900   -7.049044
  O      3.680497    7.508819   -7.003539
  H      3.822370    6.627895   -7.386926
  H      2.324172    9.011762   -7.391483
  H      1.650519    7.439648   -7.782240
  H      1.747418    7.886337   -6.125104
  C      5.147577    7.515241   -3.265000
  O      3.716713    7.577363   -3.335981
  H      3.412833    6.771940   -3.793769
  H      5.660477    8.347349   -2.790045
  H      5.521592    6.700084   -2.687815
  H      5.589001    7.427400   -4.268107

 Multiplicity           Mult            ....    1
 Number of Electrons    NEL             ....   18
 Basis Dimension        Dim             ....  172

ORBITAL ENERGIES
----------------

  NO   OCC          E(Eh)            E(eV)
   0   2.0000     -19.235242      -523.4175
   1   2.0000     -10.311849      -280.5997
   2   2.0000      -1.128980       -30.7211
   3   2.0000      -0.800602       -21.7855
   4   2.0000      -0.607041       -16.5184
   5   2.0000      -0.541109       -14.7243
   6   2.0000      -0.527786       -14.3618
   7   2.0000      -0.432739       -11.7754
   8   2.0000      -0.376323       -10.2403
   9   0.0000       0.079440         2.1617
  10   0.0000       0.126389         3.4392
  11   0.0000       0.145239         3.9522
  12   0.0000       0.166177         4.5219
  13   0.0000       0.193538         5.2664

MULLIKEN ATOMIC CHARGES
-----------------------
   0 C :   -0.001879
   1 O :    0.000005
   2 H :   -0.000036
   3 H :    0.000150
   4 H :   -0.000097
   5 H :   -0.002231
   6 C :   -0.182113
   7 O :   -0.473389
   8 H :    0.320807
   9 H :    0.123646
  10 H :    0.110046
  11 H :    0.105091
Sum of atomic charges:   -0.0000000

LOEWDIN ATOMIC CHARGES
----------------------
   0 C :   -0.002636
   1 O :   -0.000795
   2 H :   -0.000123
   3 H :   -0.000029
   4 H :   -0.000042
   5 H :   -0.001506
   6 C :   -0.376869
   7 O :   -0.092202
   8 H :    0.179193
   9 H :    0.108352
  10 H :    0.089720
  11 H :    0.096935

  Mayer bond orders larger than 0.1
B(  6-C ,  7-O ) :   0.9991 B(  6-C ,  9-H ) :   0.9725 B(  6-C , 10-H ) :   0.9766
B(  6-C , 11-H ) :   0.9793 B(  7-O ,  8-H ) :   0.8930

Dispersion correction           -0.000256831
FINAL SINGLE POINT ENERGY      -115.732148456572

DIPOLE MOMENT
-------------
                                X             Y             Z
Electronic contribution:     -1.92448       0.24933       0.02839
Nuclear contribution   :      2.33741      -0.78330      -0.26074
                        -----------------------------------------
Total Dipole Moment    :      0.41294      -0.53397      -0.23235
                        -----------------------------------------
Magnitude (a.u.)       :      0.71388
Magnitude (Debye)      :      1.81454

Rotational constants in cm-1:     4.505478     0.800237     0.773750
Rotational constants in MHz : 135070.845806 23990.507079 23196.431734

                             ****ORCA TERMINATED NORMALLY****
TOTAL RUN TIME: 0 days 0 hours 1 minutes 25 seconds 543 msec
