                         Program Version 4.1.2  - RELEASE  -
|  1> #Run DFT-D3 single point of the dimer
|  2> ! wB97X-D3 def2-TZVP TIGHTSCF CHELPG PMODEL PAL8
|  3>
|  4> %base "11-94_DFT_AB"
|  5>
|  6> %scf
|  7> MaxIter 1000
|  8> end
|  9>
| 10> * xyz 0 1
| 11>   C                      5.805939             10.294651            -6.906468
| 12>   O                      5.983511             11.721538            -7.025334
| 13>   H                      5.096172             12.079015            -7.135066
| 14>   H                      5.223192             9.968730             -7.767834
| 15>   H                      6.785383             9.801651             -6.954070
| 16>   H                      5.389869             9.935072             -5.948628
| 17>   C                      3.449128             6.099707             -9.268008
| 18>   O                      3.715254             7.381216             -8.754075
| 19>   H                      3.174861             7.998852             -9.234291
| 20>   H                      2.370180             6.092043             -9.558318
| 21>   H                      4.053126             5.910683             -10.113181
| 22>   H                      3.617349             5.368461             -8.500939
| 23> *
| 24>
| 25> #Run DFT-D3 single point of the molecule with dimer basis set
| 26> $new_job
| 27> %base "11-94_DFT_A"
| 28> ! wB97X-D3 def2-TZVP TIGHTSCF CHELPG PMODEL
| 29>
| 30> %scf
| 31> MaxIter 1000
| 32> end
| 33>
| 34> * xyz 0 1
| 35>   C                      5.805939             10.294651            -6.906468
| 36>   O                      5.983511             11.721538            -7.025334
| 37>   H                      5.096172             12.079015            -7.135066
| 38>   H                      5.223192             9.968730             -7.767834
| 39>   H                      6.785383             9.801651             -6.954070
| 40>   H                      5.389869             9.935072             -5.948628
| 41>   C                    : 3.449128             6.099707             -9.268008
| 42>   O                    : 3.715254             7.381216             -8.754075
| 43>   H                    : 3.174861             7.998852             -9.234291
| 44>   H                    : 2.370180             6.092043             -9.558318
| 45>   H                    : 4.053126             5.910683             -10.113181
| 46>   H                    : 3.617349             5.368461             -8.500939
| 47> *
| 48>
| 49> #Run DFT-D3 single point of the particle with dimer basis set
| 50> $new_job
| 51> %base "11-94_DFT_B"
| 52> ! wB97X-D3 def2-TZVP TIGHTSCF CHELPG PMODEL
| 53>
| 54> %scf
| 55> MaxIter 1000
| 56> end
| 57>
| 58> * xyz 0 1
| 59>   C                    : 5.805939             10.294651            -6.906468
| 60>   O                    : 5.983511             11.721538            -7.025334
| 61>   H                    : 5.096172             12.079015            -7.135066
| 62>   H                    : 5.223192             9.968730             -7.767834
| 63>   H                    : 6.785383             9.801651             -6.954070
| 64>   H                    : 5.389869             9.935072             -5.948628
| 65>   C                      3.449128             6.099707             -9.268008
| 66>   O                      3.715254             7.381216             -8.754075
| 67>   H                      3.174861             7.998852             -9.234291
| 68>   H                      2.370180             6.092043             -9.558318
| 69>   H                      4.053126             5.910683             -10.113181
| 70>   H                      3.617349             5.368461             -8.500939
| 71> *
| 72>
| 73>                          ****END OF INPUT****
 Total Charge           Charge          ....    0
 Multiplicity           Mult            ....    1
 Number of Electrons    NEL             ....   36
Dispersion correction           -0.000961758
FINAL SINGLE POINT ENERGY      -231.469780173531
Dispersion correction           -0.000251328
FINAL SINGLE POINT ENERGY      -115.734676762035

CARTESIAN COORDINATES (ANGSTROEM)
---------------------------------
  C      5.805939   10.294651   -6.906468
  O      5.983511   11.721538   -7.025334
  H      5.096172   12.079015   -7.135066
  H      5.223192    9.968730   -7.767834
  H      6.785383    9.801651   -6.954070
  H      5.389869    9.935072   -5.948628
  C      3.449128    6.099707   -9.268008
  O      3.715254    7.381216   -8.754075
  H      3.174861    7.998852   -9.234291
  H      2.370180    6.092043   -9.558318
  H      4.053126    5.910683  -10.113181
  H      3.617349    5.368461   -8.500939

 Multiplicity           Mult            ....    1
 Number of Electrons    NEL             ....   18
 Basis Dimension        Dim             ....  172

ORBITAL ENERGIES
----------------

  NO   OCC          E(Eh)            E(eV)
   0   2.0000     -19.225267      -523.1461
   1   2.0000     -10.308399      -280.5058
   2   2.0000      -1.139509       -31.0076
   3   2.0000      -0.796872       -21.6840
   4   2.0000      -0.610474       -16.6118
   5   2.0000      -0.550481       -14.9794
   6   2.0000      -0.532105       -14.4793
   7   2.0000      -0.430624       -11.7179
   8   2.0000      -0.372705       -10.1418
   9   0.0000       0.094899         2.5823
  10   0.0000       0.117149         3.1878
  11   0.0000       0.159662         4.3446
  12   0.0000       0.173517         4.7216
  13   0.0000       0.197975         5.3872

MULLIKEN ATOMIC CHARGES
-----------------------
   0 C :    0.000878
   1 O :   -0.000032
   2 H :   -0.000014
   3 H :   -0.004161
   4 H :   -0.000126
   5 H :   -0.000126
   6 C :   -0.154018
   7 O :   -0.472824
   8 H :    0.314573
   9 H :    0.093606
  10 H :    0.103578
  11 H :    0.118666
Sum of atomic charges:   -0.0000000

LOEWDIN ATOMIC CHARGES
----------------------
   0 C :   -0.001708
   1 O :   -0.000018
   2 H :   -0.000001
   3 H :   -0.002633
   4 H :   -0.000046
   5 H :   -0.000092
   6 C :   -0.378588
   7 O :   -0.070617
   8 H :    0.163295
   9 H :    0.101227
  10 H :    0.086743
  11 H :    0.102438

  Mayer bond orders larger than 0.1
B(  6-C ,  7-O ) :   0.9967 B(  6-C ,  9-H ) :   0.9909 B(  6-C , 10-H ) :   0.9740
B(  6-C , 11-H ) :   0.9745 B(  7-O ,  8-H ) :   0.9011

Dispersion correction           -0.000214741
FINAL SINGLE POINT ENERGY      -115.734146180539

DIPOLE MOMENT
-------------
                                X             Y             Z
Electronic contribution:      0.51611       1.47026       0.72240
Nuclear contribution   :     -0.97291      -1.59571      -1.23353
                        -----------------------------------------
Total Dipole Moment    :     -0.45680      -0.12546      -0.51113
                        -----------------------------------------
Magnitude (a.u.)       :      0.69689
Magnitude (Debye)      :      1.77135

Rotational constants in cm-1:     4.286047     0.853084     0.820030
Rotational constants in MHz : 128492.456450 25574.803398 24583.883393

                             ****ORCA TERMINATED NORMALLY****
TOTAL RUN TIME: 0 days 0 hours 0 minutes 46 seconds 859 msec
