                         Program Version 4.1.2  - RELEASE  -
|  1> #Run DFT-D3 single point of the dimer
|  2> ! wB97X-D3 def2-TZVP TIGHTSCF CHELPG PMODEL PAL8
|  3>
|  4> %base "5-107_DFT_AB"
|  5>
|  6> %scf
|  7> MaxIter 1000
|  8> end
|  9>
| 10> * xyz 0 1
| 11>   C                      5.879248             6.066946             0.264854
| 12>   O                      4.644750             5.484827             0.033709
| 13>   H                      3.940731             6.087676             0.317555
| 14>   H                      5.948655             7.172369             0.120098
| 15>   H                      6.144315             5.944105             1.290748
| 16>   H                      6.708963             5.622361             -0.348714
| 17>   C                      3.725692             8.685668             2.928643
| 18>   O                      4.935131             8.174509             3.468298
| 19>   H                      4.772928             7.795491             4.295464
| 20>   H                      2.925058             7.913007             2.875613
| 21>   H                      3.328209             9.484525             3.598839
| 22>   H                      3.910930             9.254488             1.992833
| 23> *
| 24>
| 25> #Run DFT-D3 single point of the molecule with dimer basis set
| 26> $new_job
| 27> %base "5-107_DFT_A"
| 28> ! wB97X-D3 def2-TZVP TIGHTSCF CHELPG PMODEL
| 29>
| 30> %scf
| 31> MaxIter 1000
| 32> end
| 33>
| 34> * xyz 0 1
| 35>   C                      5.879248             6.066946             0.264854
| 36>   O                      4.644750             5.484827             0.033709
| 37>   H                      3.940731             6.087676             0.317555
| 38>   H                      5.948655             7.172369             0.120098
| 39>   H                      6.144315             5.944105             1.290748
| 40>   H                      6.708963             5.622361             -0.348714
| 41>   C                    : 3.725692             8.685668             2.928643
| 42>   O                    : 4.935131             8.174509             3.468298
| 43>   H                    : 4.772928             7.795491             4.295464
| 44>   H                    : 2.925058             7.913007             2.875613
| 45>   H                    : 3.328209             9.484525             3.598839
| 46>   H                    : 3.910930             9.254488             1.992833
| 47> *
| 48>
| 49> #Run DFT-D3 single point of the particle with dimer basis set
| 50> $new_job
| 51> %base "5-107_DFT_B"
| 52> ! wB97X-D3 def2-TZVP TIGHTSCF CHELPG PMODEL
| 53>
| 54> %scf
| 55> MaxIter 1000
| 56> end
| 57>
| 58> * xyz 0 1
| 59>   C                    : 5.879248             6.066946             0.264854
| 60>   O                    : 4.644750             5.484827             0.033709
| 61>   H                    : 3.940731             6.087676             0.317555
| 62>   H                    : 5.948655             7.172369             0.120098
| 63>   H                    : 6.144315             5.944105             1.290748
| 64>   H                    : 6.708963             5.622361             -0.348714
| 65>   C                      3.725692             8.685668             2.928643
| 66>   O                      4.935131             8.174509             3.468298
| 67>   H                      4.772928             7.795491             4.295464
| 68>   H                      2.925058             7.913007             2.875613
| 69>   H                      3.328209             9.484525             3.598839
| 70>   H                      3.910930             9.254488             1.992833
| 71> *
| 72>
| 73>                          ****END OF INPUT****
 Total Charge           Charge          ....    0
 Multiplicity           Mult            ....    1
 Number of Electrons    NEL             ....   36
Dispersion correction           -0.001526435
FINAL SINGLE POINT ENERGY      -231.467089072993
Dispersion correction           -0.000244969
FINAL SINGLE POINT ENERGY      -115.732713387086

CARTESIAN COORDINATES (ANGSTROEM)
---------------------------------
  C      5.879248    6.066946    0.264854
  O      4.644750    5.484827    0.033709
  H      3.940731    6.087676    0.317555
  H      5.948655    7.172369    0.120098
  H      6.144315    5.944105    1.290748
  H      6.708963    5.622361   -0.348714
  C      3.725692    8.685668    2.928643
  O      4.935131    8.174509    3.468298
  H      4.772928    7.795491    4.295464
  H      2.925058    7.913007    2.875613
  H      3.328209    9.484525    3.598839
  H      3.910930    9.254488    1.992833

 Multiplicity           Mult            ....    1
 Number of Electrons    NEL             ....   18
 Basis Dimension        Dim             ....  172

ORBITAL ENERGIES
----------------

  NO   OCC          E(Eh)            E(eV)
   0   2.0000     -19.227248      -523.2000
   1   2.0000     -10.321031      -280.8495
   2   2.0000      -1.141435       -31.0600
   3   2.0000      -0.796241       -21.6668
   4   2.0000      -0.614647       -16.7254
   5   2.0000      -0.542504       -14.7623
   6   2.0000      -0.522683       -14.2229
   7   2.0000      -0.434013       -11.8101
   8   2.0000      -0.372519       -10.1368
   9   0.0000       0.091834         2.4989
  10   0.0000       0.125433         3.4132
  11   0.0000       0.148664         4.0454
  12   0.0000       0.173717         4.7271
  13   0.0000       0.189158         5.1473

MULLIKEN ATOMIC CHARGES
-----------------------
   0 C :    0.002688
   1 O :   -0.000213
   2 H :    0.000010
   3 H :   -0.000712
   4 H :   -0.004409
   5 H :   -0.000169
   6 C :   -0.174551
   7 O :   -0.468493
   8 H :    0.308823
   9 H :    0.105781
  10 H :    0.104082
  11 H :    0.127163
Sum of atomic charges:   -0.0000000

LOEWDIN ATOMIC CHARGES
----------------------
   0 C :   -0.002028
   1 O :   -0.000025
   2 H :   -0.000350
   3 H :   -0.000306
   4 H :   -0.002367
   5 H :   -0.000026
   6 C :   -0.387002
   7 O :   -0.061913
   8 H :    0.143918
   9 H :    0.097891
  10 H :    0.097887
  11 H :    0.114319

  Mayer bond orders larger than 0.1
B(  6-C ,  7-O ) :   0.9877 B(  6-C ,  9-H ) :   0.9730 B(  6-C , 10-H ) :   0.9751
B(  6-C , 11-H ) :   0.9716 B(  7-O ,  8-H ) :   0.9053

Dispersion correction           -0.000246954
FINAL SINGLE POINT ENERGY      -115.732690990499

DIPOLE MOMENT
-------------
                                X             Y             Z
Electronic contribution:      1.63737      -0.72443       0.48244
Nuclear contribution   :     -2.22910       0.71208      -0.14805
                        -----------------------------------------
Total Dipole Moment    :     -0.59173      -0.01234       0.33439
                        -----------------------------------------
Magnitude (a.u.)       :      0.67979
Magnitude (Debye)      :      1.72788

Rotational constants in cm-1:     4.260684     0.822736     0.790980
Rotational constants in MHz : 127732.103653 24664.997707 23712.981636

                             ****ORCA TERMINATED NORMALLY****
TOTAL RUN TIME: 0 days 0 hours 0 minutes 59 seconds 346 msec
