                         Program Version 4.1.2  - RELEASE  -
|  1> #Run DFT-D3 single point of the dimer
|  2> ! wB97X-D3 def2-TZVP TIGHTSCF CHELPG PMODEL PAL8
|  3>
|  4> %base "2-36_DFT_AB"
|  5>
|  6> %scf
|  7> MaxIter 1000
|  8> end
|  9>
| 10> * xyz 0 1
| 11>   C                      5.916145             7.599752             -3.115480
| 12>   O                      6.303187             6.405109             -3.797141
| 13>   H                      6.313995             5.742929             -3.113214
| 14>   H                      6.562852             7.866482             -2.246742
| 15>   H                      5.963492             8.428625             -3.817606
| 16>   H                      4.933177             7.588969             -2.693862
| 17>   C                      5.361086             6.333077             -7.453039
| 18>   O                      4.497021             7.422631             -7.915157
| 19>   H                      4.759707             7.698953             -8.815644
| 20>   H                      6.433750             6.664162             -7.257393
| 21>   H                      5.012294             5.942796             -6.488447
| 22>   H                      5.340073             5.442417             -8.096832
| 23> *
| 24>
| 25> #Run DFT-D3 single point of the molecule with dimer basis set
| 26> $new_job
| 27> %base "2-36_DFT_A"
| 28> ! wB97X-D3 def2-TZVP TIGHTSCF CHELPG PMODEL
| 29>
| 30> %scf
| 31> MaxIter 1000
| 32> end
| 33>
| 34> * xyz 0 1
| 35>   C                      5.916145             7.599752             -3.115480
| 36>   O                      6.303187             6.405109             -3.797141
| 37>   H                      6.313995             5.742929             -3.113214
| 38>   H                      6.562852             7.866482             -2.246742
| 39>   H                      5.963492             8.428625             -3.817606
| 40>   H                      4.933177             7.588969             -2.693862
| 41>   C                    : 5.361086             6.333077             -7.453039
| 42>   O                    : 4.497021             7.422631             -7.915157
| 43>   H                    : 4.759707             7.698953             -8.815644
| 44>   H                    : 6.433750             6.664162             -7.257393
| 45>   H                    : 5.012294             5.942796             -6.488447
| 46>   H                    : 5.340073             5.442417             -8.096832
| 47> *
| 48>
| 49> #Run DFT-D3 single point of the particle with dimer basis set
| 50> $new_job
| 51> %base "2-36_DFT_B"
| 52> ! wB97X-D3 def2-TZVP TIGHTSCF CHELPG PMODEL
| 53>
| 54> %scf
| 55> MaxIter 1000
| 56> end
| 57>
| 58> * xyz 0 1
| 59>   C                    : 5.916145             7.599752             -3.115480
| 60>   O                    : 6.303187             6.405109             -3.797141
| 61>   H                    : 6.313995             5.742929             -3.113214
| 62>   H                    : 6.562852             7.866482             -2.246742
| 63>   H                    : 5.963492             8.428625             -3.817606
| 64>   H                    : 4.933177             7.588969             -2.693862
| 65>   C                      5.361086             6.333077             -7.453039
| 66>   O                      4.497021             7.422631             -7.915157
| 67>   H                      4.759707             7.698953             -8.815644
| 68>   H                      6.433750             6.664162             -7.257393
| 69>   H                      5.012294             5.942796             -6.488447
| 70>   H                      5.340073             5.442417             -8.096832
| 71> *
| 72>
| 73>                          ****END OF INPUT****
 Total Charge           Charge          ....    0
 Multiplicity           Mult            ....    1
 Number of Electrons    NEL             ....   36
Dispersion correction           -0.001327371
FINAL SINGLE POINT ENERGY      -231.469057943123
Dispersion correction           -0.000247121
FINAL SINGLE POINT ENERGY      -115.735245783557

CARTESIAN COORDINATES (ANGSTROEM)
---------------------------------
  C      5.916145    7.599752   -3.115480
  O      6.303187    6.405109   -3.797141
  H      6.313995    5.742929   -3.113214
  H      6.562852    7.866482   -2.246742
  H      5.963492    8.428625   -3.817606
  H      4.933177    7.588969   -2.693862
  C      5.361086    6.333077   -7.453039
  O      4.497021    7.422631   -7.915157
  H      4.759707    7.698953   -8.815644
  H      6.433750    6.664162   -7.257393
  H      5.012294    5.942796   -6.488447
  H      5.340073    5.442417   -8.096832

 Multiplicity           Mult            ....    1
 Number of Electrons    NEL             ....   18
 Basis Dimension        Dim             ....  172

ORBITAL ENERGIES
----------------

  NO   OCC          E(Eh)            E(eV)
   0   2.0000     -19.234261      -523.3908
   1   2.0000     -10.324132      -280.9339
   2   2.0000      -1.117580       -30.4109
   3   2.0000      -0.794979       -21.6325
   4   2.0000      -0.598360       -16.2822
   5   2.0000      -0.533776       -14.5248
   6   2.0000      -0.519591       -14.1388
   7   2.0000      -0.430843       -11.7238
   8   2.0000      -0.377614       -10.2754
   9   0.0000       0.084851         2.3089
  10   0.0000       0.116063         3.1582
  11   0.0000       0.143127         3.8947
  12   0.0000       0.168298         4.5796
  13   0.0000       0.189798         5.1647

MULLIKEN ATOMIC CHARGES
-----------------------
   0 C :    0.000019
   1 O :   -0.000286
   2 H :   -0.000099
   3 H :    0.000027
   4 H :    0.000063
   5 H :   -0.000056
   6 C :   -0.169570
   7 O :   -0.485597
   8 H :    0.317907
   9 H :    0.104238
  10 H :    0.121105
  11 H :    0.112249
Sum of atomic charges:   -0.0000000

LOEWDIN ATOMIC CHARGES
----------------------
   0 C :   -0.000428
   1 O :   -0.001158
   2 H :   -0.000118
   3 H :   -0.000004
   4 H :   -0.000059
   5 H :   -0.000019
   6 C :   -0.362217
   7 O :   -0.119754
   8 H :    0.174923
   9 H :    0.104134
  10 H :    0.108299
  11 H :    0.096400

  Mayer bond orders larger than 0.1
B(  6-C ,  7-O ) :   0.9983 B(  6-C ,  9-H ) :   0.9724 B(  6-C , 10-H ) :   0.9736
B(  6-C , 11-H ) :   0.9692 B(  7-O ,  8-H ) :   0.8948

Dispersion correction           -0.000297790
FINAL SINGLE POINT ENERGY      -115.732180806034

DIPOLE MOMENT
-------------
                                X             Y             Z
Electronic contribution:     -1.18691       1.39167      -0.52808
Nuclear contribution   :      1.69584      -1.69252       0.16892
                        -----------------------------------------
Total Dipole Moment    :      0.50893      -0.30085      -0.35915
                        -----------------------------------------
Magnitude (a.u.)       :      0.69175
Magnitude (Debye)      :      1.75828

Rotational constants in cm-1:     4.264319     0.765165     0.747512
Rotational constants in MHz : 127841.080654 22939.069600 22409.856275

                             ****ORCA TERMINATED NORMALLY****
TOTAL RUN TIME: 0 days 0 hours 5 minutes 31 seconds 212 msec
