                         Program Version 4.1.2  - RELEASE  -
|  1> #Run DFT-D3 single point of the dimer
|  2> ! wB97X-D3 def2-TZVP TIGHTSCF CHELPG PMODEL PAL8
|  3>
|  4> %base "14-207_DFT_AB"
|  5>
|  6> %scf
|  7> MaxIter 1000
|  8> end
|  9>
| 10> * xyz 0 1
| 11>   C                      0.024962             3.279338             2.219928
| 12>   O                      0.698008             2.095826             1.788715
| 13>   H                      0.289781             1.322125             2.213121
| 14>   H                      0.363567             4.220912             1.740841
| 15>   H                      -1.016811            3.237245             1.928872
| 16>   H                      0.064650             3.499238             3.329107
| 17>   C                      1.734911             0.716800             4.327203
| 18>   O                      0.791648             -0.304132            4.276472
| 19>   H                      1.048376             -0.965579            3.642560
| 20>   H                      2.449839             0.542115             3.497208
| 21>   H                      1.264994             1.720495             4.343686
| 22>   H                      2.275467             0.636369             5.293535
| 23> *
| 24>
| 25> #Run DFT-D3 single point of the molecule with dimer basis set
| 26> $new_job
| 27> %base "14-207_DFT_A"
| 28> ! wB97X-D3 def2-TZVP TIGHTSCF CHELPG PMODEL
| 29>
| 30> %scf
| 31> MaxIter 1000
| 32> end
| 33>
| 34> * xyz 0 1
| 35>   C                      0.024962             3.279338             2.219928
| 36>   O                      0.698008             2.095826             1.788715
| 37>   H                      0.289781             1.322125             2.213121
| 38>   H                      0.363567             4.220912             1.740841
| 39>   H                      -1.016811            3.237245             1.928872
| 40>   H                      0.064650             3.499238             3.329107
| 41>   C                    : 1.734911             0.716800             4.327203
| 42>   O                    : 0.791648             -0.304132            4.276472
| 43>   H                    : 1.048376             -0.965579            3.642560
| 44>   H                    : 2.449839             0.542115             3.497208
| 45>   H                    : 1.264994             1.720495             4.343686
| 46>   H                    : 2.275467             0.636369             5.293535
| 47> *
| 48>
| 49> #Run DFT-D3 single point of the particle with dimer basis set
| 50> $new_job
| 51> %base "14-207_DFT_B"
| 52> ! wB97X-D3 def2-TZVP TIGHTSCF CHELPG PMODEL
| 53>
| 54> %scf
| 55> MaxIter 1000
| 56> end
| 57>
| 58> * xyz 0 1
| 59>   C                    : 0.024962             3.279338             2.219928
| 60>   O                    : 0.698008             2.095826             1.788715
| 61>   H                    : 0.289781             1.322125             2.213121
| 62>   H                    : 0.363567             4.220912             1.740841
| 63>   H                    : -1.016811            3.237245             1.928872
| 64>   H                    : 0.064650             3.499238             3.329107
| 65>   C                      1.734911             0.716800             4.327203
| 66>   O                      0.791648             -0.304132            4.276472
| 67>   H                      1.048376             -0.965579            3.642560
| 68>   H                      2.449839             0.542115             3.497208
| 69>   H                      1.264994             1.720495             4.343686
| 70>   H                      2.275467             0.636369             5.293535
| 71> *
| 72>
| 73>                          ****END OF INPUT****
 Total Charge           Charge          ....    0
 Multiplicity           Mult            ....    1
 Number of Electrons    NEL             ....   36
Dispersion correction           -0.002137530
FINAL SINGLE POINT ENERGY      -231.468241559381
Dispersion correction           -0.000271957
FINAL SINGLE POINT ENERGY      -115.733094676933

CARTESIAN COORDINATES (ANGSTROEM)
---------------------------------
  C      0.024962    3.279338    2.219928
  O      0.698008    2.095826    1.788715
  H      0.289781    1.322125    2.213121
  H      0.363567    4.220912    1.740841
  H     -1.016811    3.237245    1.928872
  H      0.064650    3.499238    3.329107
  C      1.734911    0.716800    4.327203
  O      0.791648   -0.304132    4.276472
  H      1.048376   -0.965579    3.642560
  H      2.449839    0.542115    3.497208
  H      1.264994    1.720495    4.343686
  H      2.275467    0.636369    5.293535

 Multiplicity           Mult            ....    1
 Number of Electrons    NEL             ....   18
 Basis Dimension        Dim             ....  172

ORBITAL ENERGIES
----------------

  NO   OCC          E(Eh)            E(eV)
   0   2.0000     -19.226278      -523.1736
   1   2.0000     -10.315991      -280.7124
   2   2.0000      -1.143462       -31.1152
   3   2.0000      -0.791753       -21.5447
   4   2.0000      -0.614859       -16.7312
   5   2.0000      -0.540064       -14.6959
   6   2.0000      -0.535638       -14.5755
   7   2.0000      -0.428620       -11.6634
   8   2.0000      -0.367602       -10.0030
   9   0.0000       0.089553         2.4369
  10   0.0000       0.114616         3.1189
  11   0.0000       0.160903         4.3784
  12   0.0000       0.178782         4.8649
  13   0.0000       0.190092         5.1727

MULLIKEN ATOMIC CHARGES
-----------------------
   0 C :   -0.001058
   1 O :    0.000235
   2 H :   -0.004115
   3 H :    0.000183
   4 H :   -0.000230
   5 H :    0.000044
   6 C :   -0.175363
   7 O :   -0.468227
   8 H :    0.317555
   9 H :    0.104717
  10 H :    0.116319
  11 H :    0.109939
Sum of atomic charges:   -0.0000000

LOEWDIN ATOMIC CHARGES
----------------------
   0 C :   -0.006688
   1 O :   -0.005368
   2 H :   -0.010175
   3 H :   -0.000046
   4 H :   -0.000066
   5 H :   -0.003728
   6 C :   -0.396479
   7 O :   -0.056435
   8 H :    0.165221
   9 H :    0.102043
  10 H :    0.111679
  11 H :    0.100045

  Mayer bond orders larger than 0.1
B(  6-C ,  7-O ) :   1.0003 B(  6-C ,  9-H ) :   0.9935 B(  6-C , 10-H ) :   0.9732
B(  6-C , 11-H ) :   0.9748 B(  7-O ,  8-H ) :   0.8996

Dispersion correction           -0.000235125
FINAL SINGLE POINT ENERGY      -115.732755825412

DIPOLE MOMENT
-------------
                                X             Y             Z
Electronic contribution:     -1.30856      -1.19357      -0.05198
Nuclear contribution   :      1.84165       1.14004      -0.34123
                        -----------------------------------------
Total Dipole Moment    :      0.53309      -0.05353      -0.39321
                        -----------------------------------------
Magnitude (a.u.)       :      0.66458
Magnitude (Debye)      :      1.68922

Rotational constants in cm-1:     4.185458     0.859853     0.820505
Rotational constants in MHz : 125476.877153 25777.750773 24598.110191

                             ****ORCA TERMINATED NORMALLY****
TOTAL RUN TIME: 0 days 0 hours 1 minutes 9 seconds 40 msec
