                         Program Version 4.1.2  - RELEASE  -
|  1> #Run DFT-D3 single point of the dimer
|  2> ! wB97X-D3 def2-TZVP TIGHTSCF CHELPG PMODEL PAL8
|  3>
|  4> %base "15-202_DFT_AB"
|  5>
|  6> %scf
|  7> MaxIter 1000
|  8> end
|  9>
| 10> * xyz 0 1
| 11>   C                      0.670655             -3.364613            3.881287
| 12>   O                      1.611052             -4.392072            3.681750
| 13>   H                      1.133974             -5.221009            3.843205
| 14>   H                      1.203016             -2.432358            4.074149
| 15>   H                      -0.108688            -3.330389            3.112099
| 16>   H                      0.043285             -3.570151            4.731426
| 17>   C                      -1.709434            -6.314648            3.430841
| 18>   O                      -0.431729            -6.440922            3.934288
| 19>   H                      -0.546436            -6.993990            4.737379
| 20>   H                      -1.782671            -5.475495            2.724999
| 21>   H                      -2.027611            -7.272603            2.944701
| 22>   H                      -2.403258            -6.157242            4.311352
| 23> *
| 24>
| 25> #Run DFT-D3 single point of the molecule with dimer basis set
| 26> $new_job
| 27> %base "15-202_DFT_A"
| 28> ! wB97X-D3 def2-TZVP TIGHTSCF CHELPG PMODEL
| 29>
| 30> %scf
| 31> MaxIter 1000
| 32> end
| 33>
| 34> * xyz 0 1
| 35>   C                      0.670655             -3.364613            3.881287
| 36>   O                      1.611052             -4.392072            3.681750
| 37>   H                      1.133974             -5.221009            3.843205
| 38>   H                      1.203016             -2.432358            4.074149
| 39>   H                      -0.108688            -3.330389            3.112099
| 40>   H                      0.043285             -3.570151            4.731426
| 41>   C                    : -1.709434            -6.314648            3.430841
| 42>   O                    : -0.431729            -6.440922            3.934288
| 43>   H                    : -0.546436            -6.993990            4.737379
| 44>   H                    : -1.782671            -5.475495            2.724999
| 45>   H                    : -2.027611            -7.272603            2.944701
| 46>   H                    : -2.403258            -6.157242            4.311352
| 47> *
| 48>
| 49> #Run DFT-D3 single point of the particle with dimer basis set
| 50> $new_job
| 51> %base "15-202_DFT_B"
| 52> ! wB97X-D3 def2-TZVP TIGHTSCF CHELPG PMODEL
| 53>
| 54> %scf
| 55> MaxIter 1000
| 56> end
| 57>
| 58> * xyz 0 1
| 59>   C                    : 0.670655             -3.364613            3.881287
| 60>   O                    : 1.611052             -4.392072            3.681750
| 61>   H                    : 1.133974             -5.221009            3.843205
| 62>   H                    : 1.203016             -2.432358            4.074149
| 63>   H                    : -0.108688            -3.330389            3.112099
| 64>   H                    : 0.043285             -3.570151            4.731426
| 65>   C                      -1.709434            -6.314648            3.430841
| 66>   O                      -0.431729            -6.440922            3.934288
| 67>   H                      -0.546436            -6.993990            4.737379
| 68>   H                      -1.782671            -5.475495            2.724999
| 69>   H                      -2.027611            -7.272603            2.944701
| 70>   H                      -2.403258            -6.157242            4.311352
| 71> *
| 72>
| 73>                          ****END OF INPUT****
 Total Charge           Charge          ....    0
 Multiplicity           Mult            ....    1
 Number of Electrons    NEL             ....   36
Dispersion correction           -0.002141254
FINAL SINGLE POINT ENERGY      -231.473758409415
Dispersion correction           -0.000225718
FINAL SINGLE POINT ENERGY      -115.732906108269

CARTESIAN COORDINATES (ANGSTROEM)
---------------------------------
  C      0.670655   -3.364613    3.881287
  O      1.611052   -4.392072    3.681750
  H      1.133974   -5.221009    3.843205
  H      1.203016   -2.432358    4.074149
  H     -0.108688   -3.330389    3.112099
  H      0.043285   -3.570151    4.731426
  C     -1.709434   -6.314648    3.430841
  O     -0.431729   -6.440922    3.934288
  H     -0.546436   -6.993990    4.737379
  H     -1.782671   -5.475495    2.724999
  H     -2.027611   -7.272603    2.944701
  H     -2.403258   -6.157242    4.311352

 Multiplicity           Mult            ....    1
 Number of Electrons    NEL             ....   18
 Basis Dimension        Dim             ....  172

ORBITAL ENERGIES
----------------

  NO   OCC          E(Eh)            E(eV)
   0   2.0000     -19.232977      -523.3559
   1   2.0000     -10.318495      -280.7805
   2   2.0000      -1.147840       -31.2343
   3   2.0000      -0.783959       -21.3326
   4   2.0000      -0.614108       -16.7107
   5   2.0000      -0.542424       -14.7601
   6   2.0000      -0.534418       -14.5423
   7   2.0000      -0.434229       -11.8160
   8   2.0000      -0.368219       -10.0197
   9   0.0000       0.094291         2.5658
  10   0.0000       0.123867         3.3706
  11   0.0000       0.154265         4.1978
  12   0.0000       0.187151         5.0926
  13   0.0000       0.198173         5.3926

MULLIKEN ATOMIC CHARGES
-----------------------
   0 C :    0.012491
   1 O :   -0.001585
   2 H :   -0.009712
   3 H :   -0.000190
   4 H :   -0.002414
   5 H :   -0.008141
   6 C :   -0.164792
   7 O :   -0.456197
   8 H :    0.318170
   9 H :    0.120302
  10 H :    0.097363
  11 H :    0.094706
Sum of atomic charges:   -0.0000000

LOEWDIN ATOMIC CHARGES
----------------------
   0 C :   -0.007504
   1 O :   -0.004545
   2 H :   -0.037610
   3 H :   -0.000077
   4 H :   -0.001203
   5 H :   -0.002880
   6 C :   -0.417985
   7 O :   -0.021571
   8 H :    0.188742
   9 H :    0.107751
  10 H :    0.097039
  11 H :    0.099843

  Mayer bond orders larger than 0.1
B(  6-C ,  7-O ) :   0.9881 B(  6-C ,  9-H ) :   0.9744 B(  6-C , 10-H ) :   0.9694
B(  6-C , 11-H ) :   0.9864 B(  7-O ,  8-H ) :   0.8930

Dispersion correction           -0.000212630
FINAL SINGLE POINT ENERGY      -115.732568106840

DIPOLE MOMENT
-------------
                                X             Y             Z
Electronic contribution:      1.79090       0.00044       0.43730
Nuclear contribution   :     -2.32094      -0.28951      -0.12401
                        -----------------------------------------
Total Dipole Moment    :     -0.53004      -0.28907       0.31329
                        -----------------------------------------
Magnitude (a.u.)       :      0.68019
Magnitude (Debye)      :      1.72890

Rotational constants in cm-1:     4.028709     0.874167     0.834995
Rotational constants in MHz : 120777.652400 26206.856134 25032.506037

                             ****ORCA TERMINATED NORMALLY****
TOTAL RUN TIME: 0 days 0 hours 1 minutes 6 seconds 699 msec
