                         Program Version 4.1.2  - RELEASE  -
|  1> #Run DFT-D3 single point of the dimer
|  2> ! wB97X-D3 def2-TZVP TIGHTSCF CHELPG PMODEL PAL8
|  3>
|  4> %base "18-86_DFT_AB"
|  5>
|  6> %scf
|  7> MaxIter 1000
|  8> end
|  9>
| 10> * xyz 0 1
| 11>   C                      1.101496             -2.053978            7.307832
| 12>   O                      1.384987             -2.297058            5.969188
| 13>   H                      1.151471             -3.185395            5.702275
| 14>   H                      1.317104             -1.048099            7.698919
| 15>   H                      0.046442             -2.231063            7.406682
| 16>   H                      1.610017             -2.809292            7.907819
| 17>   C                      1.842494             -5.490414            4.222264
| 18>   O                      0.779058             -4.891262            4.888618
| 19>   H                      0.293986             -5.565972            5.331256
| 20>   H                      2.573357             -4.701865            3.988026
| 21>   H                      2.324572             -6.211238            4.978611
| 22>   H                      1.640042             -6.048494            3.297003
| 23> *
| 24>
| 25> #Run DFT-D3 single point of the molecule with dimer basis set
| 26> $new_job
| 27> %base "18-86_DFT_A"
| 28> ! wB97X-D3 def2-TZVP TIGHTSCF CHELPG PMODEL
| 29>
| 30> %scf
| 31> MaxIter 1000
| 32> end
| 33>
| 34> * xyz 0 1
| 35>   C                      1.101496             -2.053978            7.307832
| 36>   O                      1.384987             -2.297058            5.969188
| 37>   H                      1.151471             -3.185395            5.702275
| 38>   H                      1.317104             -1.048099            7.698919
| 39>   H                      0.046442             -2.231063            7.406682
| 40>   H                      1.610017             -2.809292            7.907819
| 41>   C                    : 1.842494             -5.490414            4.222264
| 42>   O                    : 0.779058             -4.891262            4.888618
| 43>   H                    : 0.293986             -5.565972            5.331256
| 44>   H                    : 2.573357             -4.701865            3.988026
| 45>   H                    : 2.324572             -6.211238            4.978611
| 46>   H                    : 1.640042             -6.048494            3.297003
| 47> *
| 48>
| 49> #Run DFT-D3 single point of the particle with dimer basis set
| 50> $new_job
| 51> %base "18-86_DFT_B"
| 52> ! wB97X-D3 def2-TZVP TIGHTSCF CHELPG PMODEL
| 53>
| 54> %scf
| 55> MaxIter 1000
| 56> end
| 57>
| 58> * xyz 0 1
| 59>   C                    : 1.101496             -2.053978            7.307832
| 60>   O                    : 1.384987             -2.297058            5.969188
| 61>   H                    : 1.151471             -3.185395            5.702275
| 62>   H                    : 1.317104             -1.048099            7.698919
| 63>   H                    : 0.046442             -2.231063            7.406682
| 64>   H                    : 1.610017             -2.809292            7.907819
| 65>   C                      1.842494             -5.490414            4.222264
| 66>   O                      0.779058             -4.891262            4.888618
| 67>   H                      0.293986             -5.565972            5.331256
| 68>   H                      2.573357             -4.701865            3.988026
| 69>   H                      2.324572             -6.211238            4.978611
| 70>   H                      1.640042             -6.048494            3.297003
| 71> *
| 72>
| 73>                          ****END OF INPUT****
 Total Charge           Charge          ....    0
 Multiplicity           Mult            ....    1
 Number of Electrons    NEL             ....   36
Dispersion correction           -0.001624336
FINAL SINGLE POINT ENERGY      -231.472285283935
Dispersion correction           -0.000215820
FINAL SINGLE POINT ENERGY      -115.730878010227

CARTESIAN COORDINATES (ANGSTROEM)
---------------------------------
  C      1.101496   -2.053978    7.307832
  O      1.384987   -2.297058    5.969188
  H      1.151471   -3.185395    5.702275
  H      1.317104   -1.048099    7.698919
  H      0.046442   -2.231063    7.406682
  H      1.610017   -2.809292    7.907819
  C      1.842494   -5.490414    4.222264
  O      0.779058   -4.891262    4.888618
  H      0.293986   -5.565972    5.331256
  H      2.573357   -4.701865    3.988026
  H      2.324572   -6.211238    4.978611
  H      1.640042   -6.048494    3.297003

 Multiplicity           Mult            ....    1
 Number of Electrons    NEL             ....   18
 Basis Dimension        Dim             ....  172

ORBITAL ENERGIES
----------------

  NO   OCC          E(Eh)            E(eV)
   0   2.0000     -19.230898      -523.2993
   1   2.0000     -10.319079      -280.7964
   2   2.0000      -1.149310       -31.2743
   3   2.0000      -0.792244       -21.5581
   4   2.0000      -0.617191       -16.7946
   5   2.0000      -0.542499       -14.7622
   6   2.0000      -0.530680       -14.4405
   7   2.0000      -0.430790       -11.7224
   8   2.0000      -0.373393       -10.1606
   9   0.0000       0.096825         2.6348
  10   0.0000       0.122975         3.3463
  11   0.0000       0.154376         4.2008
  12   0.0000       0.182930         4.9778
  13   0.0000       0.201121         5.4728

MULLIKEN ATOMIC CHARGES
-----------------------
   0 C :   -0.001628
   1 O :   -0.000887
   2 H :   -0.003649
   3 H :   -0.000211
   4 H :   -0.000286
   5 H :   -0.000617
   6 C :   -0.165151
   7 O :   -0.458746
   8 H :    0.312914
   9 H :    0.122588
  10 H :    0.092770
  11 H :    0.102905
Sum of atomic charges:    0.0000000

LOEWDIN ATOMIC CHARGES
----------------------
   0 C :   -0.002132
   1 O :   -0.004923
   2 H :   -0.042587
   3 H :   -0.000048
   4 H :   -0.000171
   5 H :   -0.000317
   6 C :   -0.405802
   7 O :   -0.010195
   8 H :    0.159266
   9 H :    0.110282
  10 H :    0.103220
  11 H :    0.093407

  Mayer bond orders larger than 0.1
B(  6-C ,  7-O ) :   0.9923 B(  6-C ,  9-H ) :   0.9784 B(  6-C , 10-H ) :   0.9876
B(  6-C , 11-H ) :   0.9574 B(  7-O ,  8-H ) :   0.8999

Dispersion correction           -0.000239286
FINAL SINGLE POINT ENERGY      -115.733154205534

DIPOLE MOMENT
-------------
                                X             Y             Z
Electronic contribution:     -1.45685       0.93886       0.69061
Nuclear contribution   :      1.54378      -1.58209      -0.66512
                        -----------------------------------------
Total Dipole Moment    :      0.08693      -0.64324       0.02549
                        -----------------------------------------
Magnitude (a.u.)       :      0.64958
Magnitude (Debye)      :      1.65111

Rotational constants in cm-1:     4.197801     0.851576     0.820052
Rotational constants in MHz : 125846.906076 25529.598222 24584.550561

                             ****ORCA TERMINATED NORMALLY****
TOTAL RUN TIME: 0 days 0 hours 1 minutes 5 seconds 605 msec
