                         Program Version 4.1.2  - RELEASE  -
|  1> #Run DFT-D3 single point of the dimer
|  2> ! wB97X-D3 def2-TZVP TIGHTSCF CHELPG PMODEL PAL8
|  3>
|  4> %base "4-73_DFT_AB"
|  5>
|  6> %scf
|  7> MaxIter 1000
|  8> end
|  9>
| 10> * xyz 0 1
| 11>   C                      4.024355             -6.801977            -8.916837
| 12>   O                      2.663368             -6.801153            -9.057764
| 13>   H                      2.302271             -5.971964            -8.723730
| 14>   H                      4.469199             -5.890253            -9.387422
| 15>   H                      4.195968             -6.701892            -7.838637
| 16>   H                      4.536072             -7.759296            -9.102608
| 17>   C                      5.326982             -3.493005            -9.906447
| 18>   O                      5.426055             -2.243732            -9.319270
| 19>   H                      5.245611             -1.623291            -10.030802
| 20>   H                      4.384417             -3.795366            -9.951787
| 21>   H                      5.735980             -3.562127            -10.935980
| 22>   H                      5.934296             -4.319825            -9.419366
| 23> *
| 24>
| 25> #Run DFT-D3 single point of the molecule with dimer basis set
| 26> $new_job
| 27> %base "4-73_DFT_A"
| 28> ! wB97X-D3 def2-TZVP TIGHTSCF CHELPG PMODEL
| 29>
| 30> %scf
| 31> MaxIter 1000
| 32> end
| 33>
| 34> * xyz 0 1
| 35>   C                      4.024355             -6.801977            -8.916837
| 36>   O                      2.663368             -6.801153            -9.057764
| 37>   H                      2.302271             -5.971964            -8.723730
| 38>   H                      4.469199             -5.890253            -9.387422
| 39>   H                      4.195968             -6.701892            -7.838637
| 40>   H                      4.536072             -7.759296            -9.102608
| 41>   C                    : 5.326982             -3.493005            -9.906447
| 42>   O                    : 5.426055             -2.243732            -9.319270
| 43>   H                    : 5.245611             -1.623291            -10.030802
| 44>   H                    : 4.384417             -3.795366            -9.951787
| 45>   H                    : 5.735980             -3.562127            -10.935980
| 46>   H                    : 5.934296             -4.319825            -9.419366
| 47> *
| 48>
| 49> #Run DFT-D3 single point of the particle with dimer basis set
| 50> $new_job
| 51> %base "4-73_DFT_B"
| 52> ! wB97X-D3 def2-TZVP TIGHTSCF CHELPG PMODEL
| 53>
| 54> %scf
| 55> MaxIter 1000
| 56> end
| 57>
| 58> * xyz 0 1
| 59>   C                    : 4.024355             -6.801977            -8.916837
| 60>   O                    : 2.663368             -6.801153            -9.057764
| 61>   H                    : 2.302271             -5.971964            -8.723730
| 62>   H                    : 4.469199             -5.890253            -9.387422
| 63>   H                    : 4.195968             -6.701892            -7.838637
| 64>   H                    : 4.536072             -7.759296            -9.102608
| 65>   C                      5.326982             -3.493005            -9.906447
| 66>   O                      5.426055             -2.243732            -9.319270
| 67>   H                      5.245611             -1.623291            -10.030802
| 68>   H                      4.384417             -3.795366            -9.951787
| 69>   H                      5.735980             -3.562127            -10.935980
| 70>   H                      5.934296             -4.319825            -9.419366
| 71> *
| 72>
| 73>                          ****END OF INPUT****
 Total Charge           Charge          ....    0
 Multiplicity           Mult            ....    1
 Number of Electrons    NEL             ....   36
Dispersion correction           -0.001513581
FINAL SINGLE POINT ENERGY      -231.450892393738
Dispersion correction           -0.000212364
FINAL SINGLE POINT ENERGY      -115.727565795899

CARTESIAN COORDINATES (ANGSTROEM)
---------------------------------
  C      4.024355   -6.801977   -8.916837
  O      2.663368   -6.801153   -9.057764
  H      2.302271   -5.971964   -8.723730
  H      4.469199   -5.890253   -9.387422
  H      4.195968   -6.701892   -7.838637
  H      4.536072   -7.759296   -9.102608
  C      5.326982   -3.493005   -9.906447
  O      5.426055   -2.243732   -9.319270
  H      5.245611   -1.623291  -10.030802
  H      4.384417   -3.795366   -9.951787
  H      5.735980   -3.562127  -10.935980
  H      5.934296   -4.319825   -9.419366

 Multiplicity           Mult            ....    1
 Number of Electrons    NEL             ....   18
 Basis Dimension        Dim             ....  172

ORBITAL ENERGIES
----------------

  NO   OCC          E(Eh)            E(eV)
   0   2.0000     -19.233175      -523.3613
   1   2.0000     -10.304334      -280.3952
   2   2.0000      -1.148812       -31.2608
   3   2.0000      -0.799494       -21.7553
   4   2.0000      -0.618761       -16.8373
   5   2.0000      -0.557488       -15.1700
   6   2.0000      -0.526738       -14.3333
   7   2.0000      -0.426520       -11.6062
   8   2.0000      -0.377555       -10.2738
   9   0.0000       0.087298         2.3755
  10   0.0000       0.117410         3.1949
  11   0.0000       0.154952         4.2165
  12   0.0000       0.164406         4.4737
  13   0.0000       0.187738         5.1086

MULLIKEN ATOMIC CHARGES
-----------------------
   0 C :    0.000191
   1 O :   -0.000064
   2 H :   -0.000082
   3 H :   -0.000208
   4 H :    0.000081
   5 H :   -0.000044
   6 C :   -0.174760
   7 O :   -0.459939
   8 H :    0.318657
   9 H :    0.112731
  10 H :    0.096548
  11 H :    0.106889
Sum of atomic charges:   -0.0000000

LOEWDIN ATOMIC CHARGES
----------------------
   0 C :   -0.005198
   1 O :   -0.000077
   2 H :   -0.000284
   3 H :   -0.012091
   4 H :   -0.000165
   5 H :   -0.000030
   6 C :   -0.400979
   7 O :   -0.049308
   8 H :    0.177237
   9 H :    0.071793
  10 H :    0.099105
  11 H :    0.119997

  Mayer bond orders larger than 0.1
B(  6-C ,  7-O ) :   1.0043 B(  6-C ,  9-H ) :   0.9770 B(  6-C , 10-H ) :   0.9810
B(  6-C , 11-H ) :   0.9720 B(  7-O ,  8-H ) :   0.8980

Dispersion correction           -0.000225261
FINAL SINGLE POINT ENERGY      -115.723709185067

DIPOLE MOMENT
-------------
                                X             Y             Z
Electronic contribution:      0.02608       1.70261       0.99489
Nuclear contribution   :     -0.19116      -1.78128      -1.67961
                        -----------------------------------------
Total Dipole Moment    :     -0.16508      -0.07867      -0.68472
                        -----------------------------------------
Magnitude (a.u.)       :      0.70872
Magnitude (Debye)      :      1.80142

Rotational constants in cm-1:     4.538890     0.855643     0.821597
Rotational constants in MHz : 136072.498677 25651.526013 24630.851106

                             ****ORCA TERMINATED NORMALLY****
TOTAL RUN TIME: 0 days 0 hours 1 minutes 32 seconds 869 msec
