                         Program Version 4.1.2  - RELEASE  -
|  1> #Run DFT-D3 single point of the dimer
|  2> ! wB97X-D3 def2-TZVP TIGHTSCF CHELPG PMODEL PAL8
|  3>
|  4> %base "4-139_DFT_AB"
|  5>
|  6> %scf
|  7> MaxIter 1000
|  8> end
|  9>
| 10> * xyz 0 1
| 11>   C                      1.273106             -1.090796            4.502360
| 12>   O                      2.124407             -0.962128            3.463124
| 13>   H                      1.972989             -1.685681            2.887685
| 14>   H                      0.415376             -1.764596            4.340729
| 15>   H                      1.825352             -1.582029            5.301088
| 16>   H                      0.854606             -0.187528            4.906061
| 17>   C                      0.148608             -2.975875            0.511320
| 18>   O                      1.349163             -3.767416            0.571930
| 19>   H                      1.112875             -4.649868            0.413991
| 20>   H                      -0.385343            -3.291769            -0.401293
| 21>   H                      -0.589846            -3.041273            1.287453
| 22>   H                      0.368273             -1.892748            0.294982
| 23> *
| 24>
| 25> #Run DFT-D3 single point of the molecule with dimer basis set
| 26> $new_job
| 27> %base "4-139_DFT_A"
| 28> ! wB97X-D3 def2-TZVP TIGHTSCF CHELPG PMODEL
| 29>
| 30> %scf
| 31> MaxIter 1000
| 32> end
| 33>
| 34> * xyz 0 1
| 35>   C                      1.273106             -1.090796            4.502360
| 36>   O                      2.124407             -0.962128            3.463124
| 37>   H                      1.972989             -1.685681            2.887685
| 38>   H                      0.415376             -1.764596            4.340729
| 39>   H                      1.825352             -1.582029            5.301088
| 40>   H                      0.854606             -0.187528            4.906061
| 41>   C                    : 0.148608             -2.975875            0.511320
| 42>   O                    : 1.349163             -3.767416            0.571930
| 43>   H                    : 1.112875             -4.649868            0.413991
| 44>   H                    : -0.385343            -3.291769            -0.401293
| 45>   H                    : -0.589846            -3.041273            1.287453
| 46>   H                    : 0.368273             -1.892748            0.294982
| 47> *
| 48>
| 49> #Run DFT-D3 single point of the particle with dimer basis set
| 50> $new_job
| 51> %base "4-139_DFT_B"
| 52> ! wB97X-D3 def2-TZVP TIGHTSCF CHELPG PMODEL
| 53>
| 54> %scf
| 55> MaxIter 1000
| 56> end
| 57>
| 58> * xyz 0 1
| 59>   C                    : 1.273106             -1.090796            4.502360
| 60>   O                    : 2.124407             -0.962128            3.463124
| 61>   H                    : 1.972989             -1.685681            2.887685
| 62>   H                    : 0.415376             -1.764596            4.340729
| 63>   H                    : 1.825352             -1.582029            5.301088
| 64>   H                    : 0.854606             -0.187528            4.906061
| 65>   C                      0.148608             -2.975875            0.511320
| 66>   O                      1.349163             -3.767416            0.571930
| 67>   H                      1.112875             -4.649868            0.413991
| 68>   H                      -0.385343            -3.291769            -0.401293
| 69>   H                      -0.589846            -3.041273            1.287453
| 70>   H                      0.368273             -1.892748            0.294982
| 71> *
| 72>
| 73>                          ****END OF INPUT****
 Total Charge           Charge          ....    0
 Multiplicity           Mult            ....    1
 Number of Electrons    NEL             ....   36
Dispersion correction           -0.001394408
FINAL SINGLE POINT ENERGY      -231.461762704664
Dispersion correction           -0.000216490
FINAL SINGLE POINT ENERGY      -115.729376194501

CARTESIAN COORDINATES (ANGSTROEM)
---------------------------------
  C      1.273106   -1.090796    4.502360
  O      2.124407   -0.962128    3.463124
  H      1.972989   -1.685681    2.887685
  H      0.415376   -1.764596    4.340729
  H      1.825352   -1.582029    5.301088
  H      0.854606   -0.187528    4.906061
  C      0.148608   -2.975875    0.511320
  O      1.349163   -3.767416    0.571930
  H      1.112875   -4.649868    0.413991
  H     -0.385343   -3.291769   -0.401293
  H     -0.589846   -3.041273    1.287453
  H      0.368273   -1.892748    0.294982

 Multiplicity           Mult            ....    1
 Number of Electrons    NEL             ....   18
 Basis Dimension        Dim             ....  172

ORBITAL ENERGIES
----------------

  NO   OCC          E(Eh)            E(eV)
   0   2.0000     -19.230344      -523.2843
   1   2.0000     -10.318736      -280.7871
   2   2.0000      -1.137455       -30.9517
   3   2.0000      -0.799668       -21.7601
   4   2.0000      -0.614255       -16.7147
   5   2.0000      -0.538286       -14.6475
   6   2.0000      -0.523662       -14.2496
   7   2.0000      -0.433751       -11.8030
   8   2.0000      -0.377631       -10.2759
   9   0.0000       0.090603         2.4654
  10   0.0000       0.120716         3.2848
  11   0.0000       0.148756         4.0479
  12   0.0000       0.176129         4.7927
  13   0.0000       0.191596         5.2136

MULLIKEN ATOMIC CHARGES
-----------------------
   0 C :   -0.000634
   1 O :    0.000070
   2 H :   -0.000340
   3 H :    0.000252
   4 H :    0.000027
   5 H :    0.000010
   6 C :   -0.185114
   7 O :   -0.468645
   8 H :    0.309314
   9 H :    0.109606
  10 H :    0.111925
  11 H :    0.123529
Sum of atomic charges:    0.0000000

LOEWDIN ATOMIC CHARGES
----------------------
   0 C :   -0.000237
   1 O :   -0.000093
   2 H :   -0.001974
   3 H :   -0.000162
   4 H :   -0.000002
   5 H :   -0.000003
   6 C :   -0.374167
   7 O :   -0.074973
   8 H :    0.145874
   9 H :    0.099900
  10 H :    0.089479
  11 H :    0.116359

  Mayer bond orders larger than 0.1
B(  6-C ,  7-O ) :   0.9882 B(  6-C ,  9-H ) :   0.9876 B(  6-C , 10-H ) :   0.9614
B(  6-C , 11-H ) :   0.9751 B(  7-O ,  8-H ) :   0.9068

Dispersion correction           -0.000260487
FINAL SINGLE POINT ENERGY      -115.729571723083

DIPOLE MOMENT
-------------
                                X             Y             Z
Electronic contribution:      1.65893      -0.93314       0.32190
Nuclear contribution   :     -2.31320       0.68047      -0.48209
                        -----------------------------------------
Total Dipole Moment    :     -0.65427      -0.25267      -0.16019
                        -----------------------------------------
Magnitude (a.u.)       :      0.71942
Magnitude (Debye)      :      1.82863

Rotational constants in cm-1:     4.435559     0.799932     0.771975
Rotational constants in MHz : 132974.698737 23981.354993 23143.219869

                             ****ORCA TERMINATED NORMALLY****
TOTAL RUN TIME: 0 days 0 hours 1 minutes 31 seconds 533 msec
