                         Program Version 4.1.2  - RELEASE  -
|  1> #Run DFT geometry optimization
|  2> ! wB97X-D3 def2-TZVP TIGHTSCF Grid5 FinalGrid6 Opt CHELPG PAL4
|  3>
|  4> %base "4_geo_opt"
|  5> %geom MaxIter 500
|  6> end
|  7>
|  8> %geom
|  9>   Constraints
| 10>     { B 0 1 C }
| 11>   end
| 12> end
| 13>
| 14>
| 15> * xyz 0 1
| 16>   C                    3.011210             -1.180901            0.598472
| 17>   O                    4.394771             -1.128046            0.874327
| 18>   H                    4.772294             -0.379018            0.412513
| 19>   H                    2.806336             -1.318969            -0.469369
| 20>   H                    2.611534             -2.040269            1.135879
| 21>   H                    2.484659             -0.284495            0.945639
| 22> *
| 23>
| 24>                          ****END OF INPUT****
 Total Charge           Charge          ....    0
 Multiplicity           Mult            ....    1
 Number of Electrons    NEL             ....   18
Dispersion correction           -0.000239365
FINAL SINGLE POINT ENERGY      -115.738051320527
Dispersion correction            ... done
                    ***********************HURRAY********************

CARTESIAN COORDINATES (ANGSTROEM)
---------------------------------
  C      3.011237   -1.180934    0.598499
  O      4.394805   -1.128033    0.874311
  H      4.772256   -0.378982    0.412497
  H      2.806363   -1.318974   -0.469340
  H      2.611439   -2.040260    1.135857
  H      2.484703   -0.284514    0.945638

 Multiplicity           Mult            ....    1
 Number of Electrons    NEL             ....   18
 Basis Dimension        Dim             ....   86

ORBITAL ENERGIES
----------------

  NO   OCC          E(Eh)            E(eV)
   0   2.0000     -19.228091      -523.2229
   1   2.0000     -10.315130      -280.6890
   2   2.0000      -1.136741       -30.9323
   3   2.0000      -0.795356       -21.6427
   4   2.0000      -0.611555       -16.6413
   5   2.0000      -0.541750       -14.7418
   6   2.0000      -0.526307       -14.3216
   7   2.0000      -0.433815       -11.8047
   8   2.0000      -0.373618       -10.1667
   9   0.0000       0.116644         3.1740
  10   0.0000       0.156660         4.2629
  11   0.0000       0.202572         5.5123
  12   0.0000       0.205109         5.5813
  13   0.0000       0.226347         6.1592

MULLIKEN ATOMIC CHARGES
-----------------------
   0 C :   -0.150907
   1 O :   -0.477672
   2 H :    0.313003
   3 H :    0.098661
   4 H :    0.118252
   5 H :    0.098664
Sum of atomic charges:    0.0000000

LOEWDIN ATOMIC CHARGES
----------------------
   0 C :   -0.385011
   1 O :   -0.076243
   2 H :    0.165759
   3 H :    0.093405
   4 H :    0.108686
   5 H :    0.093403

  Mayer bond orders larger than 0.1
B(  0-C ,  1-O ) :   0.9986 B(  0-C ,  3-H ) :   0.9755 B(  0-C ,  4-H ) :   0.9749
B(  0-C ,  5-H ) :   0.9755 B(  1-O ,  2-H ) :   0.9002

Dispersion correction           -0.000239355
FINAL SINGLE POINT ENERGY      -115.738051329585

DIPOLE MOMENT
-------------
                                X             Y             Z
Electronic contribution:      1.75591      -0.02828       0.41981
Nuclear contribution   :     -2.06602       0.47585      -0.81750
                        -----------------------------------------
Total Dipole Moment    :     -0.31011       0.44757      -0.39769
                        -----------------------------------------
Magnitude (a.u.)       :      0.67427
Magnitude (Debye)      :      1.71387

Rotational constants in cm-1:     4.292952     0.833597     0.804720
Rotational constants in MHz : 128699.474296 24990.602310 24124.898152

                             ****ORCA TERMINATED NORMALLY****
TOTAL RUN TIME: 0 days 0 hours 0 minutes 37 seconds 318 msec
