                         Program Version 4.1.2  - RELEASE  -
|  1> #Run DFT-D3 single point of the dimer
|  2> ! wB97X-D3 def2-TZVP TIGHTSCF CHELPG PMODEL PAL8
|  3>
|  4> %base "20-156_DFT_AB"
|  5>
|  6> %scf
|  7> MaxIter 1000
|  8> end
|  9>
| 10> * xyz 0 1
| 11>   C                      8.943236             -1.585982            9.052341
| 12>   O                      9.317679             -1.496538            10.405811
| 13>   H                      9.518352             -2.346955            10.770967
| 14>   H                      9.718151             -1.971585            8.443758
| 15>   H                      8.064628             -2.168746            8.922126
| 16>   H                      8.809738             -0.610024            8.567718
| 17>   C                      8.634688             -5.268934            11.587748
| 18>   O                      9.217806             -4.402397            10.598828
| 19>   H                      9.336167             -5.022159            9.761521
| 20>   H                      8.340984             -4.738358            12.480780
| 21>   H                      7.631109             -5.722182            11.245005
| 22>   H                      9.297304             -6.075081            11.703729
| 23> *
| 24>
| 25> #Run DFT-D3 single point of the molecule with dimer basis set
| 26> $new_job
| 27> %base "20-156_DFT_A"
| 28> ! wB97X-D3 def2-TZVP TIGHTSCF CHELPG PMODEL
| 29>
| 30> %scf
| 31> MaxIter 1000
| 32> end
| 33>
| 34> * xyz 0 1
| 35>   C                      8.943236             -1.585982            9.052341
| 36>   O                      9.317679             -1.496538            10.405811
| 37>   H                      9.518352             -2.346955            10.770967
| 38>   H                      9.718151             -1.971585            8.443758
| 39>   H                      8.064628             -2.168746            8.922126
| 40>   H                      8.809738             -0.610024            8.567718
| 41>   C                    : 8.634688             -5.268934            11.587748
| 42>   O                    : 9.217806             -4.402397            10.598828
| 43>   H                    : 9.336167             -5.022159            9.761521
| 44>   H                    : 8.340984             -4.738358            12.480780
| 45>   H                    : 7.631109             -5.722182            11.245005
| 46>   H                    : 9.297304             -6.075081            11.703729
| 47> *
| 48>
| 49> #Run DFT-D3 single point of the particle with dimer basis set
| 50> $new_job
| 51> %base "20-156_DFT_B"
| 52> ! wB97X-D3 def2-TZVP TIGHTSCF CHELPG PMODEL
| 53>
| 54> %scf
| 55> MaxIter 1000
| 56> end
| 57>
| 58> * xyz 0 1
| 59>   C                    : 8.943236             -1.585982            9.052341
| 60>   O                    : 9.317679             -1.496538            10.405811
| 61>   H                    : 9.518352             -2.346955            10.770967
| 62>   H                    : 9.718151             -1.971585            8.443758
| 63>   H                    : 8.064628             -2.168746            8.922126
| 64>   H                    : 8.809738             -0.610024            8.567718
| 65>   C                      8.634688             -5.268934            11.587748
| 66>   O                      9.217806             -4.402397            10.598828
| 67>   H                      9.336167             -5.022159            9.761521
| 68>   H                      8.340984             -4.738358            12.480780
| 69>   H                      7.631109             -5.722182            11.245005
| 70>   H                      9.297304             -6.075081            11.703729
| 71> *
| 72>
| 73>                          ****END OF INPUT****
 Total Charge           Charge          ....    0
 Multiplicity           Mult            ....    1
 Number of Electrons    NEL             ....   36
Dispersion correction           -0.001835937
FINAL SINGLE POINT ENERGY      -231.463596259145
Dispersion correction           -0.000240164
FINAL SINGLE POINT ENERGY      -115.732905881823

CARTESIAN COORDINATES (ANGSTROEM)
---------------------------------
  C      8.943236   -1.585982    9.052341
  O      9.317679   -1.496538   10.405811
  H      9.518352   -2.346955   10.770967
  H      9.718151   -1.971585    8.443758
  H      8.064628   -2.168746    8.922126
  H      8.809738   -0.610024    8.567718
  C      8.634688   -5.268934   11.587748
  O      9.217806   -4.402397   10.598828
  H      9.336167   -5.022159    9.761521
  H      8.340984   -4.738358   12.480780
  H      7.631109   -5.722182   11.245005
  H      9.297304   -6.075081   11.703729

 Multiplicity           Mult            ....    1
 Number of Electrons    NEL             ....   18
 Basis Dimension        Dim             ....  172

ORBITAL ENERGIES
----------------

  NO   OCC          E(Eh)            E(eV)
   0   2.0000     -19.239116      -523.5229
   1   2.0000     -10.315389      -280.6960
   2   2.0000      -1.117255       -30.4021
   3   2.0000      -0.789153       -21.4739
   4   2.0000      -0.597391       -16.2558
   5   2.0000      -0.548042       -14.9130
   6   2.0000      -0.515806       -14.0358
   7   2.0000      -0.437303       -11.8996
   8   2.0000      -0.370226       -10.0744
   9   0.0000       0.090540         2.4637
  10   0.0000       0.123275         3.3545
  11   0.0000       0.150106         4.0846
  12   0.0000       0.180098         4.9007
  13   0.0000       0.199030         5.4159

MULLIKEN ATOMIC CHARGES
-----------------------
   0 C :    0.007562
   1 O :    0.001387
   2 H :   -0.010941
   3 H :   -0.002096
   4 H :   -0.007979
   5 H :   -0.000467
   6 C :   -0.166427
   7 O :   -0.463381
   8 H :    0.313613
   9 H :    0.128281
  10 H :    0.088851
  11 H :    0.111597
Sum of atomic charges:   -0.0000000

LOEWDIN ATOMIC CHARGES
----------------------
   0 C :   -0.010986
   1 O :   -0.004493
   2 H :   -0.027567
   3 H :   -0.000715
   4 H :   -0.003579
   5 H :   -0.000142
   6 C :   -0.373652
   7 O :   -0.090838
   8 H :    0.216722
   9 H :    0.106087
  10 H :    0.101955
  11 H :    0.087208

  Mayer bond orders larger than 0.1
B(  6-C ,  7-O ) :   0.9906 B(  6-C ,  9-H ) :   0.9728 B(  6-C , 10-H ) :   0.9716
B(  6-C , 11-H ) :   0.9785 B(  7-O ,  8-H ) :   0.8890

Dispersion correction           -0.000239343
FINAL SINGLE POINT ENERGY      -115.723826220110

DIPOLE MOMENT
-------------
                                X             Y             Z
Electronic contribution:      0.87926       1.29105      -0.97314
Nuclear contribution   :     -1.03355      -2.01239       0.89493
                        -----------------------------------------
Total Dipole Moment    :     -0.15429      -0.72134      -0.07821
                        -----------------------------------------
Magnitude (a.u.)       :      0.74179
Magnitude (Debye)      :      1.88548

Rotational constants in cm-1:     4.097397     0.812741     0.775648
Rotational constants in MHz : 122836.859598 24365.372615 23253.339201

                             ****ORCA TERMINATED NORMALLY****
TOTAL RUN TIME: 0 days 0 hours 1 minutes 3 seconds 394 msec
