                         Program Version 4.1.2  - RELEASE  -
|  1> #Run DFT-D3 single point of the dimer
|  2> ! wB97X-D3 def2-TZVP TIGHTSCF CHELPG PMODEL PAL8
|  3>
|  4> %base "15-158_DFT_AB"
|  5>
|  6> %scf
|  7> MaxIter 1000
|  8> end
|  9>
| 10> * xyz 0 1
| 11>   C                      -6.181417            4.486553             9.135316
| 12>   O                      -6.207112            3.427450             8.243800
| 13>   H                      -6.841590            3.548929             7.511015
| 14>   H                      -5.713710            5.329035             8.707369
| 15>   H                      -7.179472            4.846988             9.405488
| 16>   H                      -5.829679            4.273217             10.121663
| 17>   C                      -4.269144            2.055567             5.808991
| 18>   O                      -5.267021            1.395423             6.577179
| 19>   H                      -5.608203            2.101774             7.139157
| 20>   H                      -4.525395            1.965355             4.778729
| 21>   H                      -4.252099            3.121950             6.038937
| 22>   H                      -3.231462            1.807759             6.003058
| 23> *
| 24>
| 25> #Run DFT-D3 single point of the molecule with dimer basis set
| 26> $new_job
| 27> %base "15-158_DFT_A"
| 28> ! wB97X-D3 def2-TZVP TIGHTSCF CHELPG PMODEL
| 29>
| 30> %scf
| 31> MaxIter 1000
| 32> end
| 33>
| 34> * xyz 0 1
| 35>   C                      -6.181417            4.486553             9.135316
| 36>   O                      -6.207112            3.427450             8.243800
| 37>   H                      -6.841590            3.548929             7.511015
| 38>   H                      -5.713710            5.329035             8.707369
| 39>   H                      -7.179472            4.846988             9.405488
| 40>   H                      -5.829679            4.273217             10.121663
| 41>   C                    : -4.269144            2.055567             5.808991
| 42>   O                    : -5.267021            1.395423             6.577179
| 43>   H                    : -5.608203            2.101774             7.139157
| 44>   H                    : -4.525395            1.965355             4.778729
| 45>   H                    : -4.252099            3.121950             6.038937
| 46>   H                    : -3.231462            1.807759             6.003058
| 47> *
| 48>
| 49> #Run DFT-D3 single point of the particle with dimer basis set
| 50> $new_job
| 51> %base "15-158_DFT_B"
| 52> ! wB97X-D3 def2-TZVP TIGHTSCF CHELPG PMODEL
| 53>
| 54> %scf
| 55> MaxIter 1000
| 56> end
| 57>
| 58> * xyz 0 1
| 59>   C                    : -6.181417            4.486553             9.135316
| 60>   O                    : -6.207112            3.427450             8.243800
| 61>   H                    : -6.841590            3.548929             7.511015
| 62>   H                    : -5.713710            5.329035             8.707369
| 63>   H                    : -7.179472            4.846988             9.405488
| 64>   H                    : -5.829679            4.273217             10.121663
| 65>   C                      -4.269144            2.055567             5.808991
| 66>   O                      -5.267021            1.395423             6.577179
| 67>   H                      -5.608203            2.101774             7.139157
| 68>   H                      -4.525395            1.965355             4.778729
| 69>   H                      -4.252099            3.121950             6.038937
| 70>   H                      -3.231462            1.807759             6.003058
| 71> *
| 72>
| 73>                          ****END OF INPUT****
 Total Charge           Charge          ....    0
 Multiplicity           Mult            ....    1
 Number of Electrons    NEL             ....   36
Dispersion correction           -0.001713692
FINAL SINGLE POINT ENERGY      -231.465751458710
Dispersion correction           -0.000239288
FINAL SINGLE POINT ENERGY      -115.729612951107

CARTESIAN COORDINATES (ANGSTROEM)
---------------------------------
  C     -6.181417    4.486553    9.135316
  O     -6.207112    3.427450    8.243800
  H     -6.841590    3.548929    7.511015
  H     -5.713710    5.329035    8.707369
  H     -7.179472    4.846988    9.405488
  H     -5.829679    4.273217   10.121663
  C     -4.269144    2.055567    5.808991
  O     -5.267021    1.395423    6.577179
  H     -5.608203    2.101774    7.139157
  H     -4.525395    1.965355    4.778729
  H     -4.252099    3.121950    6.038937
  H     -3.231462    1.807759    6.003058

 Multiplicity           Mult            ....    1
 Number of Electrons    NEL             ....   18
 Basis Dimension        Dim             ....  172

ORBITAL ENERGIES
----------------

  NO   OCC          E(Eh)            E(eV)
   0   2.0000     -19.233277      -523.3641
   1   2.0000     -10.309587      -280.5381
   2   2.0000      -1.137080       -30.9415
   3   2.0000      -0.797953       -21.7134
   4   2.0000      -0.613344       -16.6899
   5   2.0000      -0.546858       -14.8808
   6   2.0000      -0.523921       -14.2566
   7   2.0000      -0.435058       -11.8385
   8   2.0000      -0.378015       -10.2863
   9   0.0000       0.067672         1.8414
  10   0.0000       0.128929         3.5083
  11   0.0000       0.149425         4.0661
  12   0.0000       0.176209         4.7949
  13   0.0000       0.183981         5.0064

MULLIKEN ATOMIC CHARGES
-----------------------
   0 C :   -0.000733
   1 O :   -0.006723
   2 H :   -0.002796
   3 H :   -0.000053
   4 H :    0.000026
   5 H :    0.000040
   6 C :   -0.178614
   7 O :   -0.462453
   8 H :    0.321676
   9 H :    0.119839
  10 H :    0.101968
  11 H :    0.107824
Sum of atomic charges:    0.0000000

LOEWDIN ATOMIC CHARGES
----------------------
   0 C :   -0.001739
   1 O :   -0.026254
   2 H :   -0.006304
   3 H :   -0.000076
   4 H :   -0.000040
   5 H :   -0.000053
   6 C :   -0.378261
   7 O :   -0.067999
   8 H :    0.188372
   9 H :    0.097316
  10 H :    0.097777
  11 H :    0.097261

  Mayer bond orders larger than 0.1
B(  6-C ,  7-O ) :   0.9967 B(  6-C ,  9-H ) :   0.9797 B(  6-C , 10-H ) :   0.9877
B(  6-C , 11-H ) :   0.9688 B(  7-O ,  8-H ) :   0.9064

Dispersion correction           -0.000239590
FINAL SINGLE POINT ENERGY      -115.731012773567

DIPOLE MOMENT
-------------
                                X             Y             Z
Electronic contribution:     -1.24187      -1.13616       0.89560
Nuclear contribution   :      1.41932       1.86695      -0.84036
                        -----------------------------------------
Total Dipole Moment    :      0.17745       0.73080       0.05523
                        -----------------------------------------
Magnitude (a.u.)       :      0.75406
Magnitude (Debye)      :      1.91666

Rotational constants in cm-1:     4.399963     0.825356     0.798485
Rotational constants in MHz : 131907.585464 24743.543720 23937.990512

                             ****ORCA TERMINATED NORMALLY****
TOTAL RUN TIME: 0 days 0 hours 1 minutes 7 seconds 59 msec
