                         Program Version 4.1.2  - RELEASE  -
|  1> #Run DFT-D3 single point of the dimer
|  2> ! wB97X-D3 def2-TZVP TIGHTSCF CHELPG PMODEL PAL8
|  3>
|  4> %base "4-60_DFT_AB"
|  5>
|  6> %scf
|  7> MaxIter 1000
|  8> end
|  9>
| 10> * xyz 0 1
| 11>   C                      -10.731025           2.823541             -1.194444
| 12>   O                      -10.503371           3.750135             -0.081358
| 13>   H                      -9.717192            3.611297             0.489731
| 14>   H                      -10.037854           3.038673             -2.059465
| 15>   H                      -10.587128           1.762189             -0.946121
| 16>   H                      -11.729911           2.863897             -1.670803
| 17>   C                      -8.589574            6.130416             -1.375605
| 18>   O                      -9.930195            6.243223             -1.774311
| 19>   H                      -10.297952           5.420813             -1.545800
| 20>   H                      -8.562136            5.487636             -0.475464
| 21>   H                      -7.952221            5.669713             -2.124242
| 22>   H                      -8.029760            6.994471             -1.218246
| 23> *
| 24>
| 25> #Run DFT-D3 single point of the molecule with dimer basis set
| 26> $new_job
| 27> %base "4-60_DFT_A"
| 28> ! wB97X-D3 def2-TZVP TIGHTSCF CHELPG PMODEL
| 29>
| 30> %scf
| 31> MaxIter 1000
| 32> end
| 33>
| 34> * xyz 0 1
| 35>   C                      -10.731025           2.823541             -1.194444
| 36>   O                      -10.503371           3.750135             -0.081358
| 37>   H                      -9.717192            3.611297             0.489731
| 38>   H                      -10.037854           3.038673             -2.059465
| 39>   H                      -10.587128           1.762189             -0.946121
| 40>   H                      -11.729911           2.863897             -1.670803
| 41>   C                    : -8.589574            6.130416             -1.375605
| 42>   O                    : -9.930195            6.243223             -1.774311
| 43>   H                    : -10.297952           5.420813             -1.545800
| 44>   H                    : -8.562136            5.487636             -0.475464
| 45>   H                    : -7.952221            5.669713             -2.124242
| 46>   H                    : -8.029760            6.994471             -1.218246
| 47> *
| 48>
| 49> #Run DFT-D3 single point of the particle with dimer basis set
| 50> $new_job
| 51> %base "4-60_DFT_B"
| 52> ! wB97X-D3 def2-TZVP TIGHTSCF CHELPG PMODEL
| 53>
| 54> %scf
| 55> MaxIter 1000
| 56> end
| 57>
| 58> * xyz 0 1
| 59>   C                    : -10.731025           2.823541             -1.194444
| 60>   O                    : -10.503371           3.750135             -0.081358
| 61>   H                    : -9.717192            3.611297             0.489731
| 62>   H                    : -10.037854           3.038673             -2.059465
| 63>   H                    : -10.587128           1.762189             -0.946121
| 64>   H                    : -11.729911           2.863897             -1.670803
| 65>   C                      -8.589574            6.130416             -1.375605
| 66>   O                      -9.930195            6.243223             -1.774311
| 67>   H                      -10.297952           5.420813             -1.545800
| 68>   H                      -8.562136            5.487636             -0.475464
| 69>   H                      -7.952221            5.669713             -2.124242
| 70>   H                      -8.029760            6.994471             -1.218246
| 71> *
| 72>
| 73>                          ****END OF INPUT****
 Total Charge           Charge          ....    0
 Multiplicity           Mult            ....    1
 Number of Electrons    NEL             ....   36
Dispersion correction           -0.002283930
FINAL SINGLE POINT ENERGY      -231.460139766629
Dispersion correction           -0.000319201
FINAL SINGLE POINT ENERGY      -115.726939256101

CARTESIAN COORDINATES (ANGSTROEM)
---------------------------------
  C    -10.731025    2.823541   -1.194444
  O    -10.503371    3.750135   -0.081358
  H     -9.717192    3.611297    0.489731
  H    -10.037854    3.038673   -2.059465
  H    -10.587128    1.762189   -0.946121
  H    -11.729911    2.863897   -1.670803
  C     -8.589574    6.130416   -1.375605
  O     -9.930195    6.243223   -1.774311
  H    -10.297952    5.420813   -1.545800
  H     -8.562136    5.487636   -0.475464
  H     -7.952221    5.669713   -2.124242
  H     -8.029760    6.994471   -1.218246

 Multiplicity           Mult            ....    1
 Number of Electrons    NEL             ....   18
 Basis Dimension        Dim             ....  172

ORBITAL ENERGIES
----------------

  NO   OCC          E(Eh)            E(eV)
   0   2.0000     -19.230814      -523.2971
   1   2.0000     -10.308374      -280.5051
   2   2.0000      -1.150157       -31.2974
   3   2.0000      -0.803420       -21.8622
   4   2.0000      -0.616880       -16.7862
   5   2.0000      -0.551451       -15.0057
   6   2.0000      -0.533254       -14.5106
   7   2.0000      -0.437592       -11.9075
   8   2.0000      -0.373054       -10.1513
   9   0.0000       0.068629         1.8675
  10   0.0000       0.137105         3.7308
  11   0.0000       0.152746         4.1564
  12   0.0000       0.156954         4.2709
  13   0.0000       0.192279         5.2322

MULLIKEN ATOMIC CHARGES
-----------------------
   0 C :   -0.001801
   1 O :   -0.002541
   2 H :   -0.000169
   3 H :   -0.001400
   4 H :   -0.000283
   5 H :    0.000280
   6 C :   -0.174060
   7 O :   -0.451546
   8 H :    0.309417
   9 H :    0.098578
  10 H :    0.099065
  11 H :    0.124459
Sum of atomic charges:   -0.0000000

LOEWDIN ATOMIC CHARGES
----------------------
   0 C :   -0.007573
   1 O :   -0.009058
   2 H :   -0.003344
   3 H :   -0.001830
   4 H :   -0.000118
   5 H :   -0.000255
   6 C :   -0.385354
   7 O :   -0.040581
   8 H :    0.155808
   9 H :    0.102776
  10 H :    0.094674
  11 H :    0.094854

  Mayer bond orders larger than 0.1
B(  6-C ,  7-O ) :   0.9927 B(  6-C ,  9-H ) :   0.9905 B(  6-C , 10-H ) :   0.9754
B(  6-C , 11-H ) :   0.9754 B(  7-O ,  8-H ) :   0.9203

Dispersion correction           -0.000225313
FINAL SINGLE POINT ENERGY      -115.727531398405

DIPOLE MOMENT
-------------
                                X             Y             Z
Electronic contribution:     -1.80317       0.44644      -0.56165
Nuclear contribution   :      2.10557      -0.98842       0.85779
                        -----------------------------------------
Total Dipole Moment    :      0.30240      -0.54198       0.29614
                        -----------------------------------------
Magnitude (a.u.)       :      0.68767
Magnitude (Debye)      :      1.74791

Rotational constants in cm-1:     4.563263     0.845202     0.808828
Rotational constants in MHz : 136803.177628 25338.512548 24248.064368

                             ****ORCA TERMINATED NORMALLY****
TOTAL RUN TIME: 0 days 0 hours 1 minutes 37 seconds 431 msec
