                         Program Version 4.1.2  - RELEASE  -
|  1> #Run DFT-D3 single point of the dimer
|  2> ! wB97X-D3 def2-TZVP TIGHTSCF CHELPG PMODEL PAL8
|  3>
|  4> %base "5-133_DFT_AB"
|  5>
|  6> %scf
|  7> MaxIter 1000
|  8> end
|  9>
| 10> * xyz 0 1
| 11>   C                      0.074017             4.217301             -5.496732
| 12>   O                      0.563221             5.487481             -5.740181
| 13>   H                      -0.073991            6.071840             -5.294138
| 14>   H                      -0.913316            4.025196             -5.905946
| 15>   H                      0.774878             3.517048             -5.955846
| 16>   H                      -0.044787            3.904843             -4.515804
| 17>   C                      1.407148             4.682785             -1.985167
| 18>   O                      0.389347             3.689952             -1.839461
| 19>   H                      0.932256             2.871912             -1.913617
| 20>   H                      2.081969             4.400590             -2.813521
| 21>   H                      0.881962             5.514447             -2.269096
| 22>   H                      1.978033             4.889483             -1.053356
| 23> *
| 24>
| 25> #Run DFT-D3 single point of the molecule with dimer basis set
| 26> $new_job
| 27> %base "5-133_DFT_A"
| 28> ! wB97X-D3 def2-TZVP TIGHTSCF CHELPG PMODEL
| 29>
| 30> %scf
| 31> MaxIter 1000
| 32> end
| 33>
| 34> * xyz 0 1
| 35>   C                      0.074017             4.217301             -5.496732
| 36>   O                      0.563221             5.487481             -5.740181
| 37>   H                      -0.073991            6.071840             -5.294138
| 38>   H                      -0.913316            4.025196             -5.905946
| 39>   H                      0.774878             3.517048             -5.955846
| 40>   H                      -0.044787            3.904843             -4.515804
| 41>   C                    : 1.407148             4.682785             -1.985167
| 42>   O                    : 0.389347             3.689952             -1.839461
| 43>   H                    : 0.932256             2.871912             -1.913617
| 44>   H                    : 2.081969             4.400590             -2.813521
| 45>   H                    : 0.881962             5.514447             -2.269096
| 46>   H                    : 1.978033             4.889483             -1.053356
| 47> *
| 48>
| 49> #Run DFT-D3 single point of the particle with dimer basis set
| 50> $new_job
| 51> %base "5-133_DFT_B"
| 52> ! wB97X-D3 def2-TZVP TIGHTSCF CHELPG PMODEL
| 53>
| 54> %scf
| 55> MaxIter 1000
| 56> end
| 57>
| 58> * xyz 0 1
| 59>   C                    : 0.074017             4.217301             -5.496732
| 60>   O                    : 0.563221             5.487481             -5.740181
| 61>   H                    : -0.073991            6.071840             -5.294138
| 62>   H                    : -0.913316            4.025196             -5.905946
| 63>   H                    : 0.774878             3.517048             -5.955846
| 64>   H                    : -0.044787            3.904843             -4.515804
| 65>   C                      1.407148             4.682785             -1.985167
| 66>   O                      0.389347             3.689952             -1.839461
| 67>   H                      0.932256             2.871912             -1.913617
| 68>   H                      2.081969             4.400590             -2.813521
| 69>   H                      0.881962             5.514447             -2.269096
| 70>   H                      1.978033             4.889483             -1.053356
| 71> *
| 72>
| 73>                          ****END OF INPUT****
 Total Charge           Charge          ....    0
 Multiplicity           Mult            ....    1
 Number of Electrons    NEL             ....   36
Dispersion correction           -0.001969052
FINAL SINGLE POINT ENERGY      -231.464356708834
Dispersion correction           -0.000222440
FINAL SINGLE POINT ENERGY      -115.731306400266

CARTESIAN COORDINATES (ANGSTROEM)
---------------------------------
  C      0.074017    4.217301   -5.496732
  O      0.563221    5.487481   -5.740181
  H     -0.073991    6.071840   -5.294138
  H     -0.913316    4.025196   -5.905946
  H      0.774878    3.517048   -5.955846
  H     -0.044787    3.904843   -4.515804
  C      1.407148    4.682785   -1.985167
  O      0.389347    3.689952   -1.839461
  H      0.932256    2.871912   -1.913617
  H      2.081969    4.400590   -2.813521
  H      0.881962    5.514447   -2.269096
  H      1.978033    4.889483   -1.053356

 Multiplicity           Mult            ....    1
 Number of Electrons    NEL             ....   18
 Basis Dimension        Dim             ....  172

ORBITAL ENERGIES
----------------

  NO   OCC          E(Eh)            E(eV)
   0   2.0000     -19.233784      -523.3779
   1   2.0000     -10.308619      -280.5118
   2   2.0000      -1.132443       -30.8153
   3   2.0000      -0.794380       -21.6162
   4   2.0000      -0.605915       -16.4878
   5   2.0000      -0.543409       -14.7869
   6   2.0000      -0.522313       -14.2129
   7   2.0000      -0.445129       -12.1126
   8   2.0000      -0.375270       -10.2116
   9   0.0000       0.085906         2.3376
  10   0.0000       0.120128         3.2688
  11   0.0000       0.153433         4.1751
  12   0.0000       0.165950         4.5157
  13   0.0000       0.193351         5.2614

MULLIKEN ATOMIC CHARGES
-----------------------
   0 C :    0.006598
   1 O :   -0.000168
   2 H :   -0.000204
   3 H :   -0.000218
   4 H :   -0.000489
   5 H :   -0.013369
   6 C :   -0.188219
   7 O :   -0.463805
   8 H :    0.313676
   9 H :    0.107932
  10 H :    0.126787
  11 H :    0.111479
Sum of atomic charges:    0.0000000

LOEWDIN ATOMIC CHARGES
----------------------
   0 C :   -0.004123
   1 O :   -0.000248
   2 H :   -0.000300
   3 H :   -0.000026
   4 H :   -0.000096
   5 H :   -0.008603
   6 C :   -0.374943
   7 O :   -0.089778
   8 H :    0.184406
   9 H :    0.100632
  10 H :    0.092514
  11 H :    0.100564

  Mayer bond orders larger than 0.1
B(  6-C ,  7-O ) :   0.9838 B(  6-C ,  9-H ) :   0.9853 B(  6-C , 10-H ) :   0.9833
B(  6-C , 11-H ) :   0.9623 B(  7-O ,  8-H ) :   0.9036

Dispersion correction           -0.000223118
FINAL SINGLE POINT ENERGY      -115.730392765869

DIPOLE MOMENT
-------------
                                X             Y             Z
Electronic contribution:     -1.38930      -1.07840       0.25008
Nuclear contribution   :      2.10093       0.98850      -0.36122
                        -----------------------------------------
Total Dipole Moment    :      0.71162      -0.08991      -0.11114
                        -----------------------------------------
Magnitude (a.u.)       :      0.72584
Magnitude (Debye)      :      1.84493

Rotational constants in cm-1:     4.195713     0.832001     0.804825
Rotational constants in MHz : 125784.317414 24942.769009 24128.035654

                             ****ORCA TERMINATED NORMALLY****
TOTAL RUN TIME: 0 days 0 hours 0 minutes 52 seconds 942 msec
