                         Program Version 4.1.2  - RELEASE  -
|  1> #Run DFT-D3 single point of the dimer
|  2> ! wB97X-D3 def2-TZVP TIGHTSCF CHELPG PMODEL PAL8
|  3>
|  4> %base "20-130_DFT_AB"
|  5>
|  6> %scf
|  7> MaxIter 1000
|  8> end
|  9>
| 10> * xyz 0 1
| 11>   C                      -10.407727           0.770466             3.631397
| 12>   O                      -9.562463            -0.223850            3.141265
| 13>   H                      -9.421107            -0.852578            3.813185
| 14>   H                      -11.475602           0.633338             3.382502
| 15>   H                      -10.279834           0.901651             4.710946
| 16>   H                      -10.139632           1.661452             3.115065
| 17>   C                      -9.710998            2.179214             -0.109138
| 18>   O                      -8.860415            1.325623             0.616860
| 19>   H                      -9.517758            0.705625             0.956050
| 20>   H                      -10.707104           2.107641             0.293463
| 21>   H                      -9.473880            3.273409             0.136676
| 22>   H                      -9.885433            2.028384             -1.196129
| 23> *
| 24>
| 25> #Run DFT-D3 single point of the molecule with dimer basis set
| 26> $new_job
| 27> %base "20-130_DFT_A"
| 28> ! wB97X-D3 def2-TZVP TIGHTSCF CHELPG PMODEL
| 29>
| 30> %scf
| 31> MaxIter 1000
| 32> end
| 33>
| 34> * xyz 0 1
| 35>   C                      -10.407727           0.770466             3.631397
| 36>   O                      -9.562463            -0.223850            3.141265
| 37>   H                      -9.421107            -0.852578            3.813185
| 38>   H                      -11.475602           0.633338             3.382502
| 39>   H                      -10.279834           0.901651             4.710946
| 40>   H                      -10.139632           1.661452             3.115065
| 41>   C                    : -9.710998            2.179214             -0.109138
| 42>   O                    : -8.860415            1.325623             0.616860
| 43>   H                    : -9.517758            0.705625             0.956050
| 44>   H                    : -10.707104           2.107641             0.293463
| 45>   H                    : -9.473880            3.273409             0.136676
| 46>   H                    : -9.885433            2.028384             -1.196129
| 47> *
| 48>
| 49> #Run DFT-D3 single point of the particle with dimer basis set
| 50> $new_job
| 51> %base "20-130_DFT_B"
| 52> ! wB97X-D3 def2-TZVP TIGHTSCF CHELPG PMODEL
| 53>
| 54> %scf
| 55> MaxIter 1000
| 56> end
| 57>
| 58> * xyz 0 1
| 59>   C                    : -10.407727           0.770466             3.631397
| 60>   O                    : -9.562463            -0.223850            3.141265
| 61>   H                    : -9.421107            -0.852578            3.813185
| 62>   H                    : -11.475602           0.633338             3.382502
| 63>   H                    : -10.279834           0.901651             4.710946
| 64>   H                    : -10.139632           1.661452             3.115065
| 65>   C                      -9.710998            2.179214             -0.109138
| 66>   O                      -8.860415            1.325623             0.616860
| 67>   H                      -9.517758            0.705625             0.956050
| 68>   H                      -10.707104           2.107641             0.293463
| 69>   H                      -9.473880            3.273409             0.136676
| 70>   H                      -9.885433            2.028384             -1.196129
| 71> *
| 72>
| 73>                          ****END OF INPUT****
 Total Charge           Charge          ....    0
 Multiplicity           Mult            ....    1
 Number of Electrons    NEL             ....   36
Dispersion correction           -0.001950327
FINAL SINGLE POINT ENERGY      -231.463667088838
Dispersion correction           -0.000235499
FINAL SINGLE POINT ENERGY      -115.734317810700

CARTESIAN COORDINATES (ANGSTROEM)
---------------------------------
  C    -10.407727    0.770466    3.631397
  O     -9.562463   -0.223850    3.141265
  H     -9.421107   -0.852578    3.813185
  H    -11.475602    0.633338    3.382502
  H    -10.279834    0.901651    4.710946
  H    -10.139632    1.661452    3.115065
  C     -9.710998    2.179214   -0.109138
  O     -8.860415    1.325623    0.616860
  H     -9.517758    0.705625    0.956050
  H    -10.707104    2.107641    0.293463
  H     -9.473880    3.273409    0.136676
  H     -9.885433    2.028384   -1.196129

 Multiplicity           Mult            ....    1
 Number of Electrons    NEL             ....   18
 Basis Dimension        Dim             ....  172

ORBITAL ENERGIES
----------------

  NO   OCC          E(Eh)            E(eV)
   0   2.0000     -19.239394      -523.5305
   1   2.0000     -10.318743      -280.7873
   2   2.0000      -1.147781       -31.2327
   3   2.0000      -0.789802       -21.4916
   4   2.0000      -0.618085       -16.8189
   5   2.0000      -0.543021       -14.7764
   6   2.0000      -0.523576       -14.2472
   7   2.0000      -0.433498       -11.7961
   8   2.0000      -0.380067       -10.3421
   9   0.0000       0.073977         2.0130
  10   0.0000       0.129941         3.5359
  11   0.0000       0.145006         3.9458
  12   0.0000       0.169421         4.6102
  13   0.0000       0.182356         4.9622

MULLIKEN ATOMIC CHARGES
-----------------------
   0 C :   -0.006637
   1 O :    0.000285
   2 H :   -0.000023
   3 H :    0.000666
   4 H :   -0.000434
   5 H :   -0.002711
   6 C :   -0.199793
   7 O :   -0.440803
   8 H :    0.317525
   9 H :    0.105991
  10 H :    0.111325
  11 H :    0.114610
Sum of atomic charges:   -0.0000000

LOEWDIN ATOMIC CHARGES
----------------------
   0 C :   -0.008087
   1 O :   -0.006450
   2 H :   -0.000249
   3 H :   -0.000173
   4 H :   -0.000122
   5 H :   -0.005058
   6 C :   -0.413091
   7 O :   -0.055399
   8 H :    0.182360
   9 H :    0.092264
  10 H :    0.114259
  11 H :    0.099747

  Mayer bond orders larger than 0.1
B(  6-C ,  7-O ) :   1.0084 B(  6-C ,  9-H ) :   0.9909 B(  6-C , 10-H ) :   0.9762
B(  6-C , 11-H ) :   0.9632 B(  7-O ,  8-H ) :   0.9040

Dispersion correction           -0.000246452
FINAL SINGLE POINT ENERGY      -115.726240915537

DIPOLE MOMENT
-------------
                                X             Y             Z
Electronic contribution:      1.43361      -1.17658       0.80940
Nuclear contribution   :     -2.19420       1.09985      -0.84138
                        -----------------------------------------
Total Dipole Moment    :     -0.76059      -0.07673      -0.03197
                        -----------------------------------------
Magnitude (a.u.)       :      0.76512
Magnitude (Debye)      :      1.94479

Rotational constants in cm-1:     4.249149     0.830836     0.806515
Rotational constants in MHz : 127386.282702 24907.822085 24178.726024

                             ****ORCA TERMINATED NORMALLY****
TOTAL RUN TIME: 0 days 0 hours 0 minutes 55 seconds 189 msec
