                         Program Version 4.1.2  - RELEASE  -
|  1> #Run DFT-D3 single point of the dimer
|  2> ! wB97X-D3 def2-TZVP TIGHTSCF CHELPG PMODEL PAL8
|  3>
|  4> %base "9-119_DFT_AB"
|  5>
|  6> %scf
|  7> MaxIter 1000
|  8> end
|  9>
| 10> * xyz 0 1
| 11>   C                      -10.376710           0.560321             10.733533
| 12>   O                      -10.489828           -0.487567            9.837764
| 13>   H                      -9.996989            -0.133378            9.085985
| 14>   H                      -11.348913           0.771899             11.190426
| 15>   H                      -9.592105            0.376492             11.515323
| 16>   H                      -10.203514           1.569726             10.237749
| 17>   C                      -6.479219            -1.361711            9.804237
| 18>   O                      -7.633055            -0.737605            10.280932
| 19>   H                      -7.871351            -1.024000            11.174917
| 20>   H                      -5.711295            -1.646732            10.593939
| 21>   H                      -6.731494            -2.359005            9.360139
| 22>   H                      -5.839508            -0.816338            9.086842
| 23> *
| 24>
| 25> #Run DFT-D3 single point of the molecule with dimer basis set
| 26> $new_job
| 27> %base "9-119_DFT_A"
| 28> ! wB97X-D3 def2-TZVP TIGHTSCF CHELPG PMODEL
| 29>
| 30> %scf
| 31> MaxIter 1000
| 32> end
| 33>
| 34> * xyz 0 1
| 35>   C                      -10.376710           0.560321             10.733533
| 36>   O                      -10.489828           -0.487567            9.837764
| 37>   H                      -9.996989            -0.133378            9.085985
| 38>   H                      -11.348913           0.771899             11.190426
| 39>   H                      -9.592105            0.376492             11.515323
| 40>   H                      -10.203514           1.569726             10.237749
| 41>   C                    : -6.479219            -1.361711            9.804237
| 42>   O                    : -7.633055            -0.737605            10.280932
| 43>   H                    : -7.871351            -1.024000            11.174917
| 44>   H                    : -5.711295            -1.646732            10.593939
| 45>   H                    : -6.731494            -2.359005            9.360139
| 46>   H                    : -5.839508            -0.816338            9.086842
| 47> *
| 48>
| 49> #Run DFT-D3 single point of the particle with dimer basis set
| 50> $new_job
| 51> %base "9-119_DFT_B"
| 52> ! wB97X-D3 def2-TZVP TIGHTSCF CHELPG PMODEL
| 53>
| 54> %scf
| 55> MaxIter 1000
| 56> end
| 57>
| 58> * xyz 0 1
| 59>   C                    : -10.376710           0.560321             10.733533
| 60>   O                    : -10.489828           -0.487567            9.837764
| 61>   H                    : -9.996989            -0.133378            9.085985
| 62>   H                    : -11.348913           0.771899             11.190426
| 63>   H                    : -9.592105            0.376492             11.515323
| 64>   H                    : -10.203514           1.569726             10.237749
| 65>   C                      -6.479219            -1.361711            9.804237
| 66>   O                      -7.633055            -0.737605            10.280932
| 67>   H                      -7.871351            -1.024000            11.174917
| 68>   H                      -5.711295            -1.646732            10.593939
| 69>   H                      -6.731494            -2.359005            9.360139
| 70>   H                      -5.839508            -0.816338            9.086842
| 71> *
| 72>
| 73>                          ****END OF INPUT****
 Total Charge           Charge          ....    0
 Multiplicity           Mult            ....    1
 Number of Electrons    NEL             ....   36
Dispersion correction           -0.001870687
FINAL SINGLE POINT ENERGY      -231.460908588581
Dispersion correction           -0.000235811
FINAL SINGLE POINT ENERGY      -115.730116273051

CARTESIAN COORDINATES (ANGSTROEM)
---------------------------------
  C    -10.376710    0.560321   10.733533
  O    -10.489828   -0.487567    9.837764
  H     -9.996989   -0.133378    9.085985
  H    -11.348913    0.771899   11.190426
  H     -9.592105    0.376492   11.515323
  H    -10.203514    1.569726   10.237749
  C     -6.479219   -1.361711    9.804237
  O     -7.633055   -0.737605   10.280932
  H     -7.871351   -1.024000   11.174917
  H     -5.711295   -1.646732   10.593939
  H     -6.731494   -2.359005    9.360139
  H     -5.839508   -0.816338    9.086842

 Multiplicity           Mult            ....    1
 Number of Electrons    NEL             ....   18
 Basis Dimension        Dim             ....  172

ORBITAL ENERGIES
----------------

  NO   OCC          E(Eh)            E(eV)
   0   2.0000     -19.235901      -523.4355
   1   2.0000     -10.321953      -280.8746
   2   2.0000      -1.140714       -31.0404
   3   2.0000      -0.793602       -21.5950
   4   2.0000      -0.619180       -16.8488
   5   2.0000      -0.540643       -14.7117
   6   2.0000      -0.524587       -14.2747
   7   2.0000      -0.424316       -11.5462
   8   2.0000      -0.372930       -10.1480
   9   0.0000       0.093390         2.5413
  10   0.0000       0.126350         3.4382
  11   0.0000       0.149461         4.0670
  12   0.0000       0.180603         4.9145
  13   0.0000       0.200022         5.4429

MULLIKEN ATOMIC CHARGES
-----------------------
   0 C :    0.000193
   1 O :    0.003563
   2 H :   -0.004296
   3 H :   -0.000212
   4 H :   -0.006004
   5 H :   -0.001147
   6 C :   -0.174113
   7 O :   -0.468884
   8 H :    0.328860
   9 H :    0.098550
  10 H :    0.099858
  11 H :    0.123633
Sum of atomic charges:    0.0000000

LOEWDIN ATOMIC CHARGES
----------------------
   0 C :   -0.015035
   1 O :   -0.007185
   2 H :   -0.006785
   3 H :   -0.000166
   4 H :   -0.005854
   5 H :   -0.000505
   6 C :   -0.414363
   7 O :   -0.040516
   8 H :    0.183063
   9 H :    0.101216
  10 H :    0.097967
  11 H :    0.108163

  Mayer bond orders larger than 0.1
B(  6-C ,  7-O ) :   1.0042 B(  6-C ,  9-H ) :   0.9739 B(  6-C , 10-H ) :   0.9779
B(  6-C , 11-H ) :   0.9686 B(  7-O ,  8-H ) :   0.8833

Dispersion correction           -0.000274497
FINAL SINGLE POINT ENERGY      -115.730068871759

DIPOLE MOMENT
-------------
                                X             Y             Z
Electronic contribution:     -1.64288       1.07229       0.48552
Nuclear contribution   :      1.95941      -1.49205      -0.07094
                        -----------------------------------------
Total Dipole Moment    :      0.31654      -0.41976       0.41458
                        -----------------------------------------
Magnitude (a.u.)       :      0.66953
Magnitude (Debye)      :      1.70180

Rotational constants in cm-1:     4.378053     0.819048     0.794371
Rotational constants in MHz : 131250.715300 24554.454076 23814.634161

                             ****ORCA TERMINATED NORMALLY****
TOTAL RUN TIME: 0 days 0 hours 0 minutes 46 seconds 117 msec
