                         Program Version 4.1.2  - RELEASE  -
|  1> #Run DFT-D3 single point of the dimer
|  2> ! wB97X-D3 def2-TZVP TIGHTSCF CHELPG PMODEL PAL8
|  3>
|  4> %base "8-128_DFT_AB"
|  5>
|  6> %scf
|  7> MaxIter 1000
|  8> end
|  9>
| 10> * xyz 0 1
| 11>   C                      -5.209357            -7.911210            -7.642439
| 12>   O                      -4.306561            -7.095879            -8.320891
| 13>   H                      -4.088143            -7.384407            -9.210955
| 14>   H                      -6.268734            -7.795851            -7.834305
| 15>   H                      -4.851726            -9.038732            -7.718675
| 16>   H                      -5.098145            -7.774347            -6.550540
| 17>   C                      -5.723827            -4.420740            -6.893500
| 18>   O                      -5.543455            -4.072141            -8.256521
| 19>   H                      -5.341087            -4.846862            -8.759427
| 20>   H                      -4.835925            -4.954805            -6.632402
| 21>   H                      -5.821917            -3.488937            -6.411756
| 22>   H                      -6.684576            -4.909651            -6.795096
| 23> *
| 24>
| 25> #Run DFT-D3 single point of the molecule with dimer basis set
| 26> $new_job
| 27> %base "8-128_DFT_A"
| 28> ! wB97X-D3 def2-TZVP TIGHTSCF CHELPG PMODEL
| 29>
| 30> %scf
| 31> MaxIter 1000
| 32> end
| 33>
| 34> * xyz 0 1
| 35>   C                      -5.209357            -7.911210            -7.642439
| 36>   O                      -4.306561            -7.095879            -8.320891
| 37>   H                      -4.088143            -7.384407            -9.210955
| 38>   H                      -6.268734            -7.795851            -7.834305
| 39>   H                      -4.851726            -9.038732            -7.718675
| 40>   H                      -5.098145            -7.774347            -6.550540
| 41>   C                    : -5.723827            -4.420740            -6.893500
| 42>   O                    : -5.543455            -4.072141            -8.256521
| 43>   H                    : -5.341087            -4.846862            -8.759427
| 44>   H                    : -4.835925            -4.954805            -6.632402
| 45>   H                    : -5.821917            -3.488937            -6.411756
| 46>   H                    : -6.684576            -4.909651            -6.795096
| 47> *
| 48>
| 49> #Run DFT-D3 single point of the particle with dimer basis set
| 50> $new_job
| 51> %base "8-128_DFT_B"
| 52> ! wB97X-D3 def2-TZVP TIGHTSCF CHELPG PMODEL
| 53>
| 54> %scf
| 55> MaxIter 1000
| 56> end
| 57>
| 58> * xyz 0 1
| 59>   C                    : -5.209357            -7.911210            -7.642439
| 60>   O                    : -4.306561            -7.095879            -8.320891
| 61>   H                    : -4.088143            -7.384407            -9.210955
| 62>   H                    : -6.268734            -7.795851            -7.834305
| 63>   H                    : -4.851726            -9.038732            -7.718675
| 64>   H                    : -5.098145            -7.774347            -6.550540
| 65>   C                      -5.723827            -4.420740            -6.893500
| 66>   O                      -5.543455            -4.072141            -8.256521
| 67>   H                      -5.341087            -4.846862            -8.759427
| 68>   H                      -4.835925            -4.954805            -6.632402
| 69>   H                      -5.821917            -3.488937            -6.411756
| 70>   H                      -6.684576            -4.909651            -6.795096
| 71> *
| 72>
| 73>                          ****END OF INPUT****
 Total Charge           Charge          ....    0
 Multiplicity           Mult            ....    1
 Number of Electrons    NEL             ....   36
Dispersion correction           -0.002307423
FINAL SINGLE POINT ENERGY      -231.465048689288
Dispersion correction           -0.000276838
FINAL SINGLE POINT ENERGY      -115.728520409464

CARTESIAN COORDINATES (ANGSTROEM)
---------------------------------
  C     -5.209357   -7.911210   -7.642439
  O     -4.306561   -7.095879   -8.320891
  H     -4.088143   -7.384407   -9.210955
  H     -6.268734   -7.795851   -7.834305
  H     -4.851726   -9.038732   -7.718675
  H     -5.098145   -7.774347   -6.550540
  C     -5.723827   -4.420740   -6.893500
  O     -5.543455   -4.072141   -8.256521
  H     -5.341087   -4.846862   -8.759427
  H     -4.835925   -4.954805   -6.632402
  H     -5.821917   -3.488937   -6.411756
  H     -6.684576   -4.909651   -6.795096

 Multiplicity           Mult            ....    1
 Number of Electrons    NEL             ....   18
 Basis Dimension        Dim             ....  172

ORBITAL ENERGIES
----------------

  NO   OCC          E(Eh)            E(eV)
   0   2.0000     -19.219359      -522.9854
   1   2.0000     -10.303803      -280.3807
   2   2.0000      -1.133385       -30.8410
   3   2.0000      -0.800412       -21.7803
   4   2.0000      -0.604315       -16.4443
   5   2.0000      -0.559229       -15.2174
   6   2.0000      -0.526727       -14.3330
   7   2.0000      -0.428155       -11.6507
   8   2.0000      -0.370855       -10.0915
   9   0.0000       0.070476         1.9178
  10   0.0000       0.131133         3.5683
  11   0.0000       0.148061         4.0289
  12   0.0000       0.171063         4.6549
  13   0.0000       0.192249         5.2314

MULLIKEN ATOMIC CHARGES
-----------------------
   0 C :    0.002743
   1 O :   -0.001873
   2 H :   -0.000226
   3 H :   -0.000435
   4 H :    0.000031
   5 H :   -0.001691
   6 C :   -0.161498
   7 O :   -0.486489
   8 H :    0.306777
   9 H :    0.110599
  10 H :    0.127522
  11 H :    0.104541
Sum of atomic charges:    0.0000000

LOEWDIN ATOMIC CHARGES
----------------------
   0 C :   -0.005858
   1 O :   -0.005290
   2 H :   -0.000657
   3 H :   -0.000582
   4 H :   -0.000030
   5 H :   -0.001339
   6 C :   -0.359256
   7 O :   -0.077656
   8 H :    0.152834
   9 H :    0.097253
  10 H :    0.102939
  11 H :    0.097643

  Mayer bond orders larger than 0.1
B(  6-C ,  7-O ) :   0.9806 B(  6-C ,  9-H ) :   0.9859 B(  6-C , 10-H ) :   0.9751
B(  6-C , 11-H ) :   0.9786 B(  7-O ,  8-H ) :   0.9113

Dispersion correction           -0.000205873
FINAL SINGLE POINT ENERGY      -115.731147691176

DIPOLE MOMENT
-------------
                                X             Y             Z
Electronic contribution:      0.21653       0.46112      -1.45906
Nuclear contribution   :     -0.16304      -1.07462       1.70402
                        -----------------------------------------
Total Dipole Moment    :      0.05349      -0.61350       0.24496
                        -----------------------------------------
Magnitude (a.u.)       :      0.66276
Magnitude (Debye)      :      1.68460

Rotational constants in cm-1:     4.299878     0.848863     0.825431
Rotational constants in MHz : 128907.097177 25448.272128 24745.810145

                             ****ORCA TERMINATED NORMALLY****
TOTAL RUN TIME: 0 days 0 hours 0 minutes 48 seconds 323 msec
