                         Program Version 4.1.2  - RELEASE  -
|  1> #Run DFT-D3 single point of the dimer
|  2> ! wB97X-D3 def2-TZVP TIGHTSCF CHELPG PMODEL PAL8
|  3>
|  4> %base "1-53_DFT_AB"
|  5>
|  6> %scf
|  7> MaxIter 1000
|  8> end
|  9>
| 10> * xyz 0 1
| 11>   C                      -2.795325            9.217840             5.555766
| 12>   O                      -3.946272            9.686863             6.213946
| 13>   H                      -3.969267            9.351075             7.120477
| 14>   H                      -2.991524            9.209093             4.464861
| 15>   H                      -1.885058            9.769403             5.855998
| 16>   H                      -2.593840            8.207868             5.831886
| 17>   C                      -6.076476            10.396994            8.572423
| 18>   O                      -4.913337            11.136352            8.302519
| 19>   H                      -4.968444            12.080275            8.375493
| 20>   H                      -6.294389            9.678972             7.724420
| 21>   H                      -6.081936            9.823034             9.605426
| 22>   H                      -6.905947            11.125597            8.466702
| 23> *
| 24>
| 25> #Run DFT-D3 single point of the molecule with dimer basis set
| 26> $new_job
| 27> %base "1-53_DFT_A"
| 28> ! wB97X-D3 def2-TZVP TIGHTSCF CHELPG PMODEL
| 29>
| 30> %scf
| 31> MaxIter 1000
| 32> end
| 33>
| 34> * xyz 0 1
| 35>   C                      -2.795325            9.217840             5.555766
| 36>   O                      -3.946272            9.686863             6.213946
| 37>   H                      -3.969267            9.351075             7.120477
| 38>   H                      -2.991524            9.209093             4.464861
| 39>   H                      -1.885058            9.769403             5.855998
| 40>   H                      -2.593840            8.207868             5.831886
| 41>   C                    : -6.076476            10.396994            8.572423
| 42>   O                    : -4.913337            11.136352            8.302519
| 43>   H                    : -4.968444            12.080275            8.375493
| 44>   H                    : -6.294389            9.678972             7.724420
| 45>   H                    : -6.081936            9.823034             9.605426
| 46>   H                    : -6.905947            11.125597            8.466702
| 47> *
| 48>
| 49> #Run DFT-D3 single point of the particle with dimer basis set
| 50> $new_job
| 51> %base "1-53_DFT_B"
| 52> ! wB97X-D3 def2-TZVP TIGHTSCF CHELPG PMODEL
| 53>
| 54> %scf
| 55> MaxIter 1000
| 56> end
| 57>
| 58> * xyz 0 1
| 59>   C                    : -2.795325            9.217840             5.555766
| 60>   O                    : -3.946272            9.686863             6.213946
| 61>   H                    : -3.969267            9.351075             7.120477
| 62>   H                    : -2.991524            9.209093             4.464861
| 63>   H                    : -1.885058            9.769403             5.855998
| 64>   H                    : -2.593840            8.207868             5.831886
| 65>   C                      -6.076476            10.396994            8.572423
| 66>   O                      -4.913337            11.136352            8.302519
| 67>   H                      -4.968444            12.080275            8.375493
| 68>   H                      -6.294389            9.678972             7.724420
| 69>   H                      -6.081936            9.823034             9.605426
| 70>   H                      -6.905947            11.125597            8.466702
| 71> *
| 72>
| 73>                          ****END OF INPUT****
 Total Charge           Charge          ....    0
 Multiplicity           Mult            ....    1
 Number of Electrons    NEL             ....   36
Dispersion correction           -0.001682942
FINAL SINGLE POINT ENERGY      -231.458799072693
Dispersion correction           -0.000237326
FINAL SINGLE POINT ENERGY      -115.735069169577

CARTESIAN COORDINATES (ANGSTROEM)
---------------------------------
  C     -2.795325    9.217840    5.555766
  O     -3.946272    9.686863    6.213946
  H     -3.969267    9.351075    7.120477
  H     -2.991524    9.209093    4.464861
  H     -1.885058    9.769403    5.855998
  H     -2.593840    8.207868    5.831886
  C     -6.076476   10.396994    8.572423
  O     -4.913337   11.136352    8.302519
  H     -4.968444   12.080275    8.375493
  H     -6.294389    9.678972    7.724420
  H     -6.081936    9.823034    9.605426
  H     -6.905947   11.125597    8.466702

 Multiplicity           Mult            ....    1
 Number of Electrons    NEL             ....   18
 Basis Dimension        Dim             ....  172

ORBITAL ENERGIES
----------------

  NO   OCC          E(Eh)            E(eV)
   0   2.0000     -19.226322      -523.1748
   1   2.0000     -10.329482      -281.0795
   2   2.0000      -1.136871       -30.9358
   3   2.0000      -0.790980       -21.5237
   4   2.0000      -0.613746       -16.7009
   5   2.0000      -0.536754       -14.6058
   6   2.0000      -0.527746       -14.3607
   7   2.0000      -0.412375       -11.2213
   8   2.0000      -0.373595       -10.1660
   9   0.0000       0.097409         2.6506
  10   0.0000       0.118832         3.2336
  11   0.0000       0.144525         3.9327
  12   0.0000       0.185232         5.0404
  13   0.0000       0.196755         5.3540

MULLIKEN ATOMIC CHARGES
-----------------------
   0 C :   -0.002261
   1 O :    0.003202
   2 H :   -0.000934
   3 H :   -0.000028
   4 H :    0.000114
   5 H :    0.000074
   6 C :   -0.154657
   7 O :   -0.491025
   8 H :    0.320782
   9 H :    0.116518
  10 H :    0.106025
  11 H :    0.102190
Sum of atomic charges:    0.0000000

LOEWDIN ATOMIC CHARGES
----------------------
   0 C :   -0.001303
   1 O :   -0.013743
   2 H :   -0.012956
   3 H :   -0.000032
   4 H :   -0.000091
   5 H :   -0.000019
   6 C :   -0.400848
   7 O :   -0.051757
   8 H :    0.159410
   9 H :    0.110480
  10 H :    0.111806
  11 H :    0.099053

  Mayer bond orders larger than 0.1
B(  6-C ,  7-O ) :   0.9959 B(  6-C ,  9-H ) :   0.9711 B(  6-C , 10-H ) :   0.9599
B(  6-C , 11-H ) :   0.9883 B(  7-O ,  8-H ) :   0.8922

Dispersion correction           -0.000271579
FINAL SINGLE POINT ENERGY      -115.725183395588

DIPOLE MOMENT
-------------
                                X             Y             Z
Electronic contribution:      1.60556       0.83859      -0.28361
Nuclear contribution   :     -2.12561      -0.46198       0.40731
                        -----------------------------------------
Total Dipole Moment    :     -0.52005       0.37661       0.12370
                        -----------------------------------------
Magnitude (a.u.)       :      0.65390
Magnitude (Debye)      :      1.66209

Rotational constants in cm-1:     4.144388     0.814905     0.800830
Rotational constants in MHz : 124245.629511 24430.222529 24008.288139

                             ****ORCA TERMINATED NORMALLY****
TOTAL RUN TIME: 0 days 0 hours 5 minutes 51 seconds 826 msec
