                         Program Version 4.1.2  - RELEASE  -
|  1> #Run DFT-D3 single point of the dimer
|  2> ! wB97X-D3 def2-TZVP TIGHTSCF CHELPG PMODEL PAL8
|  3>
|  4> %base "9-91_DFT_AB"
|  5>
|  6> %scf
|  7> MaxIter 1000
|  8> end
|  9>
| 10> * xyz 0 1
| 11>   C                      -2.747217            -1.439285            7.215734
| 12>   O                      -3.661565            -2.257749            7.941439
| 13>   H                      -4.087411            -2.914877            7.304557
| 14>   H                      -1.744539            -1.863552            7.165893
| 15>   H                      -3.187766            -1.140830            6.244377
| 16>   H                      -2.642980            -0.476722            7.720025
| 17>   C                      -7.771424            0.982085             7.289678
| 18>   O                      -9.054196            0.369781             7.319152
| 19>   H                      -8.995162            -0.225414            6.610430
| 20>   H                      -6.929032            0.295806             7.335867
| 21>   H                      -7.578902            1.617215             6.425651
| 22>   H                      -7.614184            1.661743             8.103123
| 23> *
| 24>
| 25> #Run DFT-D3 single point of the molecule with dimer basis set
| 26> $new_job
| 27> %base "9-91_DFT_A"
| 28> ! wB97X-D3 def2-TZVP TIGHTSCF CHELPG PMODEL
| 29>
| 30> %scf
| 31> MaxIter 1000
| 32> end
| 33>
| 34> * xyz 0 1
| 35>   C                      -2.747217            -1.439285            7.215734
| 36>   O                      -3.661565            -2.257749            7.941439
| 37>   H                      -4.087411            -2.914877            7.304557
| 38>   H                      -1.744539            -1.863552            7.165893
| 39>   H                      -3.187766            -1.140830            6.244377
| 40>   H                      -2.642980            -0.476722            7.720025
| 41>   C                    : -7.771424            0.982085             7.289678
| 42>   O                    : -9.054196            0.369781             7.319152
| 43>   H                    : -8.995162            -0.225414            6.610430
| 44>   H                    : -6.929032            0.295806             7.335867
| 45>   H                    : -7.578902            1.617215             6.425651
| 46>   H                    : -7.614184            1.661743             8.103123
| 47> *
| 48>
| 49> #Run DFT-D3 single point of the particle with dimer basis set
| 50> $new_job
| 51> %base "9-91_DFT_B"
| 52> ! wB97X-D3 def2-TZVP TIGHTSCF CHELPG PMODEL
| 53>
| 54> %scf
| 55> MaxIter 1000
| 56> end
| 57>
| 58> * xyz 0 1
| 59>   C                    : -2.747217            -1.439285            7.215734
| 60>   O                    : -3.661565            -2.257749            7.941439
| 61>   H                    : -4.087411            -2.914877            7.304557
| 62>   H                    : -1.744539            -1.863552            7.165893
| 63>   H                    : -3.187766            -1.140830            6.244377
| 64>   H                    : -2.642980            -0.476722            7.720025
| 65>   C                      -7.771424            0.982085             7.289678
| 66>   O                      -9.054196            0.369781             7.319152
| 67>   H                      -8.995162            -0.225414            6.610430
| 68>   H                      -6.929032            0.295806             7.335867
| 69>   H                      -7.578902            1.617215             6.425651
| 70>   H                      -7.614184            1.661743             8.103123
| 71> *
| 72>
| 73>                          ****END OF INPUT****
 Total Charge           Charge          ....    0
 Multiplicity           Mult            ....    1
 Number of Electrons    NEL             ....   36
Dispersion correction           -0.000719191
FINAL SINGLE POINT ENERGY      -231.464939912205
Dispersion correction           -0.000258130
FINAL SINGLE POINT ENERGY      -115.732464735278

CARTESIAN COORDINATES (ANGSTROEM)
---------------------------------
  C     -2.747217   -1.439285    7.215734
  O     -3.661565   -2.257749    7.941439
  H     -4.087411   -2.914877    7.304557
  H     -1.744539   -1.863552    7.165893
  H     -3.187766   -1.140830    6.244377
  H     -2.642980   -0.476722    7.720025
  C     -7.771424    0.982085    7.289678
  O     -9.054196    0.369781    7.319152
  H     -8.995162   -0.225414    6.610430
  H     -6.929032    0.295806    7.335867
  H     -7.578902    1.617215    6.425651
  H     -7.614184    1.661743    8.103123

 Multiplicity           Mult            ....    1
 Number of Electrons    NEL             ....   18
 Basis Dimension        Dim             ....  172

ORBITAL ENERGIES
----------------

  NO   OCC          E(Eh)            E(eV)
   0   2.0000     -19.233910      -523.3813
   1   2.0000     -10.310566      -280.5648
   2   2.0000      -1.146920       -31.2093
   3   2.0000      -0.802347       -21.8330
   4   2.0000      -0.615469       -16.7478
   5   2.0000      -0.539370       -14.6770
   6   2.0000      -0.529653       -14.4126
   7   2.0000      -0.443823       -12.0770
   8   2.0000      -0.378693       -10.3048
   9   0.0000       0.079688         2.1684
  10   0.0000       0.120503         3.2790
  11   0.0000       0.150197         4.0871
  12   0.0000       0.161394         4.3917
  13   0.0000       0.185717         5.0536

MULLIKEN ATOMIC CHARGES
-----------------------
   0 C :   -0.000030
   1 O :    0.000003
   2 H :   -0.000013
   3 H :   -0.000005
   4 H :   -0.000043
   5 H :   -0.000018
   6 C :   -0.181572
   7 O :   -0.454928
   8 H :    0.309228
   9 H :    0.103017
  10 H :    0.103774
  11 H :    0.120587
Sum of atomic charges:   -0.0000000

LOEWDIN ATOMIC CHARGES
----------------------
   0 C :   -0.000129
   1 O :   -0.000024
   2 H :   -0.000022
   3 H :   -0.000003
   4 H :   -0.000035
   5 H :   -0.000015
   6 C :   -0.385342
   7 O :   -0.058263
   8 H :    0.151366
   9 H :    0.093678
  10 H :    0.094450
  11 H :    0.104340

  Mayer bond orders larger than 0.1
B(  6-C ,  7-O ) :   1.0046 B(  6-C ,  9-H ) :   0.9766 B(  6-C , 10-H ) :   0.9736
B(  6-C , 11-H ) :   0.9765 B(  7-O ,  8-H ) :   0.9103

Dispersion correction           -0.000241124
FINAL SINGLE POINT ENERGY      -115.732335425644

DIPOLE MOMENT
-------------
                                X             Y             Z
Electronic contribution:     -1.82526      -0.79339       0.16983
Nuclear contribution   :      2.36824       0.66821      -0.61536
                        -----------------------------------------
Total Dipole Moment    :      0.54299      -0.12518      -0.44553
                        -----------------------------------------
Magnitude (a.u.)       :      0.71344
Magnitude (Debye)      :      1.81342

Rotational constants in cm-1:     4.553273     0.819208     0.792254
Rotational constants in MHz : 136503.693973 24559.232519 23751.171700

                             ****ORCA TERMINATED NORMALLY****
TOTAL RUN TIME: 0 days 0 hours 0 minutes 33 seconds 399 msec
