                         Program Version 4.1.2  - RELEASE  -
|  1> #Run DFT-D3 single point of the dimer
|  2> ! wB97X-D3 def2-TZVP TIGHTSCF CHELPG PMODEL PAL8
|  3>
|  4> %base "10-21_DFT_AB"
|  5>
|  6> %scf
|  7> MaxIter 1000
|  8> end
|  9>
| 10> * xyz 0 1
| 11>   C                      9.584878             9.486159             -2.318972
| 12>   O                      8.406559             10.126476            -2.024404
| 13>   H                      7.795485             9.747395             -2.700372
| 14>   H                      9.401391             8.478447             -2.650509
| 15>   H                      10.200250            10.016750            -3.046298
| 16>   H                      10.196088            9.389947             -1.386170
| 17>   C                      6.828038             6.820116             -1.588605
| 18>   O                      6.740666             6.658382             -3.063577
| 19>   H                      5.840426             6.698332             -3.325248
| 20>   H                      6.767607             7.901444             -1.302240
| 21>   H                      6.059944             6.430850             -1.023919
| 22>   H                      7.826103             6.483436             -1.234028
| 23> *
| 24>
| 25> #Run DFT-D3 single point of the molecule with dimer basis set
| 26> $new_job
| 27> %base "10-21_DFT_A"
| 28> ! wB97X-D3 def2-TZVP TIGHTSCF CHELPG PMODEL
| 29>
| 30> %scf
| 31> MaxIter 1000
| 32> end
| 33>
| 34> * xyz 0 1
| 35>   C                      9.584878             9.486159             -2.318972
| 36>   O                      8.406559             10.126476            -2.024404
| 37>   H                      7.795485             9.747395             -2.700372
| 38>   H                      9.401391             8.478447             -2.650509
| 39>   H                      10.200250            10.016750            -3.046298
| 40>   H                      10.196088            9.389947             -1.386170
| 41>   C                    : 6.828038             6.820116             -1.588605
| 42>   O                    : 6.740666             6.658382             -3.063577
| 43>   H                    : 5.840426             6.698332             -3.325248
| 44>   H                    : 6.767607             7.901444             -1.302240
| 45>   H                    : 6.059944             6.430850             -1.023919
| 46>   H                    : 7.826103             6.483436             -1.234028
| 47> *
| 48>
| 49> #Run DFT-D3 single point of the particle with dimer basis set
| 50> $new_job
| 51> %base "10-21_DFT_B"
| 52> ! wB97X-D3 def2-TZVP TIGHTSCF CHELPG PMODEL
| 53>
| 54> %scf
| 55> MaxIter 1000
| 56> end
| 57>
| 58> * xyz 0 1
| 59>   C                    : 9.584878             9.486159             -2.318972
| 60>   O                    : 8.406559             10.126476            -2.024404
| 61>   H                    : 7.795485             9.747395             -2.700372
| 62>   H                    : 9.401391             8.478447             -2.650509
| 63>   H                    : 10.200250            10.016750            -3.046298
| 64>   H                    : 10.196088            9.389947             -1.386170
| 65>   C                      6.828038             6.820116             -1.588605
| 66>   O                      6.740666             6.658382             -3.063577
| 67>   H                      5.840426             6.698332             -3.325248
| 68>   H                      6.767607             7.901444             -1.302240
| 69>   H                      6.059944             6.430850             -1.023919
| 70>   H                      7.826103             6.483436             -1.234028
| 71> *
| 72>
| 73>                          ****END OF INPUT****
 Total Charge           Charge          ....    0
 Multiplicity           Mult            ....    1
 Number of Electrons    NEL             ....   36
Dispersion correction           -0.002033472
FINAL SINGLE POINT ENERGY      -231.463436196051
Dispersion correction           -0.000216259
FINAL SINGLE POINT ENERGY      -115.732710905388

CARTESIAN COORDINATES (ANGSTROEM)
---------------------------------
  C      9.584878    9.486159   -2.318972
  O      8.406559   10.126476   -2.024404
  H      7.795485    9.747395   -2.700372
  H      9.401391    8.478447   -2.650509
  H     10.200250   10.016750   -3.046298
  H     10.196088    9.389947   -1.386170
  C      6.828038    6.820116   -1.588605
  O      6.740666    6.658382   -3.063577
  H      5.840426    6.698332   -3.325248
  H      6.767607    7.901444   -1.302240
  H      6.059944    6.430850   -1.023919
  H      7.826103    6.483436   -1.234028

 Multiplicity           Mult            ....    1
 Number of Electrons    NEL             ....   18
 Basis Dimension        Dim             ....  172

ORBITAL ENERGIES
----------------

  NO   OCC          E(Eh)            E(eV)
   0   2.0000     -19.230529      -523.2893
   1   2.0000     -10.318189      -280.7722
   2   2.0000      -1.120702       -30.4959
   3   2.0000      -0.805290       -21.9131
   4   2.0000      -0.610630       -16.6161
   5   2.0000      -0.523659       -14.2495
   6   2.0000      -0.519312       -14.1312
   7   2.0000      -0.447174       -12.1682
   8   2.0000      -0.374739       -10.1972
   9   0.0000       0.091860         2.4996
  10   0.0000       0.123941         3.3726
  11   0.0000       0.149052         4.0559
  12   0.0000       0.167125         4.5477
  13   0.0000       0.192173         5.2293

MULLIKEN ATOMIC CHARGES
-----------------------
   0 C :   -0.001224
   1 O :    0.000756
   2 H :    0.000082
   3 H :    0.000063
   4 H :    0.000059
   5 H :    0.000010
   6 C :   -0.186802
   7 O :   -0.480132
   8 H :    0.307449
   9 H :    0.102251
  10 H :    0.132644
  11 H :    0.124844
Sum of atomic charges:   -0.0000000

LOEWDIN ATOMIC CHARGES
----------------------
   0 C :   -0.002580
   1 O :   -0.001791
   2 H :   -0.002746
   3 H :   -0.001529
   4 H :   -0.000016
   5 H :   -0.000072
   6 C :   -0.331332
   7 O :   -0.109394
   8 H :    0.147866
   9 H :    0.104406
  10 H :    0.082193
  11 H :    0.114995

  Mayer bond orders larger than 0.1
B(  6-C ,  7-O ) :   0.9919 B(  6-C ,  9-H ) :   0.9750 B(  6-C , 10-H ) :   0.9665
B(  6-C , 11-H ) :   0.9777 B(  7-O ,  8-H ) :   0.9064

Dispersion correction           -0.000285386
FINAL SINGLE POINT ENERGY      -115.726917989318

DIPOLE MOMENT
-------------
                                X             Y             Z
Electronic contribution:     -0.06037      -0.40569      -1.83151
Nuclear contribution   :     -0.50747       0.49333       2.31760
                        -----------------------------------------
Total Dipole Moment    :     -0.56784       0.08764       0.48608
                        -----------------------------------------
Magnitude (a.u.)       :      0.75259
Magnitude (Debye)      :      1.91294

Rotational constants in cm-1:     4.469651     0.762654     0.731481
Rotational constants in MHz : 133996.777824 22863.776767 21929.258203

                             ****ORCA TERMINATED NORMALLY****
TOTAL RUN TIME: 0 days 0 hours 1 minutes 9 seconds 773 msec
