                         Program Version 4.1.2  - RELEASE  -
|  1> #Run DFT-D3 single point of the dimer
|  2> ! wB97X-D3 def2-TZVP TIGHTSCF CHELPG PMODEL PAL8
|  3>
|  4> %base "18-101_DFT_AB"
|  5>
|  6> %scf
|  7> MaxIter 1000
|  8> end
|  9>
| 10> * xyz 0 1
| 11>   C                      6.430916             -8.552411            -1.489255
| 12>   O                      6.868516             -9.819716            -2.040261
| 13>   H                      7.680427             -9.616635            -2.544591
| 14>   H                      5.535664             -8.670275            -0.881404
| 15>   H                      7.250177             -8.131062            -0.814206
| 16>   H                      6.147152             -7.774020            -2.250141
| 17>   C                      5.921295             -4.081196            0.876660
| 18>   O                      4.730588             -4.114347            1.648594
| 19>   H                      5.008761             -3.875728            2.544875
| 20>   H                      6.746514             -4.643051            1.365424
| 21>   H                      5.650048             -4.427360            -0.147915
| 22>   H                      6.249141             -3.052527            0.726825
| 23> *
| 24>
| 25> #Run DFT-D3 single point of the molecule with dimer basis set
| 26> $new_job
| 27> %base "18-101_DFT_A"
| 28> ! wB97X-D3 def2-TZVP TIGHTSCF CHELPG PMODEL
| 29>
| 30> %scf
| 31> MaxIter 1000
| 32> end
| 33>
| 34> * xyz 0 1
| 35>   C                      6.430916             -8.552411            -1.489255
| 36>   O                      6.868516             -9.819716            -2.040261
| 37>   H                      7.680427             -9.616635            -2.544591
| 38>   H                      5.535664             -8.670275            -0.881404
| 39>   H                      7.250177             -8.131062            -0.814206
| 40>   H                      6.147152             -7.774020            -2.250141
| 41>   C                    : 5.921295             -4.081196            0.876660
| 42>   O                    : 4.730588             -4.114347            1.648594
| 43>   H                    : 5.008761             -3.875728            2.544875
| 44>   H                    : 6.746514             -4.643051            1.365424
| 45>   H                    : 5.650048             -4.427360            -0.147915
| 46>   H                    : 6.249141             -3.052527            0.726825
| 47> *
| 48>
| 49> #Run DFT-D3 single point of the particle with dimer basis set
| 50> $new_job
| 51> %base "18-101_DFT_B"
| 52> ! wB97X-D3 def2-TZVP TIGHTSCF CHELPG PMODEL
| 53>
| 54> %scf
| 55> MaxIter 1000
| 56> end
| 57>
| 58> * xyz 0 1
| 59>   C                    : 6.430916             -8.552411            -1.489255
| 60>   O                    : 6.868516             -9.819716            -2.040261
| 61>   H                    : 7.680427             -9.616635            -2.544591
| 62>   H                    : 5.535664             -8.670275            -0.881404
| 63>   H                    : 7.250177             -8.131062            -0.814206
| 64>   H                    : 6.147152             -7.774020            -2.250141
| 65>   C                      5.921295             -4.081196            0.876660
| 66>   O                      4.730588             -4.114347            1.648594
| 67>   H                      5.008761             -3.875728            2.544875
| 68>   H                      6.746514             -4.643051            1.365424
| 69>   H                      5.650048             -4.427360            -0.147915
| 70>   H                      6.249141             -3.052527            0.726825
| 71> *
| 72>
| 73>                          ****END OF INPUT****
 Total Charge           Charge          ....    0
 Multiplicity           Mult            ....    1
 Number of Electrons    NEL             ....   36
Dispersion correction           -0.000769867
FINAL SINGLE POINT ENERGY      -231.468374512316
Dispersion correction           -0.000270722
FINAL SINGLE POINT ENERGY      -115.733156077995

CARTESIAN COORDINATES (ANGSTROEM)
---------------------------------
  C      6.430916   -8.552411   -1.489255
  O      6.868516   -9.819716   -2.040261
  H      7.680427   -9.616635   -2.544591
  H      5.535664   -8.670275   -0.881404
  H      7.250177   -8.131062   -0.814206
  H      6.147152   -7.774020   -2.250141
  C      5.921295   -4.081196    0.876660
  O      4.730588   -4.114347    1.648594
  H      5.008761   -3.875728    2.544875
  H      6.746514   -4.643051    1.365424
  H      5.650048   -4.427360   -0.147915
  H      6.249141   -3.052527    0.726825

 Multiplicity           Mult            ....    1
 Number of Electrons    NEL             ....   18
 Basis Dimension        Dim             ....  172

ORBITAL ENERGIES
----------------

  NO   OCC          E(Eh)            E(eV)
   0   2.0000     -19.230845      -523.2979
   1   2.0000     -10.316900      -280.7371
   2   2.0000      -1.134837       -30.8805
   3   2.0000      -0.790154       -21.5012
   4   2.0000      -0.608746       -16.5648
   5   2.0000      -0.541792       -14.7429
   6   2.0000      -0.520393       -14.1606
   7   2.0000      -0.438819       -11.9409
   8   2.0000      -0.371972       -10.1219
   9   0.0000       0.085180         2.3179
  10   0.0000       0.113533         3.0894
  11   0.0000       0.146433         3.9847
  12   0.0000       0.169589         4.6147
  13   0.0000       0.184003         5.0070

MULLIKEN ATOMIC CHARGES
-----------------------
   0 C :    0.000137
   1 O :   -0.000001
   2 H :   -0.000000
   3 H :   -0.000017
   4 H :   -0.000143
   5 H :   -0.000109
   6 C :   -0.164230
   7 O :   -0.468960
   8 H :    0.312721
   9 H :    0.103042
  10 H :    0.117521
  11 H :    0.100038
Sum of atomic charges:   -0.0000000

LOEWDIN ATOMIC CHARGES
----------------------
   0 C :   -0.000118
   1 O :   -0.000001
   2 H :   -0.000000
   3 H :   -0.000010
   4 H :   -0.000072
   5 H :   -0.000057
   6 C :   -0.388858
   7 O :   -0.086636
   8 H :    0.173013
   9 H :    0.097886
  10 H :    0.113376
  11 H :    0.091478

  Mayer bond orders larger than 0.1
B(  6-C ,  7-O ) :   1.0000 B(  6-C ,  9-H ) :   0.9752 B(  6-C , 10-H ) :   0.9745
B(  6-C , 11-H ) :   0.9742 B(  7-O ,  8-H ) :   0.9007

Dispersion correction           -0.000232374
FINAL SINGLE POINT ENERGY      -115.734927392854

DIPOLE MOMENT
-------------
                                X             Y             Z
Electronic contribution:     -1.56426      -0.15288       0.88529
Nuclear contribution   :      2.19712       0.32918      -0.63535
                        -----------------------------------------
Total Dipole Moment    :      0.63286       0.17630       0.24994
                        -----------------------------------------
Magnitude (a.u.)       :      0.70290
Magnitude (Debye)      :      1.78663

Rotational constants in cm-1:     4.128286     0.836209     0.796860
Rotational constants in MHz : 123762.912833 25068.901672 23889.266856

                             ****ORCA TERMINATED NORMALLY****
TOTAL RUN TIME: 0 days 0 hours 0 minutes 58 seconds 524 msec
