                         Program Version 4.1.2  - RELEASE  -
|  1> #Run DFT-D3 single point of the dimer
|  2> ! wB97X-D3 def2-TZVP TIGHTSCF CHELPG PMODEL PAL8
|  3>
|  4> %base "9-172_DFT_AB"
|  5>
|  6> %scf
|  7> MaxIter 1000
|  8> end
|  9>
| 10> * xyz 0 1
| 11>   C                      3.115324             0.584672             11.307354
| 12>   O                      2.258958             1.696578             11.360163
| 13>   H                      1.846589             1.754241             10.442208
| 14>   H                      3.772244             0.691456             10.407225
| 15>   H                      3.689097             0.460699             12.247484
| 16>   H                      2.588582             -0.338222            11.046331
| 17>   C                      1.134466             1.669467             7.854700
| 18>   O                      0.471927             2.156405             8.954086
| 19>   H                      -0.458943            1.970741             8.862738
| 20>   H                      1.134125             0.515744             7.875608
| 21>   H                      0.764826             1.840313             6.822769
| 22>   H                      2.204869             1.978863             7.814812
| 23> *
| 24>
| 25> #Run DFT-D3 single point of the molecule with dimer basis set
| 26> $new_job
| 27> %base "9-172_DFT_A"
| 28> ! wB97X-D3 def2-TZVP TIGHTSCF CHELPG PMODEL
| 29>
| 30> %scf
| 31> MaxIter 1000
| 32> end
| 33>
| 34> * xyz 0 1
| 35>   C                      3.115324             0.584672             11.307354
| 36>   O                      2.258958             1.696578             11.360163
| 37>   H                      1.846589             1.754241             10.442208
| 38>   H                      3.772244             0.691456             10.407225
| 39>   H                      3.689097             0.460699             12.247484
| 40>   H                      2.588582             -0.338222            11.046331
| 41>   C                    : 1.134466             1.669467             7.854700
| 42>   O                    : 0.471927             2.156405             8.954086
| 43>   H                    : -0.458943            1.970741             8.862738
| 44>   H                    : 1.134125             0.515744             7.875608
| 45>   H                    : 0.764826             1.840313             6.822769
| 46>   H                    : 2.204869             1.978863             7.814812
| 47> *
| 48>
| 49> #Run DFT-D3 single point of the particle with dimer basis set
| 50> $new_job
| 51> %base "9-172_DFT_B"
| 52> ! wB97X-D3 def2-TZVP TIGHTSCF CHELPG PMODEL
| 53>
| 54> %scf
| 55> MaxIter 1000
| 56> end
| 57>
| 58> * xyz 0 1
| 59>   C                    : 3.115324             0.584672             11.307354
| 60>   O                    : 2.258958             1.696578             11.360163
| 61>   H                    : 1.846589             1.754241             10.442208
| 62>   H                    : 3.772244             0.691456             10.407225
| 63>   H                    : 3.689097             0.460699             12.247484
| 64>   H                    : 2.588582             -0.338222            11.046331
| 65>   C                      1.134466             1.669467             7.854700
| 66>   O                      0.471927             2.156405             8.954086
| 67>   H                      -0.458943            1.970741             8.862738
| 68>   H                      1.134125             0.515744             7.875608
| 69>   H                      0.764826             1.840313             6.822769
| 70>   H                      2.204869             1.978863             7.814812
| 71> *
| 72>
| 73>                          ****END OF INPUT****
 Total Charge           Charge          ....    0
 Multiplicity           Mult            ....    1
 Number of Electrons    NEL             ....   36
Dispersion correction           -0.001866182
FINAL SINGLE POINT ENERGY      -231.467560805848
Dispersion correction           -0.000225308
FINAL SINGLE POINT ENERGY      -115.731062815418

CARTESIAN COORDINATES (ANGSTROEM)
---------------------------------
  C      3.115324    0.584672   11.307354
  O      2.258958    1.696578   11.360163
  H      1.846589    1.754241   10.442208
  H      3.772244    0.691456   10.407225
  H      3.689097    0.460699   12.247484
  H      2.588582   -0.338222   11.046331
  C      1.134466    1.669467    7.854700
  O      0.471927    2.156405    8.954086
  H     -0.458943    1.970741    8.862738
  H      1.134125    0.515744    7.875608
  H      0.764826    1.840313    6.822769
  H      2.204869    1.978863    7.814812

 Multiplicity           Mult            ....    1
 Number of Electrons    NEL             ....   18
 Basis Dimension        Dim             ....  172

ORBITAL ENERGIES
----------------

  NO   OCC          E(Eh)            E(eV)
   0   2.0000     -19.237652      -523.4831
   1   2.0000     -10.320606      -280.8380
   2   2.0000      -1.154824       -31.4244
   3   2.0000      -0.791828       -21.5467
   4   2.0000      -0.626864       -17.0578
   5   2.0000      -0.537863       -14.6360
   6   2.0000      -0.527403       -14.3514
   7   2.0000      -0.434603       -11.8261
   8   2.0000      -0.369287       -10.0488
   9   0.0000       0.094209         2.5636
  10   0.0000       0.123380         3.3573
  11   0.0000       0.148208         4.0330
  12   0.0000       0.183863         5.0032
  13   0.0000       0.189773         5.1640

MULLIKEN ATOMIC CHARGES
-----------------------
   0 C :    0.000067
   1 O :   -0.001725
   2 H :   -0.001154
   3 H :   -0.000377
   4 H :    0.000004
   5 H :   -0.000378
   6 C :   -0.181940
   7 O :   -0.455446
   8 H :    0.317894
   9 H :    0.091612
  10 H :    0.107503
  11 H :    0.123941
Sum of atomic charges:    0.0000000

LOEWDIN ATOMIC CHARGES
----------------------
   0 C :   -0.001028
   1 O :   -0.003365
   2 H :   -0.028929
   3 H :   -0.000313
   4 H :   -0.000013
   5 H :   -0.000132
   6 C :   -0.434794
   7 O :   -0.011074
   8 H :    0.171306
   9 H :    0.099044
  10 H :    0.095470
  11 H :    0.113826

  Mayer bond orders larger than 0.1
B(  6-C ,  7-O ) :   0.9980 B(  6-C ,  9-H ) :   0.9818 B(  6-C , 10-H ) :   0.9594
B(  6-C , 11-H ) :   0.9742 B(  7-O ,  8-H ) :   0.8932

Dispersion correction           -0.000259650
FINAL SINGLE POINT ENERGY      -115.730188227567

DIPOLE MOMENT
-------------
                                X             Y             Z
Electronic contribution:     -0.86995       0.95148       1.62344
Nuclear contribution   :      0.50460      -1.21389      -2.08700
                        -----------------------------------------
Total Dipole Moment    :     -0.36535      -0.26241      -0.46356
                        -----------------------------------------
Magnitude (a.u.)       :      0.64593
Magnitude (Debye)      :      1.64183

Rotational constants in cm-1:     4.333959     0.849379     0.814812
Rotational constants in MHz : 129928.827605 25463.737849 24427.434767

                             ****ORCA TERMINATED NORMALLY****
TOTAL RUN TIME: 0 days 0 hours 0 minutes 46 seconds 743 msec
