                         Program Version 4.1.2  - RELEASE  -
|  1> #Run DFT-D3 single point of the dimer
|  2> ! wB97X-D3 def2-TZVP TIGHTSCF CHELPG PMODEL PAL8
|  3>
|  4> %base "20-89_DFT_AB"
|  5>
|  6> %scf
|  7> MaxIter 1000
|  8> end
|  9>
| 10> * xyz 0 1
| 11>   C                      -5.619514            -0.230082            9.710258
| 12>   O                      -5.919557            0.391140             10.949691
| 13>   H                      -5.148180            1.017697             11.036180
| 14>   H                      -6.402927            -0.922974            9.360529
| 15>   H                      -5.635728            0.617874             8.986753
| 16>   H                      -4.641547            -0.829193            9.755749
| 17>   C                      -10.364995           -2.695235            9.876491
| 18>   O                      -9.169743            -1.905109            9.991197
| 19>   H                      -9.379466            -1.032003            10.160965
| 20>   H                      -10.850461           -2.909393            10.837082
| 21>   H                      -11.023904           -2.325036            9.040922
| 22>   H                      -10.088074           -3.703926            9.554288
| 23> *
| 24>
| 25> #Run DFT-D3 single point of the molecule with dimer basis set
| 26> $new_job
| 27> %base "20-89_DFT_A"
| 28> ! wB97X-D3 def2-TZVP TIGHTSCF CHELPG PMODEL
| 29>
| 30> %scf
| 31> MaxIter 1000
| 32> end
| 33>
| 34> * xyz 0 1
| 35>   C                      -5.619514            -0.230082            9.710258
| 36>   O                      -5.919557            0.391140             10.949691
| 37>   H                      -5.148180            1.017697             11.036180
| 38>   H                      -6.402927            -0.922974            9.360529
| 39>   H                      -5.635728            0.617874             8.986753
| 40>   H                      -4.641547            -0.829193            9.755749
| 41>   C                    : -10.364995           -2.695235            9.876491
| 42>   O                    : -9.169743            -1.905109            9.991197
| 43>   H                    : -9.379466            -1.032003            10.160965
| 44>   H                    : -10.850461           -2.909393            10.837082
| 45>   H                    : -11.023904           -2.325036            9.040922
| 46>   H                    : -10.088074           -3.703926            9.554288
| 47> *
| 48>
| 49> #Run DFT-D3 single point of the particle with dimer basis set
| 50> $new_job
| 51> %base "20-89_DFT_B"
| 52> ! wB97X-D3 def2-TZVP TIGHTSCF CHELPG PMODEL
| 53>
| 54> %scf
| 55> MaxIter 1000
| 56> end
| 57>
| 58> * xyz 0 1
| 59>   C                    : -5.619514            -0.230082            9.710258
| 60>   O                    : -5.919557            0.391140             10.949691
| 61>   H                    : -5.148180            1.017697             11.036180
| 62>   H                    : -6.402927            -0.922974            9.360529
| 63>   H                    : -5.635728            0.617874             8.986753
| 64>   H                    : -4.641547            -0.829193            9.755749
| 65>   C                      -10.364995           -2.695235            9.876491
| 66>   O                      -9.169743            -1.905109            9.991197
| 67>   H                      -9.379466            -1.032003            10.160965
| 68>   H                      -10.850461           -2.909393            10.837082
| 69>   H                      -11.023904           -2.325036            9.040922
| 70>   H                      -10.088074           -3.703926            9.554288
| 71> *
| 72>
| 73>                          ****END OF INPUT****
 Total Charge           Charge          ....    0
 Multiplicity           Mult            ....    1
 Number of Electrons    NEL             ....   36
Dispersion correction           -0.001114313
FINAL SINGLE POINT ENERGY      -231.461111012427
Dispersion correction           -0.000228326
FINAL SINGLE POINT ENERGY      -115.728446736196

CARTESIAN COORDINATES (ANGSTROEM)
---------------------------------
  C     -5.619514   -0.230082    9.710258
  O     -5.919557    0.391140   10.949691
  H     -5.148180    1.017697   11.036180
  H     -6.402927   -0.922974    9.360529
  H     -5.635728    0.617874    8.986753
  H     -4.641547   -0.829193    9.755749
  C    -10.364995   -2.695235    9.876491
  O     -9.169743   -1.905109    9.991197
  H     -9.379466   -1.032003   10.160965
  H    -10.850461   -2.909393   10.837082
  H    -11.023904   -2.325036    9.040922
  H    -10.088074   -3.703926    9.554288

 Multiplicity           Mult            ....    1
 Number of Electrons    NEL             ....   18
 Basis Dimension        Dim             ....  172

ORBITAL ENERGIES
----------------

  NO   OCC          E(Eh)            E(eV)
   0   2.0000     -19.226715      -523.1855
   1   2.0000     -10.319990      -280.8212
   2   2.0000      -1.137825       -30.9618
   3   2.0000      -0.801224       -21.8024
   4   2.0000      -0.607652       -16.5351
   5   2.0000      -0.547125       -14.8880
   6   2.0000      -0.522501       -14.2180
   7   2.0000      -0.426327       -11.6009
   8   2.0000      -0.380113       -10.3434
   9   0.0000       0.093180         2.5356
  10   0.0000       0.124354         3.3838
  11   0.0000       0.149980         4.0812
  12   0.0000       0.177395         4.8272
  13   0.0000       0.198409         5.3990

MULLIKEN ATOMIC CHARGES
-----------------------
   0 C :    0.001478
   1 O :   -0.000017
   2 H :    0.000003
   3 H :   -0.006087
   4 H :   -0.000018
   5 H :   -0.000042
   6 C :   -0.170103
   7 O :   -0.467372
   8 H :    0.307135
   9 H :    0.108279
  10 H :    0.109188
  11 H :    0.117555
Sum of atomic charges:   -0.0000000

LOEWDIN ATOMIC CHARGES
----------------------
   0 C :   -0.001504
   1 O :   -0.000075
   2 H :   -0.000004
   3 H :   -0.004187
   4 H :   -0.000010
   5 H :   -0.000005
   6 C :   -0.373001
   7 O :   -0.066378
   8 H :    0.134403
   9 H :    0.097520
  10 H :    0.104584
  11 H :    0.108658

  Mayer bond orders larger than 0.1
B(  6-C ,  7-O ) :   0.9974 B(  6-C ,  9-H ) :   0.9681 B(  6-C , 10-H ) :   0.9751
B(  6-C , 11-H ) :   0.9766 B(  7-O ,  8-H ) :   0.9085

Dispersion correction           -0.000270108
FINAL SINGLE POINT ENERGY      -115.731144547378

DIPOLE MOMENT
-------------
                                X             Y             Z
Electronic contribution:      1.51005       1.01877       0.20150
Nuclear contribution   :     -2.13400      -0.81027      -0.14253
                        -----------------------------------------
Total Dipole Moment    :     -0.62396       0.20850       0.05896
                        -----------------------------------------
Magnitude (a.u.)       :      0.66051
Magnitude (Debye)      :      1.67888

Rotational constants in cm-1:     4.360803     0.796098     0.783237
Rotational constants in MHz : 130733.574768 23866.416492 23480.869142

                             ****ORCA TERMINATED NORMALLY****
TOTAL RUN TIME: 0 days 0 hours 0 minutes 57 seconds 443 msec
