                         Program Version 4.1.2  - RELEASE  -
|  1> #Run DFT-D3 single point of the dimer
|  2> ! wB97X-D3 def2-TZVP TIGHTSCF CHELPG PMODEL PAL8
|  3>
|  4> %base "14-203_DFT_AB"
|  5>
|  6> %scf
|  7> MaxIter 1000
|  8> end
|  9>
| 10> * xyz 0 1
| 11>   C                      4.066986             -8.339112            6.248650
| 12>   O                      4.629297             -9.524087            5.705682
| 13>   H                      4.602639             -10.203734           6.382518
| 14>   H                      4.664604             -7.882240            6.979995
| 15>   H                      3.936144             -7.518399            5.467593
| 16>   H                      3.111295             -8.558080            6.600876
| 17>   C                      2.433431             -7.892769            3.021983
| 18>   O                      3.262621             -8.993162            3.226220
| 19>   H                      3.720007             -8.989525            4.070696
| 20>   H                      3.113623             -6.992147            3.041975
| 21>   H                      2.056161             -7.820688            2.025780
| 22>   H                      1.661224             -7.817917            3.813661
| 23> *
| 24>
| 25> #Run DFT-D3 single point of the molecule with dimer basis set
| 26> $new_job
| 27> %base "14-203_DFT_A"
| 28> ! wB97X-D3 def2-TZVP TIGHTSCF CHELPG PMODEL
| 29>
| 30> %scf
| 31> MaxIter 1000
| 32> end
| 33>
| 34> * xyz 0 1
| 35>   C                      4.066986             -8.339112            6.248650
| 36>   O                      4.629297             -9.524087            5.705682
| 37>   H                      4.602639             -10.203734           6.382518
| 38>   H                      4.664604             -7.882240            6.979995
| 39>   H                      3.936144             -7.518399            5.467593
| 40>   H                      3.111295             -8.558080            6.600876
| 41>   C                    : 2.433431             -7.892769            3.021983
| 42>   O                    : 3.262621             -8.993162            3.226220
| 43>   H                    : 3.720007             -8.989525            4.070696
| 44>   H                    : 3.113623             -6.992147            3.041975
| 45>   H                    : 2.056161             -7.820688            2.025780
| 46>   H                    : 1.661224             -7.817917            3.813661
| 47> *
| 48>
| 49> #Run DFT-D3 single point of the particle with dimer basis set
| 50> $new_job
| 51> %base "14-203_DFT_B"
| 52> ! wB97X-D3 def2-TZVP TIGHTSCF CHELPG PMODEL
| 53>
| 54> %scf
| 55> MaxIter 1000
| 56> end
| 57>
| 58> * xyz 0 1
| 59>   C                    : 4.066986             -8.339112            6.248650
| 60>   O                    : 4.629297             -9.524087            5.705682
| 61>   H                    : 4.602639             -10.203734           6.382518
| 62>   H                    : 4.664604             -7.882240            6.979995
| 63>   H                    : 3.936144             -7.518399            5.467593
| 64>   H                    : 3.111295             -8.558080            6.600876
| 65>   C                      2.433431             -7.892769            3.021983
| 66>   O                      3.262621             -8.993162            3.226220
| 67>   H                      3.720007             -8.989525            4.070696
| 68>   H                      3.113623             -6.992147            3.041975
| 69>   H                      2.056161             -7.820688            2.025780
| 70>   H                      1.661224             -7.817917            3.813661
| 71> *
| 72>
| 73>                          ****END OF INPUT****
 Total Charge           Charge          ....    0
 Multiplicity           Mult            ....    1
 Number of Electrons    NEL             ....   36
Dispersion correction           -0.002109007
FINAL SINGLE POINT ENERGY      -231.466321901143
Dispersion correction           -0.000234261
FINAL SINGLE POINT ENERGY      -115.731225502424

CARTESIAN COORDINATES (ANGSTROEM)
---------------------------------
  C      4.066986   -8.339112    6.248650
  O      4.629297   -9.524087    5.705682
  H      4.602639  -10.203734    6.382518
  H      4.664604   -7.882240    6.979995
  H      3.936144   -7.518399    5.467593
  H      3.111295   -8.558080    6.600876
  C      2.433431   -7.892769    3.021983
  O      3.262621   -8.993162    3.226220
  H      3.720007   -8.989525    4.070696
  H      3.113623   -6.992147    3.041975
  H      2.056161   -7.820688    2.025780
  H      1.661224   -7.817917    3.813661

 Multiplicity           Mult            ....    1
 Number of Electrons    NEL             ....   18
 Basis Dimension        Dim             ....  172

ORBITAL ENERGIES
----------------

  NO   OCC          E(Eh)            E(eV)
   0   2.0000     -19.226594      -523.1822
   1   2.0000     -10.315051      -280.6868
   2   2.0000      -1.138532       -30.9810
   3   2.0000      -0.796541       -21.6750
   4   2.0000      -0.611000       -16.6262
   5   2.0000      -0.551334       -15.0026
   6   2.0000      -0.531192       -14.4545
   7   2.0000      -0.421152       -11.4601
   8   2.0000      -0.368348       -10.0233
   9   0.0000       0.069509         1.8914
  10   0.0000       0.136639         3.7181
  11   0.0000       0.153703         4.1825
  12   0.0000       0.169255         4.6057
  13   0.0000       0.179060         4.8725

MULLIKEN ATOMIC CHARGES
-----------------------
   0 C :   -0.011503
   1 O :    0.000856
   2 H :    0.000106
   3 H :   -0.000569
   4 H :   -0.000073
   5 H :    0.001647
   6 C :   -0.150635
   7 O :   -0.478420
   8 H :    0.317400
   9 H :    0.091970
  10 H :    0.129847
  11 H :    0.099375
Sum of atomic charges:   -0.0000000

LOEWDIN ATOMIC CHARGES
----------------------
   0 C :   -0.017803
   1 O :   -0.015638
   2 H :   -0.000703
   3 H :   -0.000291
   4 H :   -0.006010
   5 H :   -0.000765
   6 C :   -0.394778
   7 O :   -0.050185
   8 H :    0.182754
   9 H :    0.101776
  10 H :    0.103827
  11 H :    0.097816

  Mayer bond orders larger than 0.1
B(  6-C ,  7-O ) :   0.9823 B(  6-C ,  9-H ) :   0.9899 B(  6-C , 10-H ) :   0.9693
B(  6-C , 11-H ) :   0.9741 B(  7-O ,  8-H ) :   0.9037

Dispersion correction           -0.000236457
FINAL SINGLE POINT ENERGY      -115.730944217026

DIPOLE MOMENT
-------------
                                X             Y             Z
Electronic contribution:      0.84994      -1.57664       0.10706
Nuclear contribution   :     -0.87768       2.01341       0.32715
                        -----------------------------------------
Total Dipole Moment    :     -0.02774       0.43678       0.43421
                        -----------------------------------------
Magnitude (a.u.)       :      0.61651
Magnitude (Debye)      :      1.56704

Rotational constants in cm-1:     4.301528     0.842277     0.820163
Rotational constants in MHz : 128956.559839 25250.840608 24587.879324

                             ****ORCA TERMINATED NORMALLY****
TOTAL RUN TIME: 0 days 0 hours 1 minutes 9 seconds 154 msec
