                         Program Version 4.1.2  - RELEASE  -
|  1> #Run DFT-D3 single point of the dimer
|  2> ! wB97X-D3 def2-TZVP TIGHTSCF CHELPG PMODEL PAL8
|  3>
|  4> %base "3-147_DFT_AB"
|  5>
|  6> %scf
|  7> MaxIter 1000
|  8> end
|  9>
| 10> * xyz 0 1
| 11>   C                      10.299020            -6.507775            -9.955204
| 12>   O                      10.244527            -6.896147            -11.344969
| 13>   H                      9.480746             -6.481031            -11.730553
| 14>   H                      10.096650            -5.427512            -9.714746
| 15>   H                      9.726568             -7.215119            -9.386501
| 16>   H                      11.296084            -6.715055            -9.483401
| 17>   C                      7.281428             -9.565872            -11.049260
| 18>   O                      8.512080             -9.111649            -11.628326
| 19>   H                      8.472386             -9.228865            -12.577842
| 20>   H                      7.334403             -9.507376            -9.927743
| 21>   H                      6.402606             -9.026132            -11.434370
| 22>   H                      7.190315             -10.599415           -11.368730
| 23> *
| 24>
| 25> #Run DFT-D3 single point of the molecule with dimer basis set
| 26> $new_job
| 27> %base "3-147_DFT_A"
| 28> ! wB97X-D3 def2-TZVP TIGHTSCF CHELPG PMODEL
| 29>
| 30> %scf
| 31> MaxIter 1000
| 32> end
| 33>
| 34> * xyz 0 1
| 35>   C                      10.299020            -6.507775            -9.955204
| 36>   O                      10.244527            -6.896147            -11.344969
| 37>   H                      9.480746             -6.481031            -11.730553
| 38>   H                      10.096650            -5.427512            -9.714746
| 39>   H                      9.726568             -7.215119            -9.386501
| 40>   H                      11.296084            -6.715055            -9.483401
| 41>   C                    : 7.281428             -9.565872            -11.049260
| 42>   O                    : 8.512080             -9.111649            -11.628326
| 43>   H                    : 8.472386             -9.228865            -12.577842
| 44>   H                    : 7.334403             -9.507376            -9.927743
| 45>   H                    : 6.402606             -9.026132            -11.434370
| 46>   H                    : 7.190315             -10.599415           -11.368730
| 47> *
| 48>
| 49> #Run DFT-D3 single point of the particle with dimer basis set
| 50> $new_job
| 51> %base "3-147_DFT_B"
| 52> ! wB97X-D3 def2-TZVP TIGHTSCF CHELPG PMODEL
| 53>
| 54> %scf
| 55> MaxIter 1000
| 56> end
| 57>
| 58> * xyz 0 1
| 59>   C                    : 10.299020            -6.507775            -9.955204
| 60>   O                    : 10.244527            -6.896147            -11.344969
| 61>   H                    : 9.480746             -6.481031            -11.730553
| 62>   H                    : 10.096650            -5.427512            -9.714746
| 63>   H                    : 9.726568             -7.215119            -9.386501
| 64>   H                    : 11.296084            -6.715055            -9.483401
| 65>   C                      7.281428             -9.565872            -11.049260
| 66>   O                      8.512080             -9.111649            -11.628326
| 67>   H                      8.472386             -9.228865            -12.577842
| 68>   H                      7.334403             -9.507376            -9.927743
| 69>   H                      6.402606             -9.026132            -11.434370
| 70>   H                      7.190315             -10.599415           -11.368730
| 71> *
| 72>
| 73>                          ****END OF INPUT****
 Total Charge           Charge          ....    0
 Multiplicity           Mult            ....    1
 Number of Electrons    NEL             ....   36
Dispersion correction           -0.001755213
FINAL SINGLE POINT ENERGY      -231.460581523227
Dispersion correction           -0.000277026
FINAL SINGLE POINT ENERGY      -115.729611031557

CARTESIAN COORDINATES (ANGSTROEM)
---------------------------------
  C     10.299020   -6.507775   -9.955204
  O     10.244527   -6.896147  -11.344969
  H      9.480746   -6.481031  -11.730553
  H     10.096650   -5.427512   -9.714746
  H      9.726568   -7.215119   -9.386501
  H     11.296084   -6.715055   -9.483401
  C      7.281428   -9.565872  -11.049260
  O      8.512080   -9.111649  -11.628326
  H      8.472386   -9.228865  -12.577842
  H      7.334403   -9.507376   -9.927743
  H      6.402606   -9.026132  -11.434370
  H      7.190315  -10.599415  -11.368730

 Multiplicity           Mult            ....    1
 Number of Electrons    NEL             ....   18
 Basis Dimension        Dim             ....  172

ORBITAL ENERGIES
----------------

  NO   OCC          E(Eh)            E(eV)
   0   2.0000     -19.227650      -523.2110
   1   2.0000     -10.318346      -280.7765
   2   2.0000      -1.129801       -30.7434
   3   2.0000      -0.793431       -21.5904
   4   2.0000      -0.607180       -16.5222
   5   2.0000      -0.540216       -14.7000
   6   2.0000      -0.525065       -14.2878
   7   2.0000      -0.433639       -11.7999
   8   2.0000      -0.371579       -10.1112
   9   0.0000       0.097508         2.6533
  10   0.0000       0.123582         3.3629
  11   0.0000       0.150523         4.0959
  12   0.0000       0.182930         4.9778
  13   0.0000       0.193334         5.2609

MULLIKEN ATOMIC CHARGES
-----------------------
   0 C :   -0.002686
   1 O :    0.006648
   2 H :   -0.007522
   3 H :   -0.000075
   4 H :   -0.001310
   5 H :   -0.000069
   6 C :   -0.160989
   7 O :   -0.481041
   8 H :    0.312425
   9 H :    0.125303
  10 H :    0.103417
  11 H :    0.105899
Sum of atomic charges:    0.0000000

LOEWDIN ATOMIC CHARGES
----------------------
   0 C :   -0.004721
   1 O :   -0.011188
   2 H :   -0.007151
   3 H :   -0.000056
   4 H :   -0.001238
   5 H :   -0.000070
   6 C :   -0.370265
   7 O :   -0.075989
   8 H :    0.164250
   9 H :    0.116133
  10 H :    0.094884
  11 H :    0.095412

  Mayer bond orders larger than 0.1
B(  6-C ,  7-O ) :   0.9822 B(  6-C ,  9-H ) :   0.9709 B(  6-C , 10-H ) :   0.9691
B(  6-C , 11-H ) :   0.9836 B(  7-O ,  8-H ) :   0.8984

Dispersion correction           -0.000237638
FINAL SINGLE POINT ENERGY      -115.734463732806

DIPOLE MOMENT
-------------
                                X             Y             Z
Electronic contribution:      1.53414       0.64255      -0.53845
Nuclear contribution   :     -2.07227      -0.92832       0.16959
                        -----------------------------------------
Total Dipole Moment    :     -0.53813      -0.28577      -0.36886
                        -----------------------------------------
Magnitude (a.u.)       :      0.71226
Magnitude (Debye)      :      1.81041

Rotational constants in cm-1:     4.197918     0.818024     0.783502
Rotational constants in MHz : 125850.420677 24523.755847 23488.805722

                             ****ORCA TERMINATED NORMALLY****
TOTAL RUN TIME: 0 days 0 hours 6 minutes 22 seconds 767 msec
