                         Program Version 4.1.2  - RELEASE  -
|  1> #Run DFT-D3 single point of the dimer
|  2> ! wB97X-D3 def2-TZVP TIGHTSCF CHELPG PMODEL PAL8
|  3>
|  4> %base "20-74_DFT_AB"
|  5>
|  6> %scf
|  7> MaxIter 1000
|  8> end
|  9>
| 10> * xyz 0 1
| 11>   C                      7.632217             9.699304             -7.585289
| 12>   O                      8.220885             8.717487             -8.487322
| 13>   H                      8.292732             7.918457             -7.923862
| 14>   H                      7.388094             10.683171            -8.048767
| 15>   H                      6.886025             9.245156             -6.974468
| 16>   H                      8.453979             9.988415             -6.909452
| 17>   C                      9.562240             6.276854             -10.211112
| 18>   O                      10.589209            5.372409             -9.787032
| 19>   H                      11.332592            5.468147             -10.340135
| 20>   H                      8.934120             5.916250             -11.030064
| 21>   H                      8.879910             6.571400             -9.422225
| 22>   H                      10.062092            7.204144             -10.530208
| 23> *
| 24>
| 25> #Run DFT-D3 single point of the molecule with dimer basis set
| 26> $new_job
| 27> %base "20-74_DFT_A"
| 28> ! wB97X-D3 def2-TZVP TIGHTSCF CHELPG PMODEL
| 29>
| 30> %scf
| 31> MaxIter 1000
| 32> end
| 33>
| 34> * xyz 0 1
| 35>   C                      7.632217             9.699304             -7.585289
| 36>   O                      8.220885             8.717487             -8.487322
| 37>   H                      8.292732             7.918457             -7.923862
| 38>   H                      7.388094             10.683171            -8.048767
| 39>   H                      6.886025             9.245156             -6.974468
| 40>   H                      8.453979             9.988415             -6.909452
| 41>   C                    : 9.562240             6.276854             -10.211112
| 42>   O                    : 10.589209            5.372409             -9.787032
| 43>   H                    : 11.332592            5.468147             -10.340135
| 44>   H                    : 8.934120             5.916250             -11.030064
| 45>   H                    : 8.879910             6.571400             -9.422225
| 46>   H                    : 10.062092            7.204144             -10.530208
| 47> *
| 48>
| 49> #Run DFT-D3 single point of the particle with dimer basis set
| 50> $new_job
| 51> %base "20-74_DFT_B"
| 52> ! wB97X-D3 def2-TZVP TIGHTSCF CHELPG PMODEL
| 53>
| 54> %scf
| 55> MaxIter 1000
| 56> end
| 57>
| 58> * xyz 0 1
| 59>   C                    : 7.632217             9.699304             -7.585289
| 60>   O                    : 8.220885             8.717487             -8.487322
| 61>   H                    : 8.292732             7.918457             -7.923862
| 62>   H                    : 7.388094             10.683171            -8.048767
| 63>   H                    : 6.886025             9.245156             -6.974468
| 64>   H                    : 8.453979             9.988415             -6.909452
| 65>   C                      9.562240             6.276854             -10.211112
| 66>   O                      10.589209            5.372409             -9.787032
| 67>   H                      11.332592            5.468147             -10.340135
| 68>   H                      8.934120             5.916250             -11.030064
| 69>   H                      8.879910             6.571400             -9.422225
| 70>   H                      10.062092            7.204144             -10.530208
| 71> *
| 72>
| 73>                          ****END OF INPUT****
 Total Charge           Charge          ....    0
 Multiplicity           Mult            ....    1
 Number of Electrons    NEL             ....   36
Dispersion correction           -0.001397663
FINAL SINGLE POINT ENERGY      -231.462075065000
Dispersion correction           -0.000233072
FINAL SINGLE POINT ENERGY      -115.728067434348

CARTESIAN COORDINATES (ANGSTROEM)
---------------------------------
  C      7.632217    9.699304   -7.585289
  O      8.220885    8.717487   -8.487322
  H      8.292732    7.918457   -7.923862
  H      7.388094   10.683171   -8.048767
  H      6.886025    9.245156   -6.974468
  H      8.453979    9.988415   -6.909452
  C      9.562240    6.276854  -10.211112
  O     10.589209    5.372409   -9.787032
  H     11.332592    5.468147  -10.340135
  H      8.934120    5.916250  -11.030064
  H      8.879910    6.571400   -9.422225
  H     10.062092    7.204144  -10.530208

 Multiplicity           Mult            ....    1
 Number of Electrons    NEL             ....   18
 Basis Dimension        Dim             ....  172

ORBITAL ENERGIES
----------------

  NO   OCC          E(Eh)            E(eV)
   0   2.0000     -19.227409      -523.2044
   1   2.0000     -10.315346      -280.6948
   2   2.0000      -1.135685       -30.9036
   3   2.0000      -0.800470       -21.7819
   4   2.0000      -0.610639       -16.6163
   5   2.0000      -0.540412       -14.7054
   6   2.0000      -0.531326       -14.4581
   7   2.0000      -0.429862       -11.6971
   8   2.0000      -0.376332       -10.2405
   9   0.0000       0.087305         2.3757
  10   0.0000       0.118104         3.2138
  11   0.0000       0.147448         4.0123
  12   0.0000       0.177020         4.8170
  13   0.0000       0.197597         5.3769

MULLIKEN ATOMIC CHARGES
-----------------------
   0 C :   -0.001151
   1 O :   -0.001573
   2 H :    0.000948
   3 H :   -0.000004
   4 H :    0.000043
   5 H :    0.000046
   6 C :   -0.165543
   7 O :   -0.475186
   8 H :    0.312456
   9 H :    0.102846
  10 H :    0.128014
  11 H :    0.099104
Sum of atomic charges:   -0.0000000

LOEWDIN ATOMIC CHARGES
----------------------
   0 C :   -0.000312
   1 O :   -0.006746
   2 H :   -0.007332
   3 H :   -0.000008
   4 H :   -0.000005
   5 H :   -0.000007
   6 C :   -0.364684
   7 O :   -0.075748
   8 H :    0.148804
   9 H :    0.095131
  10 H :    0.110775
  11 H :    0.100133

  Mayer bond orders larger than 0.1
B(  6-C ,  7-O ) :   1.0072 B(  6-C ,  9-H ) :   0.9667 B(  6-C , 10-H ) :   0.9713
B(  6-C , 11-H ) :   0.9916 B(  7-O ,  8-H ) :   0.9050

Dispersion correction           -0.000253168
FINAL SINGLE POINT ENERGY      -115.733418483734

DIPOLE MOMENT
-------------
                                X             Y             Z
Electronic contribution:      1.19221      -1.28105       0.65917
Nuclear contribution   :     -1.13004       1.73108      -1.18344
                        -----------------------------------------
Total Dipole Moment    :      0.06217       0.45003      -0.52426
                        -----------------------------------------
Magnitude (a.u.)       :      0.69372
Magnitude (Debye)      :      1.76330

Rotational constants in cm-1:     4.445796     0.806714     0.782903
Rotational constants in MHz : 133281.623346 24184.668485 23470.849841

                             ****ORCA TERMINATED NORMALLY****
TOTAL RUN TIME: 0 days 0 hours 1 minutes 5 seconds 464 msec
