                         Program Version 4.1.2  - RELEASE  -
|  1> #Run DFT-D3 single point of the dimer
|  2> ! wB97X-D3 def2-TZVP TIGHTSCF CHELPG PMODEL PAL8
|  3>
|  4> %base "17-59_DFT_AB"
|  5>
|  6> %scf
|  7> MaxIter 1000
|  8> end
|  9>
| 10> * xyz 0 1
| 11>   C                      -8.719428            -0.806688            2.256153
| 12>   O                      -10.041191           -1.234781            2.494380
| 13>   H                      -10.144787           -1.521010            3.361301
| 14>   H                      -8.220031            -0.383521            3.209562
| 15>   H                      -8.128405            -1.587988            1.732554
| 16>   H                      -8.726105            0.059084             1.528395
| 17>   C                      -6.319022            1.751159             5.059910
| 18>   O                      -6.857394            1.523147             6.296902
| 19>   H                      -7.736044            1.859153             6.281797
| 20>   H                      -5.269929            1.724765             5.106357
| 21>   H                      -6.608568            0.985461             4.282150
| 22>   H                      -6.567316            2.808178             4.780656
| 23> *
| 24>
| 25> #Run DFT-D3 single point of the molecule with dimer basis set
| 26> $new_job
| 27> %base "17-59_DFT_A"
| 28> ! wB97X-D3 def2-TZVP TIGHTSCF CHELPG PMODEL
| 29>
| 30> %scf
| 31> MaxIter 1000
| 32> end
| 33>
| 34> * xyz 0 1
| 35>   C                      -8.719428            -0.806688            2.256153
| 36>   O                      -10.041191           -1.234781            2.494380
| 37>   H                      -10.144787           -1.521010            3.361301
| 38>   H                      -8.220031            -0.383521            3.209562
| 39>   H                      -8.128405            -1.587988            1.732554
| 40>   H                      -8.726105            0.059084             1.528395
| 41>   C                    : -6.319022            1.751159             5.059910
| 42>   O                    : -6.857394            1.523147             6.296902
| 43>   H                    : -7.736044            1.859153             6.281797
| 44>   H                    : -5.269929            1.724765             5.106357
| 45>   H                    : -6.608568            0.985461             4.282150
| 46>   H                    : -6.567316            2.808178             4.780656
| 47> *
| 48>
| 49> #Run DFT-D3 single point of the particle with dimer basis set
| 50> $new_job
| 51> %base "17-59_DFT_B"
| 52> ! wB97X-D3 def2-TZVP TIGHTSCF CHELPG PMODEL
| 53>
| 54> %scf
| 55> MaxIter 1000
| 56> end
| 57>
| 58> * xyz 0 1
| 59>   C                    : -8.719428            -0.806688            2.256153
| 60>   O                    : -10.041191           -1.234781            2.494380
| 61>   H                    : -10.144787           -1.521010            3.361301
| 62>   H                    : -8.220031            -0.383521            3.209562
| 63>   H                    : -8.128405            -1.587988            1.732554
| 64>   H                    : -8.726105            0.059084             1.528395
| 65>   C                      -6.319022            1.751159             5.059910
| 66>   O                      -6.857394            1.523147             6.296902
| 67>   H                      -7.736044            1.859153             6.281797
| 68>   H                      -5.269929            1.724765             5.106357
| 69>   H                      -6.608568            0.985461             4.282150
| 70>   H                      -6.567316            2.808178             4.780656
| 71> *
| 72>
| 73>                          ****END OF INPUT****
 Total Charge           Charge          ....    0
 Multiplicity           Mult            ....    1
 Number of Electrons    NEL             ....   36
Dispersion correction           -0.001109174
FINAL SINGLE POINT ENERGY      -231.462355834187
Dispersion correction           -0.000267392
FINAL SINGLE POINT ENERGY      -115.730506363779

CARTESIAN COORDINATES (ANGSTROEM)
---------------------------------
  C     -8.719428   -0.806688    2.256153
  O    -10.041191   -1.234781    2.494380
  H    -10.144787   -1.521010    3.361301
  H     -8.220031   -0.383521    3.209562
  H     -8.128405   -1.587988    1.732554
  H     -8.726105    0.059084    1.528395
  C     -6.319022    1.751159    5.059910
  O     -6.857394    1.523147    6.296902
  H     -7.736044    1.859153    6.281797
  H     -5.269929    1.724765    5.106357
  H     -6.608568    0.985461    4.282150
  H     -6.567316    2.808178    4.780656

 Multiplicity           Mult            ....    1
 Number of Electrons    NEL             ....   18
 Basis Dimension        Dim             ....  172

ORBITAL ENERGIES
----------------

  NO   OCC          E(Eh)            E(eV)
   0   2.0000     -19.228456      -523.2329
   1   2.0000     -10.311094      -280.5791
   2   2.0000      -1.156259       -31.4634
   3   2.0000      -0.795217       -21.6389
   4   2.0000      -0.616457       -16.7746
   5   2.0000      -0.549593       -14.9552
   6   2.0000      -0.539581       -14.6827
   7   2.0000      -0.426552       -11.6071
   8   2.0000      -0.373035       -10.1508
   9   0.0000       0.083871         2.2822
  10   0.0000       0.120117         3.2686
  11   0.0000       0.150690         4.1005
  12   0.0000       0.172945         4.7061
  13   0.0000       0.189013         5.1433

MULLIKEN ATOMIC CHARGES
-----------------------
   0 C :   -0.005606
   1 O :    0.000068
   2 H :   -0.000001
   3 H :    0.009104
   4 H :    0.000111
   5 H :    0.000199
   6 C :   -0.156504
   7 O :   -0.458489
   8 H :    0.315843
   9 H :    0.122006
  10 H :    0.082517
  11 H :    0.090752
Sum of atomic charges:   -0.0000000

LOEWDIN ATOMIC CHARGES
----------------------
   0 C :   -0.001953
   1 O :   -0.000018
   2 H :   -0.000002
   3 H :   -0.004126
   4 H :   -0.000017
   5 H :   -0.000088
   6 C :   -0.419846
   7 O :   -0.033496
   8 H :    0.162148
   9 H :    0.096378
  10 H :    0.100705
  11 H :    0.100315

  Mayer bond orders larger than 0.1
B(  6-C ,  7-O ) :   1.0150 B(  6-C ,  9-H ) :   0.9764 B(  6-C , 10-H ) :   0.9659
B(  6-C , 11-H ) :   0.9935 B(  7-O ,  8-H ) :   0.9022

Dispersion correction           -0.000221243
FINAL SINGLE POINT ENERGY      -115.731359373043

DIPOLE MOMENT
-------------
                                X             Y             Z
Electronic contribution:     -0.59738      -0.42040       1.70388
Nuclear contribution   :      0.26238       0.73122      -2.13548
                        -----------------------------------------
Total Dipole Moment    :     -0.33500       0.31083      -0.43160
                        -----------------------------------------
Magnitude (a.u.)       :      0.62858
Magnitude (Debye)      :      1.59772

Rotational constants in cm-1:     4.276243     0.873466     0.853161
Rotational constants in MHz : 128198.541081 26185.844072 25577.117949

                             ****ORCA TERMINATED NORMALLY****
TOTAL RUN TIME: 0 days 0 hours 1 minutes 10 seconds 516 msec
