                         Program Version 4.1.2  - RELEASE  -
|  1> #Run DFT-D3 single point of the dimer
|  2> ! wB97X-D3 def2-TZVP TIGHTSCF CHELPG PMODEL PAL8
|  3>
|  4> %base "1-36_DFT_AB"
|  5>
|  6> %scf
|  7> MaxIter 1000
|  8> end
|  9>
| 10> * xyz 0 1
| 11>   C                      -2.354992            4.220558             -11.114118
| 12>   O                      -3.266662            5.290288             -11.142796
| 13>   H                      -4.137291            4.981376             -11.457363
| 14>   H                      -1.583191            4.453698             -10.358504
| 15>   H                      -2.862234            3.277000             -10.825924
| 16>   H                      -1.849931            4.156217             -12.122973
| 17>   C                      -2.798939            4.815627             -7.758837
| 18>   O                      -2.827165            4.871084             -6.320355
| 19>   H                      -3.739904            4.876962             -6.026058
| 20>   H                      -3.727449            4.623111             -8.234730
| 21>   H                      -2.286946            5.679438             -8.216475
| 22>   H                      -2.152676            4.037711             -8.122036
| 23> *
| 24>
| 25> #Run DFT-D3 single point of the molecule with dimer basis set
| 26> $new_job
| 27> %base "1-36_DFT_A"
| 28> ! wB97X-D3 def2-TZVP TIGHTSCF CHELPG PMODEL
| 29>
| 30> %scf
| 31> MaxIter 1000
| 32> end
| 33>
| 34> * xyz 0 1
| 35>   C                      -2.354992            4.220558             -11.114118
| 36>   O                      -3.266662            5.290288             -11.142796
| 37>   H                      -4.137291            4.981376             -11.457363
| 38>   H                      -1.583191            4.453698             -10.358504
| 39>   H                      -2.862234            3.277000             -10.825924
| 40>   H                      -1.849931            4.156217             -12.122973
| 41>   C                    : -2.798939            4.815627             -7.758837
| 42>   O                    : -2.827165            4.871084             -6.320355
| 43>   H                    : -3.739904            4.876962             -6.026058
| 44>   H                    : -3.727449            4.623111             -8.234730
| 45>   H                    : -2.286946            5.679438             -8.216475
| 46>   H                    : -2.152676            4.037711             -8.122036
| 47> *
| 48>
| 49> #Run DFT-D3 single point of the particle with dimer basis set
| 50> $new_job
| 51> %base "1-36_DFT_B"
| 52> ! wB97X-D3 def2-TZVP TIGHTSCF CHELPG PMODEL
| 53>
| 54> %scf
| 55> MaxIter 1000
| 56> end
| 57>
| 58> * xyz 0 1
| 59>   C                    : -2.354992            4.220558             -11.114118
| 60>   O                    : -3.266662            5.290288             -11.142796
| 61>   H                    : -4.137291            4.981376             -11.457363
| 62>   H                    : -1.583191            4.453698             -10.358504
| 63>   H                    : -2.862234            3.277000             -10.825924
| 64>   H                    : -1.849931            4.156217             -12.122973
| 65>   C                      -2.798939            4.815627             -7.758837
| 66>   O                      -2.827165            4.871084             -6.320355
| 67>   H                      -3.739904            4.876962             -6.026058
| 68>   H                      -3.727449            4.623111             -8.234730
| 69>   H                      -2.286946            5.679438             -8.216475
| 70>   H                      -2.152676            4.037711             -8.122036
| 71> *
| 72>
| 73>                          ****END OF INPUT****
 Total Charge           Charge          ....    0
 Multiplicity           Mult            ....    1
 Number of Electrons    NEL             ....   36
Dispersion correction           -0.002076910
FINAL SINGLE POINT ENERGY      -231.467235363266
Dispersion correction           -0.000244943
FINAL SINGLE POINT ENERGY      -115.735203740724

CARTESIAN COORDINATES (ANGSTROEM)
---------------------------------
  C     -2.354992    4.220558  -11.114118
  O     -3.266662    5.290288  -11.142796
  H     -4.137291    4.981376  -11.457363
  H     -1.583191    4.453698  -10.358504
  H     -2.862234    3.277000  -10.825924
  H     -1.849931    4.156217  -12.122973
  C     -2.798939    4.815627   -7.758837
  O     -2.827165    4.871084   -6.320355
  H     -3.739904    4.876962   -6.026058
  H     -3.727449    4.623111   -8.234730
  H     -2.286946    5.679438   -8.216475
  H     -2.152676    4.037711   -8.122036

 Multiplicity           Mult            ....    1
 Number of Electrons    NEL             ....   18
 Basis Dimension        Dim             ....  172

ORBITAL ENERGIES
----------------

  NO   OCC          E(Eh)            E(eV)
   0   2.0000     -19.232528      -523.3437
   1   2.0000     -10.310262      -280.5565
   2   2.0000      -1.128684       -30.7130
   3   2.0000      -0.803697       -21.8697
   4   2.0000      -0.612245       -16.6600
   5   2.0000      -0.534774       -14.5520
   6   2.0000      -0.523906       -14.2562
   7   2.0000      -0.441085       -12.0025
   8   2.0000      -0.372160       -10.1270
   9   0.0000       0.080572         2.1925
  10   0.0000       0.116675         3.1749
  11   0.0000       0.156592         4.2611
  12   0.0000       0.162472         4.4211
  13   0.0000       0.181957         4.9513

MULLIKEN ATOMIC CHARGES
-----------------------
   0 C :    0.000937
   1 O :   -0.000381
   2 H :   -0.000139
   3 H :   -0.001378
   4 H :   -0.000730
   5 H :   -0.000024
   6 C :   -0.188356
   7 O :   -0.471706
   8 H :    0.316808
   9 H :    0.113566
  10 H :    0.111908
  11 H :    0.119494
Sum of atomic charges:   -0.0000000

LOEWDIN ATOMIC CHARGES
----------------------
   0 C :   -0.008153
   1 O :   -0.001401
   2 H :   -0.000290
   3 H :   -0.004226
   4 H :   -0.000955
   5 H :   -0.000035
   6 C :   -0.366049
   7 O :   -0.088522
   8 H :    0.167416
   9 H :    0.093064
  10 H :    0.105726
  11 H :    0.103426

  Mayer bond orders larger than 0.1
B(  6-C ,  7-O ) :   1.0186 B(  6-C ,  9-H ) :   0.9756 B(  6-C , 10-H ) :   0.9764
B(  6-C , 11-H ) :   0.9758 B(  7-O ,  8-H ) :   0.9002

Dispersion correction           -0.000272519
FINAL SINGLE POINT ENERGY      -115.730811813269

DIPOLE MOMENT
-------------
                                X             Y             Z
Electronic contribution:     -0.05393       0.09525       1.92000
Nuclear contribution   :     -0.53027      -0.14062      -2.32733
                        -----------------------------------------
Total Dipole Moment    :     -0.58420      -0.04538      -0.40733
                        -----------------------------------------
Magnitude (a.u.)       :      0.71363
Magnitude (Debye)      :      1.81391

Rotational constants in cm-1:     4.564785     0.799946     0.766182
Rotational constants in MHz : 136848.818031 23981.792357 22969.557283

                             ****ORCA TERMINATED NORMALLY****
TOTAL RUN TIME: 0 days 0 hours 6 minutes 16 seconds 913 msec
