                         Program Version 4.1.2  - RELEASE  -
|  1> #Run DFT-D3 single point of the dimer
|  2> ! wB97X-D3 def2-TZVP TIGHTSCF CHELPG PMODEL PAL8
|  3>
|  4> %base "16-56_DFT_AB"
|  5>
|  6> %scf
|  7> MaxIter 1000
|  8> end
|  9>
| 10> * xyz 0 1
| 11>   C                      3.918612             -5.045741            2.896027
| 12>   O                      4.275113             -3.748419            2.773380
| 13>   H                      5.177996             -3.619790            2.820687
| 14>   H                      3.911424             -5.560728            1.980114
| 15>   H                      4.669848             -5.508734            3.468600
| 16>   H                      2.869578             -5.280809            3.312576
| 17>   C                      3.984085             -1.505983            -0.000003
| 18>   O                      4.931554             -2.538194            -0.200486
| 19>   H                      5.661244             -2.406632            0.423701
| 20>   H                      4.390723             -0.555636            -0.394393
| 21>   H                      3.119096             -1.632442            -0.713375
| 22>   H                      3.574545             -1.426662            0.965645
| 23> *
| 24>
| 25> #Run DFT-D3 single point of the molecule with dimer basis set
| 26> $new_job
| 27> %base "16-56_DFT_A"
| 28> ! wB97X-D3 def2-TZVP TIGHTSCF CHELPG PMODEL
| 29>
| 30> %scf
| 31> MaxIter 1000
| 32> end
| 33>
| 34> * xyz 0 1
| 35>   C                      3.918612             -5.045741            2.896027
| 36>   O                      4.275113             -3.748419            2.773380
| 37>   H                      5.177996             -3.619790            2.820687
| 38>   H                      3.911424             -5.560728            1.980114
| 39>   H                      4.669848             -5.508734            3.468600
| 40>   H                      2.869578             -5.280809            3.312576
| 41>   C                    : 3.984085             -1.505983            -0.000003
| 42>   O                    : 4.931554             -2.538194            -0.200486
| 43>   H                    : 5.661244             -2.406632            0.423701
| 44>   H                    : 4.390723             -0.555636            -0.394393
| 45>   H                    : 3.119096             -1.632442            -0.713375
| 46>   H                    : 3.574545             -1.426662            0.965645
| 47> *
| 48>
| 49> #Run DFT-D3 single point of the particle with dimer basis set
| 50> $new_job
| 51> %base "16-56_DFT_B"
| 52> ! wB97X-D3 def2-TZVP TIGHTSCF CHELPG PMODEL
| 53>
| 54> %scf
| 55> MaxIter 1000
| 56> end
| 57>
| 58> * xyz 0 1
| 59>   C                    : 3.918612             -5.045741            2.896027
| 60>   O                    : 4.275113             -3.748419            2.773380
| 61>   H                    : 5.177996             -3.619790            2.820687
| 62>   H                    : 3.911424             -5.560728            1.980114
| 63>   H                    : 4.669848             -5.508734            3.468600
| 64>   H                    : 2.869578             -5.280809            3.312576
| 65>   C                      3.984085             -1.505983            -0.000003
| 66>   O                      4.931554             -2.538194            -0.200486
| 67>   H                      5.661244             -2.406632            0.423701
| 68>   H                      4.390723             -0.555636            -0.394393
| 69>   H                      3.119096             -1.632442            -0.713375
| 70>   H                      3.574545             -1.426662            0.965645
| 71> *
| 72>
| 73>                          ****END OF INPUT****
 Total Charge           Charge          ....    0
 Multiplicity           Mult            ....    1
 Number of Electrons    NEL             ....   36
Dispersion correction           -0.001687304
FINAL SINGLE POINT ENERGY      -231.454896135970
Dispersion correction           -0.000218031
FINAL SINGLE POINT ENERGY      -115.722379237690

CARTESIAN COORDINATES (ANGSTROEM)
---------------------------------
  C      3.918612   -5.045741    2.896027
  O      4.275113   -3.748419    2.773380
  H      5.177996   -3.619790    2.820687
  H      3.911424   -5.560728    1.980114
  H      4.669848   -5.508734    3.468600
  H      2.869578   -5.280809    3.312576
  C      3.984085   -1.505983   -0.000003
  O      4.931554   -2.538194   -0.200486
  H      5.661244   -2.406632    0.423701
  H      4.390723   -0.555636   -0.394393
  H      3.119096   -1.632442   -0.713375
  H      3.574545   -1.426662    0.965645

 Multiplicity           Mult            ....    1
 Number of Electrons    NEL             ....   18
 Basis Dimension        Dim             ....  172

ORBITAL ENERGIES
----------------

  NO   OCC          E(Eh)            E(eV)
   0   2.0000     -19.233181      -523.3615
   1   2.0000     -10.313228      -280.6372
   2   2.0000      -1.134720       -30.8773
   3   2.0000      -0.796268       -21.6676
   4   2.0000      -0.609538       -16.5864
   5   2.0000      -0.550381       -14.9766
   6   2.0000      -0.521767       -14.1980
   7   2.0000      -0.427667       -11.6374
   8   2.0000      -0.376263       -10.2386
   9   0.0000       0.083726         2.2783
  10   0.0000       0.124202         3.3797
  11   0.0000       0.149078         4.0566
  12   0.0000       0.176941         4.8148
  13   0.0000       0.190498         5.1837

MULLIKEN ATOMIC CHARGES
-----------------------
   0 C :   -0.000273
   1 O :   -0.001230
   2 H :   -0.002573
   3 H :   -0.001198
   4 H :    0.000082
   5 H :    0.000021
   6 C :   -0.170213
   7 O :   -0.470802
   8 H :    0.316524
   9 H :    0.102649
  10 H :    0.113207
  11 H :    0.113807
Sum of atomic charges:   -0.0000000

LOEWDIN ATOMIC CHARGES
----------------------
   0 C :   -0.001467
   1 O :   -0.003199
   2 H :   -0.002407
   3 H :   -0.000580
   4 H :   -0.000011
   5 H :   -0.000013
   6 C :   -0.390849
   7 O :   -0.075909
   8 H :    0.174293
   9 H :    0.098562
  10 H :    0.116478
  11 H :    0.085100

  Mayer bond orders larger than 0.1
B(  6-C ,  7-O ) :   1.0041 B(  6-C ,  9-H ) :   0.9844 B(  6-C , 10-H ) :   0.9737
B(  6-C , 11-H ) :   0.9677 B(  7-O ,  8-H ) :   0.8964

Dispersion correction           -0.000250231
FINAL SINGLE POINT ENERGY      -115.732653542888

DIPOLE MOMENT
-------------
                                X             Y             Z
Electronic contribution:      1.17710      -1.43009      -0.14673
Nuclear contribution   :     -1.10501       1.92859       0.60498
                        -----------------------------------------
Total Dipole Moment    :      0.07209       0.49850       0.45825
                        -----------------------------------------
Magnitude (a.u.)       :      0.68095
Magnitude (Debye)      :      1.73083

Rotational constants in cm-1:     4.343553     0.821059     0.797254
Rotational constants in MHz : 130216.449872 24614.733839 23901.077108

                             ****ORCA TERMINATED NORMALLY****
TOTAL RUN TIME: 0 days 0 hours 1 minutes 3 seconds 566 msec
