                         Program Version 4.1.2  - RELEASE  -
|  1> #Run DFT-D3 single point of the dimer
|  2> ! wB97X-D3 def2-TZVP TIGHTSCF CHELPG PMODEL PAL8
|  3>
|  4> %base "14-22_DFT_AB"
|  5>
|  6> %scf
|  7> MaxIter 1000
|  8> end
|  9>
| 10> * xyz 0 1
| 11>   C                      8.629797             8.547878             8.806274
| 12>   O                      8.727650             7.489372             9.777322
| 13>   H                      8.906374             7.894992             10.650402
| 14>   H                      9.165527             9.433401             9.047837
| 15>   H                      8.882979             8.196418             7.782462
| 16>   H                      7.598564             8.894795             8.815134
| 17>   C                      4.918881             5.852485             9.923070
| 18>   O                      5.420235             7.182159             9.840038
| 19>   H                      6.326654             7.184408             9.631924
| 20>   H                      5.399851             5.240885             10.678256
| 21>   H                      3.839993             5.811326             10.163391
| 22>   H                      5.111345             5.355015             8.953127
| 23> *
| 24>
| 25> #Run DFT-D3 single point of the molecule with dimer basis set
| 26> $new_job
| 27> %base "14-22_DFT_A"
| 28> ! wB97X-D3 def2-TZVP TIGHTSCF CHELPG PMODEL
| 29>
| 30> %scf
| 31> MaxIter 1000
| 32> end
| 33>
| 34> * xyz 0 1
| 35>   C                      8.629797             8.547878             8.806274
| 36>   O                      8.727650             7.489372             9.777322
| 37>   H                      8.906374             7.894992             10.650402
| 38>   H                      9.165527             9.433401             9.047837
| 39>   H                      8.882979             8.196418             7.782462
| 40>   H                      7.598564             8.894795             8.815134
| 41>   C                    : 4.918881             5.852485             9.923070
| 42>   O                    : 5.420235             7.182159             9.840038
| 43>   H                    : 6.326654             7.184408             9.631924
| 44>   H                    : 5.399851             5.240885             10.678256
| 45>   H                    : 3.839993             5.811326             10.163391
| 46>   H                    : 5.111345             5.355015             8.953127
| 47> *
| 48>
| 49> #Run DFT-D3 single point of the particle with dimer basis set
| 50> $new_job
| 51> %base "14-22_DFT_B"
| 52> ! wB97X-D3 def2-TZVP TIGHTSCF CHELPG PMODEL
| 53>
| 54> %scf
| 55> MaxIter 1000
| 56> end
| 57>
| 58> * xyz 0 1
| 59>   C                    : 8.629797             8.547878             8.806274
| 60>   O                    : 8.727650             7.489372             9.777322
| 61>   H                    : 8.906374             7.894992             10.650402
| 62>   H                    : 9.165527             9.433401             9.047837
| 63>   H                    : 8.882979             8.196418             7.782462
| 64>   H                    : 7.598564             8.894795             8.815134
| 65>   C                      4.918881             5.852485             9.923070
| 66>   O                      5.420235             7.182159             9.840038
| 67>   H                      6.326654             7.184408             9.631924
| 68>   H                      5.399851             5.240885             10.678256
| 69>   H                      3.839993             5.811326             10.163391
| 70>   H                      5.111345             5.355015             8.953127
| 71> *
| 72>
| 73>                          ****END OF INPUT****
 Total Charge           Charge          ....    0
 Multiplicity           Mult            ....    1
 Number of Electrons    NEL             ....   36
Dispersion correction           -0.001630854
FINAL SINGLE POINT ENERGY      -231.472693598925
Dispersion correction           -0.000250532
FINAL SINGLE POINT ENERGY      -115.732583684861

CARTESIAN COORDINATES (ANGSTROEM)
---------------------------------
  C      8.629797    8.547878    8.806274
  O      8.727650    7.489372    9.777322
  H      8.906374    7.894992   10.650402
  H      9.165527    9.433401    9.047837
  H      8.882979    8.196418    7.782462
  H      7.598564    8.894795    8.815134
  C      4.918881    5.852485    9.923070
  O      5.420235    7.182159    9.840038
  H      6.326654    7.184408    9.631924
  H      5.399851    5.240885   10.678256
  H      3.839993    5.811326   10.163391
  H      5.111345    5.355015    8.953127

 Multiplicity           Mult            ....    1
 Number of Electrons    NEL             ....   18
 Basis Dimension        Dim             ....  172

ORBITAL ENERGIES
----------------

  NO   OCC          E(Eh)            E(eV)
   0   2.0000     -19.226890      -523.1903
   1   2.0000     -10.316868      -280.7363
   2   2.0000      -1.137683       -30.9579
   3   2.0000      -0.799440       -21.7539
   4   2.0000      -0.614221       -16.7138
   5   2.0000      -0.540764       -14.7149
   6   2.0000      -0.527413       -14.3516
   7   2.0000      -0.431999       -11.7553
   8   2.0000      -0.373635       -10.1671
   9   0.0000       0.075251         2.0477
  10   0.0000       0.132614         3.6086
  11   0.0000       0.156158         4.2493
  12   0.0000       0.164172         4.4673
  13   0.0000       0.193635         5.2691

MULLIKEN ATOMIC CHARGES
-----------------------
   0 C :   -0.002078
   1 O :    0.000020
   2 H :   -0.000405
   3 H :    0.000042
   4 H :    0.000264
   5 H :   -0.001368
   6 C :   -0.165861
   7 O :   -0.473017
   8 H :    0.308441
   9 H :    0.104382
  10 H :    0.124729
  11 H :    0.104854
Sum of atomic charges:   -0.0000000

LOEWDIN ATOMIC CHARGES
----------------------
   0 C :   -0.005076
   1 O :   -0.004480
   2 H :   -0.000734
   3 H :   -0.000072
   4 H :   -0.000075
   5 H :   -0.002725
   6 C :   -0.375357
   7 O :   -0.063701
   8 H :    0.150007
   9 H :    0.091354
  10 H :    0.112522
  11 H :    0.098336

  Mayer bond orders larger than 0.1
B(  6-C ,  7-O ) :   0.9849 B(  6-C ,  9-H ) :   0.9715 B(  6-C , 10-H ) :   0.9706
B(  6-C , 11-H ) :   0.9844 B(  7-O ,  8-H ) :   0.9096

Dispersion correction           -0.000248524
FINAL SINGLE POINT ENERGY      -115.734330347735

DIPOLE MOMENT
-------------
                                X             Y             Z
Electronic contribution:      0.49075       1.77889      -0.02623
Nuclear contribution   :     -0.11416      -2.33274      -0.06272
                        -----------------------------------------
Total Dipole Moment    :      0.37660      -0.55385      -0.08895
                        -----------------------------------------
Magnitude (a.u.)       :      0.67564
Magnitude (Debye)      :      1.71734

Rotational constants in cm-1:     4.398525     0.816296     0.787156
Rotational constants in MHz : 131864.460214 24471.935084 23598.357696

                             ****ORCA TERMINATED NORMALLY****
TOTAL RUN TIME: 0 days 0 hours 1 minutes 8 seconds 296 msec
