                         Program Version 4.1.2  - RELEASE  -
|  1> #Run DFT-D3 single point of the dimer
|  2> ! wB97X-D3 def2-TZVP TIGHTSCF CHELPG PMODEL PAL8
|  3>
|  4> %base "8-88_DFT_AB"
|  5>
|  6> %scf
|  7> MaxIter 1000
|  8> end
|  9>
| 10> * xyz 0 1
| 11>   C                      -4.288569            -3.454093            4.046615
| 12>   O                      -4.072984            -3.445141            5.450072
| 13>   H                      -3.608082            -2.611545            5.566733
| 14>   H                      -3.328369            -3.735090            3.527382
| 15>   H                      -4.996269            -4.232074            3.685555
| 16>   H                      -4.566862            -2.490800            3.649591
| 17>   C                      -5.045475            -6.977459            6.051964
| 18>   O                      -5.871820            -7.739681            5.194728
| 19>   H                      -5.413015            -8.548841            4.996319
| 20>   H                      -4.669456            -7.560262            6.890230
| 21>   H                      -4.189951            -6.589664            5.541535
| 22>   H                      -5.521018            -6.052839            6.421216
| 23> *
| 24>
| 25> #Run DFT-D3 single point of the molecule with dimer basis set
| 26> $new_job
| 27> %base "8-88_DFT_A"
| 28> ! wB97X-D3 def2-TZVP TIGHTSCF CHELPG PMODEL
| 29>
| 30> %scf
| 31> MaxIter 1000
| 32> end
| 33>
| 34> * xyz 0 1
| 35>   C                      -4.288569            -3.454093            4.046615
| 36>   O                      -4.072984            -3.445141            5.450072
| 37>   H                      -3.608082            -2.611545            5.566733
| 38>   H                      -3.328369            -3.735090            3.527382
| 39>   H                      -4.996269            -4.232074            3.685555
| 40>   H                      -4.566862            -2.490800            3.649591
| 41>   C                    : -5.045475            -6.977459            6.051964
| 42>   O                    : -5.871820            -7.739681            5.194728
| 43>   H                    : -5.413015            -8.548841            4.996319
| 44>   H                    : -4.669456            -7.560262            6.890230
| 45>   H                    : -4.189951            -6.589664            5.541535
| 46>   H                    : -5.521018            -6.052839            6.421216
| 47> *
| 48>
| 49> #Run DFT-D3 single point of the particle with dimer basis set
| 50> $new_job
| 51> %base "8-88_DFT_B"
| 52> ! wB97X-D3 def2-TZVP TIGHTSCF CHELPG PMODEL
| 53>
| 54> %scf
| 55> MaxIter 1000
| 56> end
| 57>
| 58> * xyz 0 1
| 59>   C                    : -4.288569            -3.454093            4.046615
| 60>   O                    : -4.072984            -3.445141            5.450072
| 61>   H                    : -3.608082            -2.611545            5.566733
| 62>   H                    : -3.328369            -3.735090            3.527382
| 63>   H                    : -4.996269            -4.232074            3.685555
| 64>   H                    : -4.566862            -2.490800            3.649591
| 65>   C                      -5.045475            -6.977459            6.051964
| 66>   O                      -5.871820            -7.739681            5.194728
| 67>   H                      -5.413015            -8.548841            4.996319
| 68>   H                      -4.669456            -7.560262            6.890230
| 69>   H                      -4.189951            -6.589664            5.541535
| 70>   H                      -5.521018            -6.052839            6.421216
| 71> *
| 72>
| 73>                          ****END OF INPUT****
 Total Charge           Charge          ....    0
 Multiplicity           Mult            ....    1
 Number of Electrons    NEL             ....   36
Dispersion correction           -0.001535426
FINAL SINGLE POINT ENERGY      -231.469203361790
Dispersion correction           -0.000235322
FINAL SINGLE POINT ENERGY      -115.732548304342

CARTESIAN COORDINATES (ANGSTROEM)
---------------------------------
  C     -4.288569   -3.454093    4.046615
  O     -4.072984   -3.445141    5.450072
  H     -3.608082   -2.611545    5.566733
  H     -3.328369   -3.735090    3.527382
  H     -4.996269   -4.232074    3.685555
  H     -4.566862   -2.490800    3.649591
  C     -5.045475   -6.977459    6.051964
  O     -5.871820   -7.739681    5.194728
  H     -5.413015   -8.548841    4.996319
  H     -4.669456   -7.560262    6.890230
  H     -4.189951   -6.589664    5.541535
  H     -5.521018   -6.052839    6.421216

 Multiplicity           Mult            ....    1
 Number of Electrons    NEL             ....   18
 Basis Dimension        Dim             ....  172

ORBITAL ENERGIES
----------------

  NO   OCC          E(Eh)            E(eV)
   0   2.0000     -19.230648      -523.2925
   1   2.0000     -10.310113      -280.5525
   2   2.0000      -1.138468       -30.9793
   3   2.0000      -0.799022       -21.7425
   4   2.0000      -0.613670       -16.6988
   5   2.0000      -0.543655       -14.7936
   6   2.0000      -0.527380       -14.3507
   7   2.0000      -0.434503       -11.8234
   8   2.0000      -0.373795       -10.1715
   9   0.0000       0.084182         2.2907
  10   0.0000       0.119144         3.2421
  11   0.0000       0.152812         4.1582
  12   0.0000       0.169032         4.5996
  13   0.0000       0.184912         5.0317

MULLIKEN ATOMIC CHARGES
-----------------------
   0 C :   -0.000902
   1 O :   -0.000482
   2 H :   -0.000103
   3 H :   -0.000069
   4 H :    0.000801
   5 H :    0.000089
   6 C :   -0.170205
   7 O :   -0.469138
   8 H :    0.314121
   9 H :    0.105939
  10 H :    0.103229
  11 H :    0.116720
Sum of atomic charges:    0.0000000

LOEWDIN ATOMIC CHARGES
----------------------
   0 C :   -0.001896
   1 O :   -0.001065
   2 H :   -0.000053
   3 H :   -0.000118
   4 H :   -0.000366
   5 H :   -0.000017
   6 C :   -0.386248
   7 O :   -0.070113
   8 H :    0.164625
   9 H :    0.094142
  10 H :    0.089402
  11 H :    0.111705

  Mayer bond orders larger than 0.1
B(  6-C ,  7-O ) :   0.9956 B(  6-C ,  9-H ) :   0.9763 B(  6-C , 10-H ) :   0.9769
B(  6-C , 11-H ) :   0.9734 B(  7-O ,  8-H ) :   0.9000

Dispersion correction           -0.000238917
FINAL SINGLE POINT ENERGY      -115.734516596070

DIPOLE MOMENT
-------------
                                X             Y             Z
Electronic contribution:     -1.22693      -0.93533      -1.09537
Nuclear contribution   :      1.86067       0.73263       1.30603
                        -----------------------------------------
Total Dipole Moment    :      0.63374      -0.20271       0.21066
                        -----------------------------------------
Magnitude (a.u.)       :      0.69792
Magnitude (Debye)      :      1.77398

Rotational constants in cm-1:     4.451864     0.828626     0.794993
Rotational constants in MHz : 133463.526424 24841.591027 23833.288224

                             ****ORCA TERMINATED NORMALLY****
TOTAL RUN TIME: 0 days 0 hours 0 minutes 44 seconds 861 msec
