                         Program Version 4.1.2  - RELEASE  -
|  1> #Run DFT-D3 single point of the dimer
|  2> ! wB97X-D3 def2-TZVP TIGHTSCF CHELPG PMODEL PAL8
|  3>
|  4> %base "15-72_DFT_AB"
|  5>
|  6> %scf
|  7> MaxIter 1000
|  8> end
|  9>
| 10> * xyz 0 1
| 11>   C                      0.395747             0.499302             3.166637
| 12>   O                      -0.741435            1.109411             2.820772
| 13>   H                      -1.443136            0.800324             3.428644
| 14>   H                      0.572906             0.753819             4.234277
| 15>   H                      0.320529             -0.597235            3.056164
| 16>   H                      1.203881             0.845296             2.442496
| 17>   C                      -0.069685            3.844129             0.063434
| 18>   O                      -0.104926            5.211639             0.418285
| 19>   H                      0.753784             5.502813             0.660447
| 20>   H                      -0.962979            3.347517             -0.377816
| 21>   H                      0.827611             3.554464             -0.528559
| 22>   H                      0.022119             3.317603             0.991936
| 23> *
| 24>
| 25> #Run DFT-D3 single point of the molecule with dimer basis set
| 26> $new_job
| 27> %base "15-72_DFT_A"
| 28> ! wB97X-D3 def2-TZVP TIGHTSCF CHELPG PMODEL
| 29>
| 30> %scf
| 31> MaxIter 1000
| 32> end
| 33>
| 34> * xyz 0 1
| 35>   C                      0.395747             0.499302             3.166637
| 36>   O                      -0.741435            1.109411             2.820772
| 37>   H                      -1.443136            0.800324             3.428644
| 38>   H                      0.572906             0.753819             4.234277
| 39>   H                      0.320529             -0.597235            3.056164
| 40>   H                      1.203881             0.845296             2.442496
| 41>   C                    : -0.069685            3.844129             0.063434
| 42>   O                    : -0.104926            5.211639             0.418285
| 43>   H                    : 0.753784             5.502813             0.660447
| 44>   H                    : -0.962979            3.347517             -0.377816
| 45>   H                    : 0.827611             3.554464             -0.528559
| 46>   H                    : 0.022119             3.317603             0.991936
| 47> *
| 48>
| 49> #Run DFT-D3 single point of the particle with dimer basis set
| 50> $new_job
| 51> %base "15-72_DFT_B"
| 52> ! wB97X-D3 def2-TZVP TIGHTSCF CHELPG PMODEL
| 53>
| 54> %scf
| 55> MaxIter 1000
| 56> end
| 57>
| 58> * xyz 0 1
| 59>   C                    : 0.395747             0.499302             3.166637
| 60>   O                    : -0.741435            1.109411             2.820772
| 61>   H                    : -1.443136            0.800324             3.428644
| 62>   H                    : 0.572906             0.753819             4.234277
| 63>   H                    : 0.320529             -0.597235            3.056164
| 64>   H                    : 1.203881             0.845296             2.442496
| 65>   C                      -0.069685            3.844129             0.063434
| 66>   O                      -0.104926            5.211639             0.418285
| 67>   H                      0.753784             5.502813             0.660447
| 68>   H                      -0.962979            3.347517             -0.377816
| 69>   H                      0.827611             3.554464             -0.528559
| 70>   H                      0.022119             3.317603             0.991936
| 71> *
| 72>
| 73>                          ****END OF INPUT****
 Total Charge           Charge          ....    0
 Multiplicity           Mult            ....    1
 Number of Electrons    NEL             ....   36
Dispersion correction           -0.001188156
FINAL SINGLE POINT ENERGY      -231.456803321212
Dispersion correction           -0.000199292
FINAL SINGLE POINT ENERGY      -115.728318706996

CARTESIAN COORDINATES (ANGSTROEM)
---------------------------------
  C      0.395747    0.499302    3.166637
  O     -0.741435    1.109411    2.820772
  H     -1.443136    0.800324    3.428644
  H      0.572906    0.753819    4.234277
  H      0.320529   -0.597235    3.056164
  H      1.203881    0.845296    2.442496
  C     -0.069685    3.844129    0.063434
  O     -0.104926    5.211639    0.418285
  H      0.753784    5.502813    0.660447
  H     -0.962979    3.347517   -0.377816
  H      0.827611    3.554464   -0.528559
  H      0.022119    3.317603    0.991936

 Multiplicity           Mult            ....    1
 Number of Electrons    NEL             ....   18
 Basis Dimension        Dim             ....  172

ORBITAL ENERGIES
----------------

  NO   OCC          E(Eh)            E(eV)
   0   2.0000     -19.228135      -523.2241
   1   2.0000     -10.315503      -280.6991
   2   2.0000      -1.140108       -31.0239
   3   2.0000      -0.798888       -21.7389
   4   2.0000      -0.614996       -16.7349
   5   2.0000      -0.538612       -14.6564
   6   2.0000      -0.533135       -14.5073
   7   2.0000      -0.429831       -11.6963
   8   2.0000      -0.369668       -10.0592
   9   0.0000       0.082792         2.2529
  10   0.0000       0.118994         3.2380
  11   0.0000       0.147268         4.0074
  12   0.0000       0.164853         4.4859
  13   0.0000       0.186323         5.0701

MULLIKEN ATOMIC CHARGES
-----------------------
   0 C :   -0.000050
   1 O :   -0.000123
   2 H :   -0.000035
   3 H :   -0.000025
   4 H :   -0.000027
   5 H :   -0.000810
   6 C :   -0.178064
   7 O :   -0.476783
   8 H :    0.317406
   9 H :    0.123727
  10 H :    0.105129
  11 H :    0.109655
Sum of atomic charges:   -0.0000000

LOEWDIN ATOMIC CHARGES
----------------------
   0 C :   -0.001529
   1 O :   -0.001728
   2 H :   -0.000102
   3 H :   -0.000023
   4 H :   -0.000020
   5 H :   -0.000844
   6 C :   -0.391549
   7 O :   -0.067777
   8 H :    0.157223
   9 H :    0.114348
  10 H :    0.098889
  11 H :    0.093113

  Mayer bond orders larger than 0.1
B(  6-C ,  7-O ) :   0.9783 B(  6-C ,  9-H ) :   0.9652 B(  6-C , 10-H ) :   0.9767
B(  6-C , 11-H ) :   0.9876 B(  7-O ,  8-H ) :   0.8980

Dispersion correction           -0.000245467
FINAL SINGLE POINT ENERGY      -115.727348926739

DIPOLE MOMENT
-------------
                                X             Y             Z
Electronic contribution:     -0.25028       1.88956       0.29682
Nuclear contribution   :      0.81926      -2.26878      -0.25879
                        -----------------------------------------
Total Dipole Moment    :      0.56899      -0.37922       0.03803
                        -----------------------------------------
Magnitude (a.u.)       :      0.68483
Magnitude (Debye)      :      1.74071

Rotational constants in cm-1:     4.502334     0.822192     0.788540
Rotational constants in MHz : 134976.563288 24648.701887 23639.821965

                             ****ORCA TERMINATED NORMALLY****
TOTAL RUN TIME: 0 days 0 hours 1 minutes 1 seconds 10 msec
