                         Program Version 4.1.2  - RELEASE  -
|  1> #Run DFT-D3 single point of the dimer
|  2> ! wB97X-D3 def2-TZVP TIGHTSCF CHELPG PMODEL PAL8
|  3>
|  4> %base "12-104_DFT_AB"
|  5>
|  6> %scf
|  7> MaxIter 1000
|  8> end
|  9>
| 10> * xyz 0 1
| 11>   C                      -4.396208            -10.088231           7.968100
| 12>   O                      -4.541358            -10.043016           9.397026
| 13>   H                      -5.374781            -10.508898           9.367996
| 14>   H                      -3.640328            -10.774000           7.645287
| 15>   H                      -5.301122            -10.360672           7.370571
| 16>   H                      -4.204147            -9.012225            7.653104
| 17>   C                      -5.535434            -7.265024            10.706028
| 18>   O                      -4.300322            -6.619161            10.970741
| 19>   H                      -3.704640            -7.276469            10.740639
| 20>   H                      -5.820015            -7.945253            11.487688
| 21>   H                      -6.413249            -6.635410            10.581916
| 22>   H                      -5.440893            -7.870168            9.772601
| 23> *
| 24>
| 25> #Run DFT-D3 single point of the molecule with dimer basis set
| 26> $new_job
| 27> %base "12-104_DFT_A"
| 28> ! wB97X-D3 def2-TZVP TIGHTSCF CHELPG PMODEL
| 29>
| 30> %scf
| 31> MaxIter 1000
| 32> end
| 33>
| 34> * xyz 0 1
| 35>   C                      -4.396208            -10.088231           7.968100
| 36>   O                      -4.541358            -10.043016           9.397026
| 37>   H                      -5.374781            -10.508898           9.367996
| 38>   H                      -3.640328            -10.774000           7.645287
| 39>   H                      -5.301122            -10.360672           7.370571
| 40>   H                      -4.204147            -9.012225            7.653104
| 41>   C                    : -5.535434            -7.265024            10.706028
| 42>   O                    : -4.300322            -6.619161            10.970741
| 43>   H                    : -3.704640            -7.276469            10.740639
| 44>   H                    : -5.820015            -7.945253            11.487688
| 45>   H                    : -6.413249            -6.635410            10.581916
| 46>   H                    : -5.440893            -7.870168            9.772601
| 47> *
| 48>
| 49> #Run DFT-D3 single point of the particle with dimer basis set
| 50> $new_job
| 51> %base "12-104_DFT_B"
| 52> ! wB97X-D3 def2-TZVP TIGHTSCF CHELPG PMODEL
| 53>
| 54> %scf
| 55> MaxIter 1000
| 56> end
| 57>
| 58> * xyz 0 1
| 59>   C                    : -4.396208            -10.088231           7.968100
| 60>   O                    : -4.541358            -10.043016           9.397026
| 61>   H                    : -5.374781            -10.508898           9.367996
| 62>   H                    : -3.640328            -10.774000           7.645287
| 63>   H                    : -5.301122            -10.360672           7.370571
| 64>   H                    : -4.204147            -9.012225            7.653104
| 65>   C                      -5.535434            -7.265024            10.706028
| 66>   O                      -4.300322            -6.619161            10.970741
| 67>   H                      -3.704640            -7.276469            10.740639
| 68>   H                      -5.820015            -7.945253            11.487688
| 69>   H                      -6.413249            -6.635410            10.581916
| 70>   H                      -5.440893            -7.870168            9.772601
| 71> *
| 72>
| 73>                          ****END OF INPUT****
 Total Charge           Charge          ....    0
 Multiplicity           Mult            ....    1
 Number of Electrons    NEL             ....   36
Dispersion correction           -0.001875067
FINAL SINGLE POINT ENERGY      -231.456179592699
Dispersion correction           -0.000233979
FINAL SINGLE POINT ENERGY      -115.723854245133

CARTESIAN COORDINATES (ANGSTROEM)
---------------------------------
  C     -4.396208  -10.088231    7.968100
  O     -4.541358  -10.043016    9.397026
  H     -5.374781  -10.508898    9.367996
  H     -3.640328  -10.774000    7.645287
  H     -5.301122  -10.360672    7.370571
  H     -4.204147   -9.012225    7.653104
  C     -5.535434   -7.265024   10.706028
  O     -4.300322   -6.619161   10.970741
  H     -3.704640   -7.276469   10.740639
  H     -5.820015   -7.945253   11.487688
  H     -6.413249   -6.635410   10.581916
  H     -5.440893   -7.870168    9.772601

 Multiplicity           Mult            ....    1
 Number of Electrons    NEL             ....   18
 Basis Dimension        Dim             ....  172

ORBITAL ENERGIES
----------------

  NO   OCC          E(Eh)            E(eV)
   0   2.0000     -19.229934      -523.2731
   1   2.0000     -10.314258      -280.6652
   2   2.0000      -1.150125       -31.2965
   3   2.0000      -0.798559       -21.7299
   4   2.0000      -0.614296       -16.7159
   5   2.0000      -0.541981       -14.7481
   6   2.0000      -0.534244       -14.5375
   7   2.0000      -0.440191       -11.9782
   8   2.0000      -0.376323       -10.2403
   9   0.0000       0.074667         2.0318
  10   0.0000       0.126370         3.4387
  11   0.0000       0.147724         4.0198
  12   0.0000       0.172065         4.6821
  13   0.0000       0.188022         5.1163

MULLIKEN ATOMIC CHARGES
-----------------------
   0 C :    0.000159
   1 O :    0.000176
   2 H :   -0.000743
   3 H :    0.000019
   4 H :   -0.000059
   5 H :    0.000766
   6 C :   -0.181166
   7 O :   -0.451625
   8 H :    0.307507
   9 H :    0.107688
  10 H :    0.121318
  11 H :    0.095960
Sum of atomic charges:   -0.0000000

LOEWDIN ATOMIC CHARGES
----------------------
   0 C :   -0.004590
   1 O :   -0.008477
   2 H :   -0.001839
   3 H :   -0.000074
   4 H :   -0.000107
   5 H :   -0.001181
   6 C :   -0.378887
   7 O :   -0.054495
   8 H :    0.144228
   9 H :    0.092308
  10 H :    0.105689
  11 H :    0.107425

  Mayer bond orders larger than 0.1
B(  6-C ,  7-O ) :   0.9984 B(  6-C ,  9-H ) :   0.9745 B(  6-C , 10-H ) :   0.9721
B(  6-C , 11-H ) :   0.9899 B(  7-O ,  8-H ) :   0.9137

Dispersion correction           -0.000227322
FINAL SINGLE POINT ENERGY      -115.730119408224

DIPOLE MOMENT
-------------
                                X             Y             Z
Electronic contribution:      1.56319       1.08776       0.44431
Nuclear contribution   :     -1.67983      -1.75230      -0.69181
                        -----------------------------------------
Total Dipole Moment    :     -0.11664      -0.66454      -0.24750
                        -----------------------------------------
Magnitude (a.u.)       :      0.71866
Magnitude (Debye)      :      1.82668

Rotational constants in cm-1:     4.439579     0.829034     0.797850
Rotational constants in MHz : 133095.218976 24853.809241 23918.945657

                             ****ORCA TERMINATED NORMALLY****
TOTAL RUN TIME: 0 days 0 hours 1 minutes 8 seconds 445 msec
