                         Program Version 4.1.2  - RELEASE  -
|  1> #Run DFT-D3 single point of the dimer
|  2> ! wB97X-D3 def2-TZVP TIGHTSCF CHELPG PMODEL PAL8
|  3>
|  4> %base "18-203_DFT_AB"
|  5>
|  6> %scf
|  7> MaxIter 1000
|  8> end
|  9>
| 10> * xyz 0 1
| 11>   C                      -1.213343            0.238538             -5.928642
| 12>   O                      -0.050785            -0.426938            -5.367251
| 13>   H                      -0.363767            -1.170551            -4.851548
| 14>   H                      -1.967699            0.294917             -5.170650
| 15>   H                      -1.050817            1.218659             -6.355750
| 16>   H                      -1.637108            -0.357791            -6.780960
| 17>   C                      0.218613             -3.774525            -3.429401
| 18>   O                      -0.607822            -3.042870            -4.238015
| 19>   H                      -0.933965            -3.609689            -4.932141
| 20>   H                      0.524269             -3.125596            -2.622507
| 21>   H                      -0.271415            -4.676162            -3.031674
| 22>   H                      1.146558             -4.186064            -3.897141
| 23> *
| 24>
| 25> #Run DFT-D3 single point of the molecule with dimer basis set
| 26> $new_job
| 27> %base "18-203_DFT_A"
| 28> ! wB97X-D3 def2-TZVP TIGHTSCF CHELPG PMODEL
| 29>
| 30> %scf
| 31> MaxIter 1000
| 32> end
| 33>
| 34> * xyz 0 1
| 35>   C                      -1.213343            0.238538             -5.928642
| 36>   O                      -0.050785            -0.426938            -5.367251
| 37>   H                      -0.363767            -1.170551            -4.851548
| 38>   H                      -1.967699            0.294917             -5.170650
| 39>   H                      -1.050817            1.218659             -6.355750
| 40>   H                      -1.637108            -0.357791            -6.780960
| 41>   C                    : 0.218613             -3.774525            -3.429401
| 42>   O                    : -0.607822            -3.042870            -4.238015
| 43>   H                    : -0.933965            -3.609689            -4.932141
| 44>   H                    : 0.524269             -3.125596            -2.622507
| 45>   H                    : -0.271415            -4.676162            -3.031674
| 46>   H                    : 1.146558             -4.186064            -3.897141
| 47> *
| 48>
| 49> #Run DFT-D3 single point of the particle with dimer basis set
| 50> $new_job
| 51> %base "18-203_DFT_B"
| 52> ! wB97X-D3 def2-TZVP TIGHTSCF CHELPG PMODEL
| 53>
| 54> %scf
| 55> MaxIter 1000
| 56> end
| 57>
| 58> * xyz 0 1
| 59>   C                    : -1.213343            0.238538             -5.928642
| 60>   O                    : -0.050785            -0.426938            -5.367251
| 61>   H                    : -0.363767            -1.170551            -4.851548
| 62>   H                    : -1.967699            0.294917             -5.170650
| 63>   H                    : -1.050817            1.218659             -6.355750
| 64>   H                    : -1.637108            -0.357791            -6.780960
| 65>   C                      0.218613             -3.774525            -3.429401
| 66>   O                      -0.607822            -3.042870            -4.238015
| 67>   H                      -0.933965            -3.609689            -4.932141
| 68>   H                      0.524269             -3.125596            -2.622507
| 69>   H                      -0.271415            -4.676162            -3.031674
| 70>   H                      1.146558             -4.186064            -3.897141
| 71> *
| 72>
| 73>                          ****END OF INPUT****
 Total Charge           Charge          ....    0
 Multiplicity           Mult            ....    1
 Number of Electrons    NEL             ....   36
Dispersion correction           -0.001544404
FINAL SINGLE POINT ENERGY      -231.475279501585
Dispersion correction           -0.000253540
FINAL SINGLE POINT ENERGY      -115.732494474509

CARTESIAN COORDINATES (ANGSTROEM)
---------------------------------
  C     -1.213343    0.238538   -5.928642
  O     -0.050785   -0.426938   -5.367251
  H     -0.363767   -1.170551   -4.851548
  H     -1.967699    0.294917   -5.170650
  H     -1.050817    1.218659   -6.355750
  H     -1.637108   -0.357791   -6.780960
  C      0.218613   -3.774525   -3.429401
  O     -0.607822   -3.042870   -4.238015
  H     -0.933965   -3.609689   -4.932141
  H      0.524269   -3.125596   -2.622507
  H     -0.271415   -4.676162   -3.031674
  H      1.146558   -4.186064   -3.897141

 Multiplicity           Mult            ....    1
 Number of Electrons    NEL             ....   18
 Basis Dimension        Dim             ....  172

ORBITAL ENERGIES
----------------

  NO   OCC          E(Eh)            E(eV)
   0   2.0000     -19.233333      -523.3656
   1   2.0000     -10.310177      -280.5542
   2   2.0000      -1.154319       -31.4106
   3   2.0000      -0.794906       -21.6305
   4   2.0000      -0.625610       -17.0237
   5   2.0000      -0.540048       -14.6955
   6   2.0000      -0.532896       -14.5008
   7   2.0000      -0.436581       -11.8800
   8   2.0000      -0.370769       -10.0891
   9   0.0000       0.097252         2.6464
  10   0.0000       0.123064         3.3487
  11   0.0000       0.155785         4.2391
  12   0.0000       0.186657         5.0792
  13   0.0000       0.203823         5.5463

MULLIKEN ATOMIC CHARGES
-----------------------
   0 C :    0.000752
   1 O :   -0.001770
   2 H :   -0.006746
   3 H :   -0.000661
   4 H :   -0.000067
   5 H :   -0.000379
   6 C :   -0.148419
   7 O :   -0.453797
   8 H :    0.313516
   9 H :    0.120466
  10 H :    0.090792
  11 H :    0.086315
Sum of atomic charges:    0.0000000

LOEWDIN ATOMIC CHARGES
----------------------
   0 C :   -0.001714
   1 O :   -0.006011
   2 H :   -0.039179
   3 H :   -0.000210
   4 H :   -0.000024
   5 H :   -0.000115
   6 C :   -0.422535
   7 O :    0.004039
   8 H :    0.170029
   9 H :    0.107930
  10 H :    0.094210
  11 H :    0.093580

  Mayer bond orders larger than 0.1
B(  6-C ,  7-O ) :   1.0018 B(  6-C ,  9-H ) :   0.9790 B(  6-C , 10-H ) :   0.9735
B(  6-C , 11-H ) :   0.9690 B(  7-O ,  8-H ) :   0.8967

Dispersion correction           -0.000231797
FINAL SINGLE POINT ENERGY      -115.735398474023

DIPOLE MOMENT
-------------
                                X             Y             Z
Electronic contribution:     -1.12526       1.14726      -1.02021
Nuclear contribution   :      1.20719      -1.77489       0.88143
                        -----------------------------------------
Total Dipole Moment    :      0.08193      -0.62763      -0.13878
                        -----------------------------------------
Magnitude (a.u.)       :      0.64799
Magnitude (Debye)      :      1.64705

Rotational constants in cm-1:     4.342464     0.873907     0.836093
Rotational constants in MHz : 130183.783328 26199.075379 25065.425069

                             ****ORCA TERMINATED NORMALLY****
TOTAL RUN TIME: 0 days 0 hours 1 minutes 6 seconds 833 msec
