                         Program Version 4.1.2  - RELEASE  -
|  1> #Run DFT geometry optimization
|  2> ! wB97X-D3 def2-TZVP TIGHTSCF Grid5 FinalGrid6 Opt CHELPG PAL4
|  3>
|  4> %base "0_geo_opt"
|  5> %geom MaxIter 500
|  6> end
|  7>
|  8> %geom
|  9>   Constraints
| 10>     { A 5 0 4 C }
| 11>   end
| 12> end
| 13>
| 14>
| 15> * xyz 0 1
| 16>   C                    3.011308             -1.180897            0.598492
| 17>   O                    4.394673             -1.128050            0.874308
| 18>   H                    4.772196             -0.379022            0.412493
| 19>   H                    2.806434             -1.318965            -0.469350
| 20>   H                    2.614614             -2.043116            1.133536
| 21>   H                    2.487365             -0.281816            0.942674
| 22> *
| 23>
| 24>                          ****END OF INPUT****
 Total Charge           Charge          ....    0
 Multiplicity           Mult            ....    1
 Number of Electrons    NEL             ....   18
Dispersion correction           -0.000238701
FINAL SINGLE POINT ENERGY      -115.738044602609
Dispersion correction            ... done
                    ***********************HURRAY********************

CARTESIAN COORDINATES (ANGSTROEM)
---------------------------------
  C      3.011195   -1.180907    0.598766
  O      4.394857   -1.127953    0.874234
  H      4.772387   -0.379032    0.412267
  H      2.806704   -1.318900   -0.469329
  H      2.614311   -2.043086    1.133480
  H      2.487136   -0.281988    0.942735

 Multiplicity           Mult            ....    1
 Number of Electrons    NEL             ....   18
 Basis Dimension        Dim             ....   86

ORBITAL ENERGIES
----------------

  NO   OCC          E(Eh)            E(eV)
   0   2.0000     -19.227967      -523.2196
   1   2.0000     -10.315128      -280.6889
   2   2.0000      -1.136688       -30.9308
   3   2.0000      -0.795296       -21.6411
   4   2.0000      -0.611616       -16.6429
   5   2.0000      -0.541634       -14.7386
   6   2.0000      -0.526291       -14.3211
   7   2.0000      -0.433963       -11.8087
   8   2.0000      -0.373473       -10.1627
   9   0.0000       0.116581         3.1723
  10   0.0000       0.156800         4.2667
  11   0.0000       0.202497         5.5102
  12   0.0000       0.205041         5.5795
  13   0.0000       0.226430         6.1615

MULLIKEN ATOMIC CHARGES
-----------------------
   0 C :   -0.150654
   1 O :   -0.477810
   2 H :    0.312913
   3 H :    0.098465
   4 H :    0.118360
   5 H :    0.098725
Sum of atomic charges:   -0.0000000

LOEWDIN ATOMIC CHARGES
----------------------
   0 C :   -0.384769
   1 O :   -0.076400
   2 H :    0.165687
   3 H :    0.093373
   4 H :    0.108711
   5 H :    0.093397

  Mayer bond orders larger than 0.1
B(  0-C ,  1-O ) :   0.9984 B(  0-C ,  3-H ) :   0.9755 B(  0-C ,  4-H ) :   0.9749
B(  0-C ,  5-H ) :   0.9756 B(  1-O ,  2-H ) :   0.9003

Dispersion correction           -0.000238792
FINAL SINGLE POINT ENERGY      -115.738044895323

DIPOLE MOMENT
-------------
                                X             Y             Z
Electronic contribution:      1.75144      -0.02802       0.42382
Nuclear contribution   :     -2.06132       0.47544      -0.82224
                        -----------------------------------------
Total Dipole Moment    :     -0.30989       0.44742      -0.39843
                        -----------------------------------------
Magnitude (a.u.)       :      0.67451
Magnitude (Debye)      :      1.71446

Rotational constants in cm-1:     4.289266     0.834077     0.804859
Rotational constants in MHz : 128588.970949 25004.993457 24129.072497

                             ****ORCA TERMINATED NORMALLY****
TOTAL RUN TIME: 0 days 0 hours 0 minutes 35 seconds 398 msec
