                         Program Version 4.1.2  - RELEASE  -
|  1> #Run DFT-D3 single point of the dimer
|  2> ! wB97X-D3 def2-TZVP TIGHTSCF CHELPG PMODEL PAL8
|  3>
|  4> %base "19-105_DFT_AB"
|  5>
|  6> %scf
|  7> MaxIter 1000
|  8> end
|  9>
| 10> * xyz 0 1
| 11>   C                      10.695585            5.804026             -9.585432
| 12>   O                      10.520854            4.713502             -8.722632
| 13>   H                      10.299957            5.135141             -7.866166
| 14>   H                      11.089620            5.402777             -10.519049
| 15>   H                      9.779639             6.421214             -9.795723
| 16>   H                      11.544549            6.403537             -9.255654
| 17>   C                      9.705345             8.002964             -6.774261
| 18>   O                      10.870293            7.192930             -6.781028
| 19>   H                      11.272587            7.134577             -5.887685
| 20>   H                      9.940072             8.949970             -7.239887
| 21>   H                      8.999574             7.559774             -7.419331
| 22>   H                      9.280631             8.152918             -5.781353
| 23> *
| 24>
| 25> #Run DFT-D3 single point of the molecule with dimer basis set
| 26> $new_job
| 27> %base "19-105_DFT_A"
| 28> ! wB97X-D3 def2-TZVP TIGHTSCF CHELPG PMODEL
| 29>
| 30> %scf
| 31> MaxIter 1000
| 32> end
| 33>
| 34> * xyz 0 1
| 35>   C                      10.695585            5.804026             -9.585432
| 36>   O                      10.520854            4.713502             -8.722632
| 37>   H                      10.299957            5.135141             -7.866166
| 38>   H                      11.089620            5.402777             -10.519049
| 39>   H                      9.779639             6.421214             -9.795723
| 40>   H                      11.544549            6.403537             -9.255654
| 41>   C                    : 9.705345             8.002964             -6.774261
| 42>   O                    : 10.870293            7.192930             -6.781028
| 43>   H                    : 11.272587            7.134577             -5.887685
| 44>   H                    : 9.940072             8.949970             -7.239887
| 45>   H                    : 8.999574             7.559774             -7.419331
| 46>   H                    : 9.280631             8.152918             -5.781353
| 47> *
| 48>
| 49> #Run DFT-D3 single point of the particle with dimer basis set
| 50> $new_job
| 51> %base "19-105_DFT_B"
| 52> ! wB97X-D3 def2-TZVP TIGHTSCF CHELPG PMODEL
| 53>
| 54> %scf
| 55> MaxIter 1000
| 56> end
| 57>
| 58> * xyz 0 1
| 59>   C                    : 10.695585            5.804026             -9.585432
| 60>   O                    : 10.520854            4.713502             -8.722632
| 61>   H                    : 10.299957            5.135141             -7.866166
| 62>   H                    : 11.089620            5.402777             -10.519049
| 63>   H                    : 9.779639             6.421214             -9.795723
| 64>   H                    : 11.544549            6.403537             -9.255654
| 65>   C                      9.705345             8.002964             -6.774261
| 66>   O                      10.870293            7.192930             -6.781028
| 67>   H                      11.272587            7.134577             -5.887685
| 68>   H                      9.940072             8.949970             -7.239887
| 69>   H                      8.999574             7.559774             -7.419331
| 70>   H                      9.280631             8.152918             -5.781353
| 71> *
| 72>
| 73>                          ****END OF INPUT****
 Total Charge           Charge          ....    0
 Multiplicity           Mult            ....    1
 Number of Electrons    NEL             ....   36
Dispersion correction           -0.002298460
FINAL SINGLE POINT ENERGY      -231.473573234859
Dispersion correction           -0.000234765
FINAL SINGLE POINT ENERGY      -115.733557471384

CARTESIAN COORDINATES (ANGSTROEM)
---------------------------------
  C     10.695585    5.804026   -9.585432
  O     10.520854    4.713502   -8.722632
  H     10.299957    5.135141   -7.866166
  H     11.089620    5.402777  -10.519049
  H      9.779639    6.421214   -9.795723
  H     11.544549    6.403537   -9.255654
  C      9.705345    8.002964   -6.774261
  O     10.870293    7.192930   -6.781028
  H     11.272587    7.134577   -5.887685
  H      9.940072    8.949970   -7.239887
  H      8.999574    7.559774   -7.419331
  H      9.280631    8.152918   -5.781353

 Multiplicity           Mult            ....    1
 Number of Electrons    NEL             ....   18
 Basis Dimension        Dim             ....  172

ORBITAL ENERGIES
----------------

  NO   OCC          E(Eh)            E(eV)
   0   2.0000     -19.228943      -523.2461
   1   2.0000     -10.306694      -280.4594
   2   2.0000      -1.127510       -30.6811
   3   2.0000      -0.799732       -21.7618
   4   2.0000      -0.608335       -16.5536
   5   2.0000      -0.538754       -14.6602
   6   2.0000      -0.532604       -14.4929
   7   2.0000      -0.433981       -11.8092
   8   2.0000      -0.369710       -10.0603
   9   0.0000       0.097907         2.6642
  10   0.0000       0.127410         3.4670
  11   0.0000       0.154492         4.2039
  12   0.0000       0.184048         5.0082
  13   0.0000       0.197553         5.3757

MULLIKEN ATOMIC CHARGES
-----------------------
   0 C :    0.012344
   1 O :   -0.000532
   2 H :   -0.009854
   3 H :   -0.000157
   4 H :   -0.000770
   5 H :   -0.009778
   6 C :   -0.158721
   7 O :   -0.480327
   8 H :    0.315771
   9 H :    0.104148
  10 H :    0.120802
  11 H :    0.107075
Sum of atomic charges:   -0.0000000

LOEWDIN ATOMIC CHARGES
----------------------
   0 C :   -0.011190
   1 O :   -0.001904
   2 H :   -0.015326
   3 H :   -0.000058
   4 H :   -0.001056
   5 H :   -0.006762
   6 C :   -0.369526
   7 O :   -0.065903
   8 H :    0.179011
   9 H :    0.097024
  10 H :    0.097876
  11 H :    0.097814

  Mayer bond orders larger than 0.1
B(  6-C ,  7-O ) :   0.9997 B(  6-C ,  9-H ) :   0.9797 B(  6-C , 10-H ) :   0.9803
B(  6-C , 11-H ) :   0.9753 B(  7-O ,  8-H ) :   0.8942

Dispersion correction           -0.000248889
FINAL SINGLE POINT ENERGY      -115.734077720845

DIPOLE MOMENT
-------------
                                X             Y             Z
Electronic contribution:      1.39287      -1.03813      -0.05611
Nuclear contribution   :     -1.62384       1.33591       0.64277
                        -----------------------------------------
Total Dipole Moment    :     -0.23097       0.29778       0.58666
                        -----------------------------------------
Magnitude (a.u.)       :      0.69727
Magnitude (Debye)      :      1.77232

Rotational constants in cm-1:     4.393280     0.830976     0.795307
Rotational constants in MHz : 131707.228647 24912.032522 23842.713561

                             ****ORCA TERMINATED NORMALLY****
TOTAL RUN TIME: 0 days 0 hours 0 minutes 54 seconds 198 msec
