                         Program Version 4.1.2  - RELEASE  -
|  1> #Run DFT-D3 single point of the dimer
|  2> ! wB97X-D3 def2-TZVP TIGHTSCF CHELPG PMODEL PAL8
|  3>
|  4> %base "8-167_DFT_AB"
|  5>
|  6> %scf
|  7> MaxIter 1000
|  8> end
|  9>
| 10> * xyz 0 1
| 11>   C                      -5.503489            -1.823382            -3.854024
| 12>   O                      -6.297757            -0.649085            -3.729353
| 13>   H                      -6.427129            -0.363208            -4.663941
| 14>   H                      -6.107571            -2.712703            -4.141055
| 15>   H                      -4.877116            -1.810856            -4.734280
| 16>   H                      -4.867101            -2.034921            -2.975977
| 17>   C                      -7.175575            2.102630             -1.137737
| 18>   O                      -6.360811            1.215459             -1.860402
| 19>   H                      -6.884850            0.520628             -2.253676
| 20>   H                      -7.351709            3.163128             -1.493092
| 21>   H                      -8.215641            1.709698             -1.142995
| 22>   H                      -6.928180            2.110446             -0.125712
| 23> *
| 24>
| 25> #Run DFT-D3 single point of the molecule with dimer basis set
| 26> $new_job
| 27> %base "8-167_DFT_A"
| 28> ! wB97X-D3 def2-TZVP TIGHTSCF CHELPG PMODEL
| 29>
| 30> %scf
| 31> MaxIter 1000
| 32> end
| 33>
| 34> * xyz 0 1
| 35>   C                      -5.503489            -1.823382            -3.854024
| 36>   O                      -6.297757            -0.649085            -3.729353
| 37>   H                      -6.427129            -0.363208            -4.663941
| 38>   H                      -6.107571            -2.712703            -4.141055
| 39>   H                      -4.877116            -1.810856            -4.734280
| 40>   H                      -4.867101            -2.034921            -2.975977
| 41>   C                    : -7.175575            2.102630             -1.137737
| 42>   O                    : -6.360811            1.215459             -1.860402
| 43>   H                    : -6.884850            0.520628             -2.253676
| 44>   H                    : -7.351709            3.163128             -1.493092
| 45>   H                    : -8.215641            1.709698             -1.142995
| 46>   H                    : -6.928180            2.110446             -0.125712
| 47> *
| 48>
| 49> #Run DFT-D3 single point of the particle with dimer basis set
| 50> $new_job
| 51> %base "8-167_DFT_B"
| 52> ! wB97X-D3 def2-TZVP TIGHTSCF CHELPG PMODEL
| 53>
| 54> %scf
| 55> MaxIter 1000
| 56> end
| 57>
| 58> * xyz 0 1
| 59>   C                    : -5.503489            -1.823382            -3.854024
| 60>   O                    : -6.297757            -0.649085            -3.729353
| 61>   H                    : -6.427129            -0.363208            -4.663941
| 62>   H                    : -6.107571            -2.712703            -4.141055
| 63>   H                    : -4.877116            -1.810856            -4.734280
| 64>   H                    : -4.867101            -2.034921            -2.975977
| 65>   C                      -7.175575            2.102630             -1.137737
| 66>   O                      -6.360811            1.215459             -1.860402
| 67>   H                      -6.884850            0.520628             -2.253676
| 68>   H                      -7.351709            3.163128             -1.493092
| 69>   H                      -8.215641            1.709698             -1.142995
| 70>   H                      -6.928180            2.110446             -0.125712
| 71> *
| 72>
| 73>                          ****END OF INPUT****
 Total Charge           Charge          ....    0
 Multiplicity           Mult            ....    1
 Number of Electrons    NEL             ....   36
Dispersion correction           -0.001413493
FINAL SINGLE POINT ENERGY      -231.461014450543
Dispersion correction           -0.000243697
FINAL SINGLE POINT ENERGY      -115.730478055954

CARTESIAN COORDINATES (ANGSTROEM)
---------------------------------
  C     -5.503489   -1.823382   -3.854024
  O     -6.297757   -0.649085   -3.729353
  H     -6.427129   -0.363208   -4.663941
  H     -6.107571   -2.712703   -4.141055
  H     -4.877116   -1.810856   -4.734280
  H     -4.867101   -2.034921   -2.975977
  C     -7.175575    2.102630   -1.137737
  O     -6.360811    1.215459   -1.860402
  H     -6.884850    0.520628   -2.253676
  H     -7.351709    3.163128   -1.493092
  H     -8.215641    1.709698   -1.142995
  H     -6.928180    2.110446   -0.125712

 Multiplicity           Mult            ....    1
 Number of Electrons    NEL             ....   18
 Basis Dimension        Dim             ....  172

ORBITAL ENERGIES
----------------

  NO   OCC          E(Eh)            E(eV)
   0   2.0000     -19.232715      -523.3488
   1   2.0000     -10.313573      -280.6466
   2   2.0000      -1.140548       -31.0359
   3   2.0000      -0.799416       -21.7532
   4   2.0000      -0.619163       -16.8483
   5   2.0000      -0.544343       -14.8123
   6   2.0000      -0.528739       -14.3877
   7   2.0000      -0.422090       -11.4857
   8   2.0000      -0.378405       -10.2969
   9   0.0000       0.079319         2.1584
  10   0.0000       0.122026         3.3205
  11   0.0000       0.149291         4.0624
  12   0.0000       0.176395         4.7999
  13   0.0000       0.196533         5.3479

MULLIKEN ATOMIC CHARGES
-----------------------
   0 C :   -0.000996
   1 O :   -0.002686
   2 H :   -0.000907
   3 H :    0.000020
   4 H :    0.000047
   5 H :   -0.000451
   6 C :   -0.182676
   7 O :   -0.459142
   8 H :    0.321058
   9 H :    0.104744
  10 H :    0.099317
  11 H :    0.121672
Sum of atomic charges:    0.0000000

LOEWDIN ATOMIC CHARGES
----------------------
   0 C :   -0.002195
   1 O :   -0.022000
   2 H :   -0.001820
   3 H :   -0.000034
   4 H :   -0.000036
   5 H :   -0.000274
   6 C :   -0.395217
   7 O :   -0.052898
   8 H :    0.178180
   9 H :    0.105900
  10 H :    0.101092
  11 H :    0.089303

  Mayer bond orders larger than 0.1
B(  6-C ,  7-O ) :   1.0185 B(  6-C ,  9-H ) :   0.9636 B(  6-C , 10-H ) :   0.9943
B(  6-C , 11-H ) :   0.9751 B(  7-O ,  8-H ) :   0.8949

Dispersion correction           -0.000258578
FINAL SINGLE POINT ENERGY      -115.727669621926

DIPOLE MOMENT
-------------
                                X             Y             Z
Electronic contribution:      1.38502      -1.04257      -0.91751
Nuclear contribution   :     -2.07644       0.91267       0.96801
                        -----------------------------------------
Total Dipole Moment    :     -0.69142      -0.12990       0.05050
                        -----------------------------------------
Magnitude (a.u.)       :      0.70533
Magnitude (Debye)      :      1.79280

Rotational constants in cm-1:     4.509144     0.822518     0.799259
Rotational constants in MHz : 135180.746228 24658.462568 23961.170148

                             ****ORCA TERMINATED NORMALLY****
TOTAL RUN TIME: 0 days 0 hours 0 minutes 46 seconds 449 msec
