                         Program Version 4.1.2  - RELEASE  -
|  1> #Run DFT-D3 single point of the dimer
|  2> ! wB97X-D3 def2-TZVP TIGHTSCF CHELPG PMODEL PAL8
|  3>
|  4> %base "8-59_DFT_AB"
|  5>
|  6> %scf
|  7> MaxIter 1000
|  8> end
|  9>
| 10> * xyz 0 1
| 11>   C                      -1.670944            -9.559233            3.799074
| 12>   O                      -0.481268            -9.603435            3.036567
| 13>   H                      -0.736108            -9.305396            2.153526
| 14>   H                      -2.402088            -10.358033           3.567388
| 15>   H                      -1.449708            -9.797974            4.816966
| 16>   H                      -2.153882            -8.556090            3.774826
| 17>   C                      -5.045475            -6.977459            6.051964
| 18>   O                      -5.871820            -7.739681            5.194728
| 19>   H                      -5.413015            -8.548841            4.996319
| 20>   H                      -4.669456            -7.560262            6.890230
| 21>   H                      -4.189951            -6.589664            5.541535
| 22>   H                      -5.521018            -6.052839            6.421216
| 23> *
| 24>
| 25> #Run DFT-D3 single point of the molecule with dimer basis set
| 26> $new_job
| 27> %base "8-59_DFT_A"
| 28> ! wB97X-D3 def2-TZVP TIGHTSCF CHELPG PMODEL
| 29>
| 30> %scf
| 31> MaxIter 1000
| 32> end
| 33>
| 34> * xyz 0 1
| 35>   C                      -1.670944            -9.559233            3.799074
| 36>   O                      -0.481268            -9.603435            3.036567
| 37>   H                      -0.736108            -9.305396            2.153526
| 38>   H                      -2.402088            -10.358033           3.567388
| 39>   H                      -1.449708            -9.797974            4.816966
| 40>   H                      -2.153882            -8.556090            3.774826
| 41>   C                    : -5.045475            -6.977459            6.051964
| 42>   O                    : -5.871820            -7.739681            5.194728
| 43>   H                    : -5.413015            -8.548841            4.996319
| 44>   H                    : -4.669456            -7.560262            6.890230
| 45>   H                    : -4.189951            -6.589664            5.541535
| 46>   H                    : -5.521018            -6.052839            6.421216
| 47> *
| 48>
| 49> #Run DFT-D3 single point of the particle with dimer basis set
| 50> $new_job
| 51> %base "8-59_DFT_B"
| 52> ! wB97X-D3 def2-TZVP TIGHTSCF CHELPG PMODEL
| 53>
| 54> %scf
| 55> MaxIter 1000
| 56> end
| 57>
| 58> * xyz 0 1
| 59>   C                    : -1.670944            -9.559233            3.799074
| 60>   O                    : -0.481268            -9.603435            3.036567
| 61>   H                    : -0.736108            -9.305396            2.153526
| 62>   H                    : -2.402088            -10.358033           3.567388
| 63>   H                    : -1.449708            -9.797974            4.816966
| 64>   H                    : -2.153882            -8.556090            3.774826
| 65>   C                      -5.045475            -6.977459            6.051964
| 66>   O                      -5.871820            -7.739681            5.194728
| 67>   H                      -5.413015            -8.548841            4.996319
| 68>   H                      -4.669456            -7.560262            6.890230
| 69>   H                      -4.189951            -6.589664            5.541535
| 70>   H                      -5.521018            -6.052839            6.421216
| 71> *
| 72>
| 73>                          ****END OF INPUT****
 Total Charge           Charge          ....    0
 Multiplicity           Mult            ....    1
 Number of Electrons    NEL             ....   36
Dispersion correction           -0.001021239
FINAL SINGLE POINT ENERGY      -231.469639262458
Dispersion correction           -0.000248263
FINAL SINGLE POINT ENERGY      -115.734773621811

CARTESIAN COORDINATES (ANGSTROEM)
---------------------------------
  C     -1.670944   -9.559233    3.799074
  O     -0.481268   -9.603435    3.036567
  H     -0.736108   -9.305396    2.153526
  H     -2.402088  -10.358033    3.567388
  H     -1.449708   -9.797974    4.816966
  H     -2.153882   -8.556090    3.774826
  C     -5.045475   -6.977459    6.051964
  O     -5.871820   -7.739681    5.194728
  H     -5.413015   -8.548841    4.996319
  H     -4.669456   -7.560262    6.890230
  H     -4.189951   -6.589664    5.541535
  H     -5.521018   -6.052839    6.421216

 Multiplicity           Mult            ....    1
 Number of Electrons    NEL             ....   18
 Basis Dimension        Dim             ....  172

ORBITAL ENERGIES
----------------

  NO   OCC          E(Eh)            E(eV)
   0   2.0000     -19.230625      -523.2919
   1   2.0000     -10.310083      -280.5516
   2   2.0000      -1.138439       -30.9785
   3   2.0000      -0.799005       -21.7420
   4   2.0000      -0.613642       -16.6980
   5   2.0000      -0.543632       -14.7930
   6   2.0000      -0.527365       -14.3503
   7   2.0000      -0.434484       -11.8229
   8   2.0000      -0.373776       -10.1709
   9   0.0000       0.073695         2.0054
  10   0.0000       0.118794         3.2326
  11   0.0000       0.149569         4.0700
  12   0.0000       0.167769         4.5652
  13   0.0000       0.184944         5.0326

MULLIKEN ATOMIC CHARGES
-----------------------
   0 C :   -0.000192
   1 O :    0.000012
   2 H :    0.000000
   3 H :   -0.000007
   4 H :   -0.000049
   5 H :    0.000136
   6 C :   -0.168707
   7 O :   -0.468614
   8 H :    0.314254
   9 H :    0.102683
  10 H :    0.102350
  11 H :    0.118132
Sum of atomic charges:   -0.0000000

LOEWDIN ATOMIC CHARGES
----------------------
   0 C :   -0.000355
   1 O :   -0.000008
   2 H :   -0.000001
   3 H :   -0.000047
   4 H :   -0.000015
   5 H :   -0.000285
   6 C :   -0.386939
   7 O :   -0.070680
   8 H :    0.164218
   9 H :    0.094064
  10 H :    0.088665
  11 H :    0.111381

  Mayer bond orders larger than 0.1
B(  6-C ,  7-O ) :   1.0030 B(  6-C ,  9-H ) :   0.9803 B(  6-C , 10-H ) :   0.9760
B(  6-C , 11-H ) :   0.9736 B(  7-O ,  8-H ) :   0.9007

Dispersion correction           -0.000238917
FINAL SINGLE POINT ENERGY      -115.734495663719

DIPOLE MOMENT
-------------
                                X             Y             Z
Electronic contribution:     -1.22687      -0.93296      -1.09557
Nuclear contribution   :      1.86067       0.73263       1.30603
                        -----------------------------------------
Total Dipole Moment    :      0.63380      -0.20033       0.21046
                        -----------------------------------------
Magnitude (a.u.)       :      0.69723
Magnitude (Debye)      :      1.77221

Rotational constants in cm-1:     4.451864     0.828626     0.794993
Rotational constants in MHz : 133463.526424 24841.591027 23833.288224

                             ****ORCA TERMINATED NORMALLY****
TOTAL RUN TIME: 0 days 0 hours 0 minutes 43 seconds 53 msec
