                         Program Version 4.1.2  - RELEASE  -
|  1> #Run DFT-D3 single point of the dimer
|  2> ! wB97X-D3 def2-TZVP TIGHTSCF  CHELPG PAL8
|  3>
|  4> %base "82_charges"
|  5>
|  6> %scf
|  7> MaxIter 1000
|  8> end
|  9> %output
| 10>   Print[ P_Mayer ] 1
| 11>   Print[ P_NatPop ] 1
| 12>   Print[ P_Hirshfeld ] 1
| 13>   Print[ P_Mulliken ] 1
| 14>   Print [ P_Loewdin ] 1
| 15> end
| 16>
| 17> * xyz 0 1
| 18>   C                      3.148158             4.646782             -2.117466
| 19>   O                      3.249568             5.999764             -1.780564
| 20>   H                      3.323481             6.529908             -2.581000
| 21>   H                      3.523574             4.060480             -1.321831
| 22>   H                      2.111619             4.295413             -2.309618
| 23>   H                      3.798835             4.443636             -2.995783
| 24> *
| 25>
| 26>                          ****END OF INPUT****

CARTESIAN COORDINATES (ANGSTROEM)
---------------------------------
  C      3.148158    4.646782   -2.117466
  O      3.249568    5.999764   -1.780564
  H      3.323481    6.529908   -2.581000
  H      3.523574    4.060480   -1.321831
  H      2.111619    4.295413   -2.309618
  H      3.798835    4.443636   -2.995783

 Total Charge           Charge          ....    0
 Multiplicity           Mult            ....    1
 Number of Electrons    NEL             ....   18
 Basis Dimension        Dim             ....   86

ORBITAL ENERGIES
----------------

  NO   OCC          E(Eh)            E(eV)
   0   2.0000     -19.229105      -523.2505
   1   2.0000     -10.311265      -280.5838
   2   2.0000      -1.139269       -31.0011
   3   2.0000      -0.795932       -21.6584
   4   2.0000      -0.611500       -16.6398
   5   2.0000      -0.542113       -14.7516
   6   2.0000      -0.534312       -14.5394
   7   2.0000      -0.428257       -11.6535
   8   2.0000      -0.372927       -10.1478
   9   0.0000       0.114410         3.1133
  10   0.0000       0.156420         4.2564
  11   0.0000       0.201685         5.4881
  12   0.0000       0.210623         5.7314
  13   0.0000       0.227992         6.2040

MULLIKEN ATOMIC CHARGES
-----------------------
   0 C :   -0.155228
   1 O :   -0.474766
   2 H :    0.317742
   3 H :    0.121262
   4 H :    0.094112
   5 H :    0.096877
Sum of atomic charges:   -0.0000000

LOEWDIN ATOMIC CHARGES
----------------------
   0 C :   -0.396097
   1 O :   -0.068531
   2 H :    0.171340
   3 H :    0.098379
   4 H :    0.095867
   5 H :    0.099042

  Mayer bond orders larger than 0.1
B(  0-C ,  1-O ) :   1.0086 B(  0-C ,  3-H ) :   0.9748 B(  0-C ,  4-H ) :   0.9698
B(  0-C ,  5-H ) :   0.9875 B(  1-O ,  2-H ) :   0.8974

Dispersion correction           -0.000241863
FINAL SINGLE POINT ENERGY      -115.734969801786

DIPOLE MOMENT
-------------
                                X             Y             Z
Electronic contribution:      0.08999       1.72640       0.60328
Nuclear contribution   :     -0.05413      -1.91673      -1.23399
                        -----------------------------------------
Total Dipole Moment    :      0.03586      -0.19033      -0.63071
                        -----------------------------------------
Magnitude (a.u.)       :      0.65978
Magnitude (Debye)      :      1.67702

Rotational constants in cm-1:     4.323563     0.842469     0.816173
Rotational constants in MHz : 129617.151104 25256.589277 24468.257400

                             ****ORCA TERMINATED NORMALLY****
TOTAL RUN TIME: 0 days 0 hours 0 minutes 41 seconds 32 msec
