                         Program Version 4.1.2  - RELEASE  -
|  1> #Run DFT-D3 single point of the dimer
|  2> ! wB97X-D3 def2-TZVP TIGHTSCF CHELPG PMODEL PAL8
|  3>
|  4> %base "21-157_DFT_AB"
|  5>
|  6> %scf
|  7> MaxIter 1000
|  8> end
|  9>
| 10> * xyz 0 1
| 11>   C                      -0.845752            -4.625808            -7.298877
| 12>   O                      -0.258401            -5.656409            -6.488654
| 13>   H                      0.575226             -5.883692            -6.900623
| 14>   H                      -1.613276            -4.003032            -6.829456
| 15>   H                      -0.048464            -3.907346            -7.509188
| 16>   H                      -1.266563            -5.129477            -8.193426
| 17>   C                      -1.599869            -4.759525            -3.505068
| 18>   O                      -1.129945            -6.048560            -3.901548
| 19>   H                      -0.916504            -6.017354            -4.825081
| 20>   H                      -0.717377            -4.191818            -3.156286
| 21>   H                      -1.974261            -4.197378            -4.403359
| 22>   H                      -2.392645            -4.778686            -2.797644
| 23> *
| 24>
| 25> #Run DFT-D3 single point of the molecule with dimer basis set
| 26> $new_job
| 27> %base "21-157_DFT_A"
| 28> ! wB97X-D3 def2-TZVP TIGHTSCF CHELPG PMODEL
| 29>
| 30> %scf
| 31> MaxIter 1000
| 32> end
| 33>
| 34> * xyz 0 1
| 35>   C                      -0.845752            -4.625808            -7.298877
| 36>   O                      -0.258401            -5.656409            -6.488654
| 37>   H                      0.575226             -5.883692            -6.900623
| 38>   H                      -1.613276            -4.003032            -6.829456
| 39>   H                      -0.048464            -3.907346            -7.509188
| 40>   H                      -1.266563            -5.129477            -8.193426
| 41>   C                    : -1.599869            -4.759525            -3.505068
| 42>   O                    : -1.129945            -6.048560            -3.901548
| 43>   H                    : -0.916504            -6.017354            -4.825081
| 44>   H                    : -0.717377            -4.191818            -3.156286
| 45>   H                    : -1.974261            -4.197378            -4.403359
| 46>   H                    : -2.392645            -4.778686            -2.797644
| 47> *
| 48>
| 49> #Run DFT-D3 single point of the particle with dimer basis set
| 50> $new_job
| 51> %base "21-157_DFT_B"
| 52> ! wB97X-D3 def2-TZVP TIGHTSCF CHELPG PMODEL
| 53>
| 54> %scf
| 55> MaxIter 1000
| 56> end
| 57>
| 58> * xyz 0 1
| 59>   C                    : -0.845752            -4.625808            -7.298877
| 60>   O                    : -0.258401            -5.656409            -6.488654
| 61>   H                    : 0.575226             -5.883692            -6.900623
| 62>   H                    : -1.613276            -4.003032            -6.829456
| 63>   H                    : -0.048464            -3.907346            -7.509188
| 64>   H                    : -1.266563            -5.129477            -8.193426
| 65>   C                      -1.599869            -4.759525            -3.505068
| 66>   O                      -1.129945            -6.048560            -3.901548
| 67>   H                      -0.916504            -6.017354            -4.825081
| 68>   H                      -0.717377            -4.191818            -3.156286
| 69>   H                      -1.974261            -4.197378            -4.403359
| 70>   H                      -2.392645            -4.778686            -2.797644
| 71> *
| 72>
| 73>                          ****END OF INPUT****
 Total Charge           Charge          ....    0
 Multiplicity           Mult            ....    1
 Number of Electrons    NEL             ....   36
Dispersion correction           -0.002025829
FINAL SINGLE POINT ENERGY      -231.472509904489
Dispersion correction           -0.000233924
FINAL SINGLE POINT ENERGY      -115.731616933719

CARTESIAN COORDINATES (ANGSTROEM)
---------------------------------
  C     -0.845752   -4.625808   -7.298877
  O     -0.258401   -5.656409   -6.488654
  H      0.575226   -5.883692   -6.900623
  H     -1.613276   -4.003032   -6.829456
  H     -0.048464   -3.907346   -7.509188
  H     -1.266563   -5.129477   -8.193426
  C     -1.599869   -4.759525   -3.505068
  O     -1.129945   -6.048560   -3.901548
  H     -0.916504   -6.017354   -4.825081
  H     -0.717377   -4.191818   -3.156286
  H     -1.974261   -4.197378   -4.403359
  H     -2.392645   -4.778686   -2.797644

 Multiplicity           Mult            ....    1
 Number of Electrons    NEL             ....   18
 Basis Dimension        Dim             ....  172

ORBITAL ENERGIES
----------------

  NO   OCC          E(Eh)            E(eV)
   0   2.0000     -19.227870      -523.2169
   1   2.0000     -10.316213      -280.7184
   2   2.0000      -1.133786       -30.8519
   3   2.0000      -0.796418       -21.6716
   4   2.0000      -0.608410       -16.5557
   5   2.0000      -0.547457       -14.8971
   6   2.0000      -0.524458       -14.2712
   7   2.0000      -0.431924       -11.7533
   8   2.0000      -0.373212       -10.1556
   9   0.0000       0.068231         1.8567
  10   0.0000       0.140550         3.8246
  11   0.0000       0.142035         3.8650
  12   0.0000       0.169230         4.6050
  13   0.0000       0.192494         5.2380

MULLIKEN ATOMIC CHARGES
-----------------------
   0 C :   -0.001478
   1 O :   -0.006896
   2 H :   -0.000619
   3 H :    0.000096
   4 H :   -0.000053
   5 H :    0.000130
   6 C :   -0.173394
   7 O :   -0.471168
   8 H :    0.318090
   9 H :    0.109954
  10 H :    0.101230
  11 H :    0.124107
Sum of atomic charges:    0.0000000

LOEWDIN ATOMIC CHARGES
----------------------
   0 C :   -0.006355
   1 O :   -0.026870
   2 H :   -0.001445
   3 H :   -0.003129
   4 H :   -0.000086
   5 H :   -0.000076
   6 C :   -0.367136
   7 O :   -0.069918
   8 H :    0.172265
   9 H :    0.101684
  10 H :    0.104517
  11 H :    0.096548

  Mayer bond orders larger than 0.1
B(  6-C ,  7-O ) :   0.9868 B(  6-C ,  9-H ) :   0.9778 B(  6-C , 10-H ) :   0.9832
B(  6-C , 11-H ) :   0.9709 B(  7-O ,  8-H ) :   0.9081

Dispersion correction           -0.000240853
FINAL SINGLE POINT ENERGY      -115.733180386453

DIPOLE MOMENT
-------------
                                X             Y             Z
Electronic contribution:      0.47999      -1.74308      -0.22403
Nuclear contribution   :     -0.55026       2.28522      -0.21254
                        -----------------------------------------
Total Dipole Moment    :     -0.07027       0.54213      -0.43657
                        -----------------------------------------
Magnitude (a.u.)       :      0.69960
Magnitude (Debye)      :      1.77825

Rotational constants in cm-1:     4.271552     0.818214     0.792344
Rotational constants in MHz : 128057.913255 24529.429637 23753.871185

                             ****ORCA TERMINATED NORMALLY****
TOTAL RUN TIME: 0 days 0 hours 1 minutes 7 seconds 894 msec
