                         Program Version 4.1.2  - RELEASE  -
|  1> #Run DFT-D3 single point of the dimer
|  2> ! wB97X-D3 def2-TZVP TIGHTSCF CHELPG PMODEL PAL8
|  3>
|  4> %base "1-159_DFT_AB"
|  5>
|  6> %scf
|  7> MaxIter 1000
|  8> end
|  9>
| 10> * xyz 0 1
| 11>   C                      8.916772             5.652893             5.606210
| 12>   O                      9.738335             6.552833             4.876664
| 13>   H                      10.631280            6.597577             5.261094
| 14>   H                      8.636874             5.976055             6.645396
| 15>   H                      7.890918             5.599432             5.142243
| 16>   H                      9.367213             4.647505             5.684970
| 17>   C                      6.321475             9.201901             5.207391
| 18>   O                      7.361675             9.472823             6.147094
| 19>   H                      8.090684             9.082047             5.642757
| 20>   H                      6.586048             8.325435             4.592221
| 21>   H                      5.453284             8.830296             5.726521
| 22>   H                      6.038527             9.983989             4.532099
| 23> *
| 24>
| 25> #Run DFT-D3 single point of the molecule with dimer basis set
| 26> $new_job
| 27> %base "1-159_DFT_A"
| 28> ! wB97X-D3 def2-TZVP TIGHTSCF CHELPG PMODEL
| 29>
| 30> %scf
| 31> MaxIter 1000
| 32> end
| 33>
| 34> * xyz 0 1
| 35>   C                      8.916772             5.652893             5.606210
| 36>   O                      9.738335             6.552833             4.876664
| 37>   H                      10.631280            6.597577             5.261094
| 38>   H                      8.636874             5.976055             6.645396
| 39>   H                      7.890918             5.599432             5.142243
| 40>   H                      9.367213             4.647505             5.684970
| 41>   C                    : 6.321475             9.201901             5.207391
| 42>   O                    : 7.361675             9.472823             6.147094
| 43>   H                    : 8.090684             9.082047             5.642757
| 44>   H                    : 6.586048             8.325435             4.592221
| 45>   H                    : 5.453284             8.830296             5.726521
| 46>   H                    : 6.038527             9.983989             4.532099
| 47> *
| 48>
| 49> #Run DFT-D3 single point of the particle with dimer basis set
| 50> $new_job
| 51> %base "1-159_DFT_B"
| 52> ! wB97X-D3 def2-TZVP TIGHTSCF CHELPG PMODEL
| 53>
| 54> %scf
| 55> MaxIter 1000
| 56> end
| 57>
| 58> * xyz 0 1
| 59>   C                    : 8.916772             5.652893             5.606210
| 60>   O                    : 9.738335             6.552833             4.876664
| 61>   H                    : 10.631280            6.597577             5.261094
| 62>   H                    : 8.636874             5.976055             6.645396
| 63>   H                    : 7.890918             5.599432             5.142243
| 64>   H                    : 9.367213             4.647505             5.684970
| 65>   C                      6.321475             9.201901             5.207391
| 66>   O                      7.361675             9.472823             6.147094
| 67>   H                      8.090684             9.082047             5.642757
| 68>   H                      6.586048             8.325435             4.592221
| 69>   H                      5.453284             8.830296             5.726521
| 70>   H                      6.038527             9.983989             4.532099
| 71> *
| 72>
| 73>                          ****END OF INPUT****
 Total Charge           Charge          ....    0
 Multiplicity           Mult            ....    1
 Number of Electrons    NEL             ....   36
Dispersion correction           -0.001610109
FINAL SINGLE POINT ENERGY      -231.467525231922
Dispersion correction           -0.000275878
FINAL SINGLE POINT ENERGY      -115.733794240473

CARTESIAN COORDINATES (ANGSTROEM)
---------------------------------
  C      8.916772    5.652893    5.606210
  O      9.738335    6.552833    4.876664
  H     10.631280    6.597577    5.261094
  H      8.636874    5.976055    6.645396
  H      7.890918    5.599432    5.142243
  H      9.367213    4.647505    5.684970
  C      6.321475    9.201901    5.207391
  O      7.361675    9.472823    6.147094
  H      8.090684    9.082047    5.642757
  H      6.586048    8.325435    4.592221
  H      5.453284    8.830296    5.726521
  H      6.038527    9.983989    4.532099

 Multiplicity           Mult            ....    1
 Number of Electrons    NEL             ....   18
 Basis Dimension        Dim             ....  172

ORBITAL ENERGIES
----------------

  NO   OCC          E(Eh)            E(eV)
   0   2.0000     -19.236368      -523.4482
   1   2.0000     -10.311235      -280.5830
   2   2.0000      -1.139046       -30.9950
   3   2.0000      -0.795596       -21.6493
   4   2.0000      -0.608319       -16.5532
   5   2.0000      -0.548545       -14.9267
   6   2.0000      -0.523336       -14.2407
   7   2.0000      -0.438865       -11.9421
   8   2.0000      -0.380370       -10.3504
   9   0.0000       0.070516         1.9188
  10   0.0000       0.127986         3.4827
  11   0.0000       0.142436         3.8759
  12   0.0000       0.167165         4.5488
  13   0.0000       0.182830         4.9750

MULLIKEN ATOMIC CHARGES
-----------------------
   0 C :   -0.002257
   1 O :    0.000140
   2 H :    0.000011
   3 H :   -0.000682
   4 H :    0.000339
   5 H :   -0.000107
   6 C :   -0.194511
   7 O :   -0.455837
   8 H :    0.318080
   9 H :    0.101513
  10 H :    0.117842
  11 H :    0.115469
Sum of atomic charges:    0.0000000

LOEWDIN ATOMIC CHARGES
----------------------
   0 C :   -0.001853
   1 O :   -0.000518
   2 H :   -0.000076
   3 H :   -0.000715
   4 H :   -0.000572
   5 H :   -0.000052
   6 C :   -0.384506
   7 O :   -0.084727
   8 H :    0.179620
   9 H :    0.099142
  10 H :    0.102236
  11 H :    0.092021

  Mayer bond orders larger than 0.1
B(  6-C ,  7-O ) :   1.0079 B(  6-C ,  9-H ) :   0.9895 B(  6-C , 10-H ) :   0.9771
B(  6-C , 11-H ) :   0.9681 B(  7-O ,  8-H ) :   0.9045

Dispersion correction           -0.000232900
FINAL SINGLE POINT ENERGY      -115.729770909823

DIPOLE MOMENT
-------------
                                X             Y             Z
Electronic contribution:      1.25571       0.61924       1.35707
Nuclear contribution   :     -1.21794      -0.98583      -2.02921
                        -----------------------------------------
Total Dipole Moment    :      0.03778      -0.36659      -0.67214
                        -----------------------------------------
Magnitude (a.u.)       :      0.76654
Magnitude (Debye)      :      1.94839

Rotational constants in cm-1:     4.337605     0.823654     0.796587
Rotational constants in MHz : 130038.125559 24692.518327 23881.086742

                             ****ORCA TERMINATED NORMALLY****
TOTAL RUN TIME: 0 days 0 hours 6 minutes 15 seconds 698 msec
