                         Program Version 4.1.2  - RELEASE  -
|  1> #Run DFT-D3 single point of the dimer
|  2> ! wB97X-D3 def2-TZVP TIGHTSCF CHELPG PMODEL PAL8
|  3>
|  4> %base "19-225_DFT_AB"
|  5>
|  6> %scf
|  7> MaxIter 1000
|  8> end
|  9>
| 10> * xyz 0 1
| 11>   C                      2.570159             6.185322             10.523941
| 12>   O                      1.161458             6.313528             10.149007
| 13>   H                      0.984668             5.758892             9.387177
| 14>   H                      2.796068             6.322607             11.593036
| 15>   H                      2.942824             5.213332             10.172344
| 16>   H                      3.200937             6.954114             9.967723
| 17>   C                      2.133361             7.137426             6.794470
| 18>   O                      3.422089             7.275639             7.377078
| 19>   H                      3.459965             6.780640             8.178787
| 20>   H                      2.011717             6.085576             6.397610
| 21>   H                      1.310506             7.357630             7.547516
| 22>   H                      2.139126             7.935520             6.013690
| 23> *
| 24>
| 25> #Run DFT-D3 single point of the molecule with dimer basis set
| 26> $new_job
| 27> %base "19-225_DFT_A"
| 28> ! wB97X-D3 def2-TZVP TIGHTSCF CHELPG PMODEL
| 29>
| 30> %scf
| 31> MaxIter 1000
| 32> end
| 33>
| 34> * xyz 0 1
| 35>   C                      2.570159             6.185322             10.523941
| 36>   O                      1.161458             6.313528             10.149007
| 37>   H                      0.984668             5.758892             9.387177
| 38>   H                      2.796068             6.322607             11.593036
| 39>   H                      2.942824             5.213332             10.172344
| 40>   H                      3.200937             6.954114             9.967723
| 41>   C                    : 2.133361             7.137426             6.794470
| 42>   O                    : 3.422089             7.275639             7.377078
| 43>   H                    : 3.459965             6.780640             8.178787
| 44>   H                    : 2.011717             6.085576             6.397610
| 45>   H                    : 1.310506             7.357630             7.547516
| 46>   H                    : 2.139126             7.935520             6.013690
| 47> *
| 48>
| 49> #Run DFT-D3 single point of the particle with dimer basis set
| 50> $new_job
| 51> %base "19-225_DFT_B"
| 52> ! wB97X-D3 def2-TZVP TIGHTSCF CHELPG PMODEL
| 53>
| 54> %scf
| 55> MaxIter 1000
| 56> end
| 57>
| 58> * xyz 0 1
| 59>   C                    : 2.570159             6.185322             10.523941
| 60>   O                    : 1.161458             6.313528             10.149007
| 61>   H                    : 0.984668             5.758892             9.387177
| 62>   H                    : 2.796068             6.322607             11.593036
| 63>   H                    : 2.942824             5.213332             10.172344
| 64>   H                    : 3.200937             6.954114             9.967723
| 65>   C                      2.133361             7.137426             6.794470
| 66>   O                      3.422089             7.275639             7.377078
| 67>   H                      3.459965             6.780640             8.178787
| 68>   H                      2.011717             6.085576             6.397610
| 69>   H                      1.310506             7.357630             7.547516
| 70>   H                      2.139126             7.935520             6.013690
| 71> *
| 72>
| 73>                          ****END OF INPUT****
 Total Charge           Charge          ....    0
 Multiplicity           Mult            ....    1
 Number of Electrons    NEL             ....   36
Dispersion correction           -0.002371616
FINAL SINGLE POINT ENERGY      -231.465500688613
Dispersion correction           -0.000275745
FINAL SINGLE POINT ENERGY      -115.731660298613

CARTESIAN COORDINATES (ANGSTROEM)
---------------------------------
  C      2.570159    6.185322   10.523941
  O      1.161458    6.313528   10.149007
  H      0.984668    5.758892    9.387177
  H      2.796068    6.322607   11.593036
  H      2.942824    5.213332   10.172344
  H      3.200937    6.954114    9.967723
  C      2.133361    7.137426    6.794470
  O      3.422089    7.275639    7.377078
  H      3.459965    6.780640    8.178787
  H      2.011717    6.085576    6.397610
  H      1.310506    7.357630    7.547516
  H      2.139126    7.935520    6.013690

 Multiplicity           Mult            ....    1
 Number of Electrons    NEL             ....   18
 Basis Dimension        Dim             ....  172

ORBITAL ENERGIES
----------------

  NO   OCC          E(Eh)            E(eV)
   0   2.0000     -19.227775      -523.2143
   1   2.0000     -10.325532      -280.9720
   2   2.0000      -1.137204       -30.9449
   3   2.0000      -0.789524       -21.4840
   4   2.0000      -0.609723       -16.5914
   5   2.0000      -0.540041       -14.6953
   6   2.0000      -0.518936       -14.1210
   7   2.0000      -0.433854       -11.8058
   8   2.0000      -0.373396       -10.1606
   9   0.0000       0.071325         1.9409
  10   0.0000       0.136059         3.7024
  11   0.0000       0.150327         4.0906
  12   0.0000       0.174339         4.7440
  13   0.0000       0.178422         4.8551

MULLIKEN ATOMIC CHARGES
-----------------------
   0 C :   -0.003637
   1 O :    0.000531
   2 H :   -0.000123
   3 H :   -0.000593
   4 H :    0.000697
   5 H :   -0.009425
   6 C :   -0.164821
   7 O :   -0.464164
   8 H :    0.309687
   9 H :    0.105511
  10 H :    0.101691
  11 H :    0.124645
Sum of atomic charges:    0.0000000

LOEWDIN ATOMIC CHARGES
----------------------
   0 C :   -0.010190
   1 O :   -0.001994
   2 H :   -0.003453
   3 H :   -0.000113
   4 H :   -0.000933
   5 H :   -0.010673
   6 C :   -0.383217
   7 O :   -0.066184
   8 H :    0.157388
   9 H :    0.101875
  10 H :    0.102418
  11 H :    0.115075

  Mayer bond orders larger than 0.1
B(  6-C ,  7-O ) :   0.9892 B(  6-C ,  9-H ) :   0.9739 B(  6-C , 10-H ) :   0.9682
B(  6-C , 11-H ) :   0.9750 B(  7-O ,  8-H ) :   0.9106

Dispersion correction           -0.000247030
FINAL SINGLE POINT ENERGY      -115.734022942812

DIPOLE MOMENT
-------------
                                X             Y             Z
Electronic contribution:      1.61158       0.22578       0.57680
Nuclear contribution   :     -2.08733      -0.57790      -0.30072
                        -----------------------------------------
Total Dipole Moment    :     -0.47574      -0.35212       0.27608
                        -----------------------------------------
Magnitude (a.u.)       :      0.65310
Magnitude (Debye)      :      1.66005

Rotational constants in cm-1:     4.002545     0.828592     0.800489
Rotational constants in MHz : 119993.290548 24840.562969 23998.044546

                             ****ORCA TERMINATED NORMALLY****
TOTAL RUN TIME: 0 days 0 hours 0 minutes 50 seconds 809 msec
