                         Program Version 4.1.2  - RELEASE  -
|  1> #Run DFT-D3 single point of the dimer
|  2> ! wB97X-D3 def2-TZVP TIGHTSCF CHELPG PMODEL PAL8
|  3>
|  4> %base "12-170_DFT_AB"
|  5>
|  6> %scf
|  7> MaxIter 1000
|  8> end
|  9>
| 10> * xyz 0 1
| 11>   C                      8.279179             -0.130708            -6.836985
| 12>   O                      6.940537             -0.687971            -6.867043
| 13>   H                      6.345890             0.019245             -6.580589
| 14>   H                      8.565146             0.242757             -5.816725
| 15>   H                      9.006354             -0.914377            -7.006050
| 16>   H                      8.455786             0.688963             -7.595596
| 17>   C                      6.899267             -3.826440            -6.158132
| 18>   O                      5.992380             -2.977941            -5.412868
| 19>   H                      6.206806             -2.101877            -5.713724
| 20>   H                      6.811481             -3.596181            -7.261637
| 21>   H                      7.912850             -3.696008            -5.921194
| 22>   H                      6.757874             -4.848951            -6.004020
| 23> *
| 24>
| 25> #Run DFT-D3 single point of the molecule with dimer basis set
| 26> $new_job
| 27> %base "12-170_DFT_A"
| 28> ! wB97X-D3 def2-TZVP TIGHTSCF CHELPG PMODEL
| 29>
| 30> %scf
| 31> MaxIter 1000
| 32> end
| 33>
| 34> * xyz 0 1
| 35>   C                      8.279179             -0.130708            -6.836985
| 36>   O                      6.940537             -0.687971            -6.867043
| 37>   H                      6.345890             0.019245             -6.580589
| 38>   H                      8.565146             0.242757             -5.816725
| 39>   H                      9.006354             -0.914377            -7.006050
| 40>   H                      8.455786             0.688963             -7.595596
| 41>   C                    : 6.899267             -3.826440            -6.158132
| 42>   O                    : 5.992380             -2.977941            -5.412868
| 43>   H                    : 6.206806             -2.101877            -5.713724
| 44>   H                    : 6.811481             -3.596181            -7.261637
| 45>   H                    : 7.912850             -3.696008            -5.921194
| 46>   H                    : 6.757874             -4.848951            -6.004020
| 47> *
| 48>
| 49> #Run DFT-D3 single point of the particle with dimer basis set
| 50> $new_job
| 51> %base "12-170_DFT_B"
| 52> ! wB97X-D3 def2-TZVP TIGHTSCF CHELPG PMODEL
| 53>
| 54> %scf
| 55> MaxIter 1000
| 56> end
| 57>
| 58> * xyz 0 1
| 59>   C                    : 8.279179             -0.130708            -6.836985
| 60>   O                    : 6.940537             -0.687971            -6.867043
| 61>   H                    : 6.345890             0.019245             -6.580589
| 62>   H                    : 8.565146             0.242757             -5.816725
| 63>   H                    : 9.006354             -0.914377            -7.006050
| 64>   H                    : 8.455786             0.688963             -7.595596
| 65>   C                      6.899267             -3.826440            -6.158132
| 66>   O                      5.992380             -2.977941            -5.412868
| 67>   H                      6.206806             -2.101877            -5.713724
| 68>   H                      6.811481             -3.596181            -7.261637
| 69>   H                      7.912850             -3.696008            -5.921194
| 70>   H                      6.757874             -4.848951            -6.004020
| 71> *
| 72>
| 73>                          ****END OF INPUT****
 Total Charge           Charge          ....    0
 Multiplicity           Mult            ....    1
 Number of Electrons    NEL             ....   36
Dispersion correction           -0.002077071
FINAL SINGLE POINT ENERGY      -231.472158552679
Dispersion correction           -0.000275164
FINAL SINGLE POINT ENERGY      -115.734633580003

CARTESIAN COORDINATES (ANGSTROEM)
---------------------------------
  C      8.279179   -0.130708   -6.836985
  O      6.940537   -0.687971   -6.867043
  H      6.345890    0.019245   -6.580589
  H      8.565146    0.242757   -5.816725
  H      9.006354   -0.914377   -7.006050
  H      8.455786    0.688963   -7.595596
  C      6.899267   -3.826440   -6.158132
  O      5.992380   -2.977941   -5.412868
  H      6.206806   -2.101877   -5.713724
  H      6.811481   -3.596181   -7.261637
  H      7.912850   -3.696008   -5.921194
  H      6.757874   -4.848951   -6.004020

 Multiplicity           Mult            ....    1
 Number of Electrons    NEL             ....   18
 Basis Dimension        Dim             ....  172

ORBITAL ENERGIES
----------------

  NO   OCC          E(Eh)            E(eV)
   0   2.0000     -19.232731      -523.3492
   1   2.0000     -10.309940      -280.5477
   2   2.0000      -1.131301       -30.7843
   3   2.0000      -0.804537       -21.8926
   4   2.0000      -0.606195       -16.4954
   5   2.0000      -0.539427       -14.6786
   6   2.0000      -0.529282       -14.4025
   7   2.0000      -0.443360       -12.0644
   8   2.0000      -0.376030       -10.2323
   9   0.0000       0.068142         1.8542
  10   0.0000       0.134190         3.6515
  11   0.0000       0.139518         3.7965
  12   0.0000       0.172676         4.6987
  13   0.0000       0.190419         5.1816

MULLIKEN ATOMIC CHARGES
-----------------------
   0 C :   -0.001116
   1 O :   -0.004229
   2 H :   -0.000628
   3 H :    0.000122
   4 H :   -0.000320
   5 H :   -0.000038
   6 C :   -0.194840
   7 O :   -0.466473
   8 H :    0.315105
   9 H :    0.105408
  10 H :    0.113835
  11 H :    0.133174
Sum of atomic charges:   -0.0000000

LOEWDIN ATOMIC CHARGES
----------------------
   0 C :   -0.002890
   1 O :   -0.018904
   2 H :   -0.002375
   3 H :   -0.000116
   4 H :   -0.000464
   5 H :   -0.000059
   6 C :   -0.354140
   7 O :   -0.081681
   8 H :    0.169734
   9 H :    0.105855
  10 H :    0.087511
  11 H :    0.097529

  Mayer bond orders larger than 0.1
B(  6-C ,  7-O ) :   0.9894 B(  6-C ,  9-H ) :   0.9837 B(  6-C , 10-H ) :   0.9725
B(  6-C , 11-H ) :   0.9747 B(  7-O ,  8-H ) :   0.9107

Dispersion correction           -0.000241472
FINAL SINGLE POINT ENERGY      -115.730186423454

DIPOLE MOMENT
-------------
                                X             Y             Z
Electronic contribution:     -1.24578       0.88912       1.13897
Nuclear contribution   :      1.76795      -0.71253      -1.61065
                        -----------------------------------------
Total Dipole Moment    :      0.52217       0.17659      -0.47168
                        -----------------------------------------
Magnitude (a.u.)       :      0.72549
Magnitude (Debye)      :      1.84404

Rotational constants in cm-1:     4.479192     0.801923     0.771360
Rotational constants in MHz : 134282.800452 24041.056141 23124.793365

                             ****ORCA TERMINATED NORMALLY****
TOTAL RUN TIME: 0 days 0 hours 1 minutes 15 seconds 965 msec
