                         Program Version 4.1.2  - RELEASE  -
|  1> #Run DFT-D3 single point of the dimer
|  2> ! wB97X-D3 def2-TZVP TIGHTSCF CHELPG PMODEL PAL8
|  3>
|  4> %base "20-96_DFT_AB"
|  5>
|  6> %scf
|  7> MaxIter 1000
|  8> end
|  9>
| 10> * xyz 0 1
| 11>   C                      5.267570             -1.081642            8.103618
| 12>   O                      4.867190             -2.109481            8.947615
| 13>   H                      3.963623             -1.847875            9.170114
| 14>   H                      5.623439             -0.273538            8.761835
| 15>   H                      6.051549             -1.305107            7.366669
| 16>   H                      4.404855             -0.674548            7.564045
| 17>   C                      2.644582             -4.496149            4.921701
| 18>   O                      1.571882             -5.465876            5.016327
| 19>   H                      0.734321             -5.043278            5.354497
| 20>   H                      3.257729             -4.554362            5.857195
| 21>   H                      3.420873             -4.747145            4.172869
| 22>   H                      2.283139             -3.498105            4.678804
| 23> *
| 24>
| 25> #Run DFT-D3 single point of the molecule with dimer basis set
| 26> $new_job
| 27> %base "20-96_DFT_A"
| 28> ! wB97X-D3 def2-TZVP TIGHTSCF CHELPG PMODEL
| 29>
| 30> %scf
| 31> MaxIter 1000
| 32> end
| 33>
| 34> * xyz 0 1
| 35>   C                      5.267570             -1.081642            8.103618
| 36>   O                      4.867190             -2.109481            8.947615
| 37>   H                      3.963623             -1.847875            9.170114
| 38>   H                      5.623439             -0.273538            8.761835
| 39>   H                      6.051549             -1.305107            7.366669
| 40>   H                      4.404855             -0.674548            7.564045
| 41>   C                    : 2.644582             -4.496149            4.921701
| 42>   O                    : 1.571882             -5.465876            5.016327
| 43>   H                    : 0.734321             -5.043278            5.354497
| 44>   H                    : 3.257729             -4.554362            5.857195
| 45>   H                    : 3.420873             -4.747145            4.172869
| 46>   H                    : 2.283139             -3.498105            4.678804
| 47> *
| 48>
| 49> #Run DFT-D3 single point of the particle with dimer basis set
| 50> $new_job
| 51> %base "20-96_DFT_B"
| 52> ! wB97X-D3 def2-TZVP TIGHTSCF CHELPG PMODEL
| 53>
| 54> %scf
| 55> MaxIter 1000
| 56> end
| 57>
| 58> * xyz 0 1
| 59>   C                    : 5.267570             -1.081642            8.103618
| 60>   O                    : 4.867190             -2.109481            8.947615
| 61>   H                    : 3.963623             -1.847875            9.170114
| 62>   H                    : 5.623439             -0.273538            8.761835
| 63>   H                    : 6.051549             -1.305107            7.366669
| 64>   H                    : 4.404855             -0.674548            7.564045
| 65>   C                      2.644582             -4.496149            4.921701
| 66>   O                      1.571882             -5.465876            5.016327
| 67>   H                      0.734321             -5.043278            5.354497
| 68>   H                      3.257729             -4.554362            5.857195
| 69>   H                      3.420873             -4.747145            4.172869
| 70>   H                      2.283139             -3.498105            4.678804
| 71> *
| 72>
| 73>                          ****END OF INPUT****
 Total Charge           Charge          ....    0
 Multiplicity           Mult            ....    1
 Number of Electrons    NEL             ....   36
Dispersion correction           -0.000726540
FINAL SINGLE POINT ENERGY      -231.460825194156
Dispersion correction           -0.000211190
FINAL SINGLE POINT ENERGY      -115.730950521990

CARTESIAN COORDINATES (ANGSTROEM)
---------------------------------
  C      5.267570   -1.081642    8.103618
  O      4.867190   -2.109481    8.947615
  H      3.963623   -1.847875    9.170114
  H      5.623439   -0.273538    8.761835
  H      6.051549   -1.305107    7.366669
  H      4.404855   -0.674548    7.564045
  C      2.644582   -4.496149    4.921701
  O      1.571882   -5.465876    5.016327
  H      0.734321   -5.043278    5.354497
  H      3.257729   -4.554362    5.857195
  H      3.420873   -4.747145    4.172869
  H      2.283139   -3.498105    4.678804

 Multiplicity           Mult            ....    1
 Number of Electrons    NEL             ....   18
 Basis Dimension        Dim             ....  172

ORBITAL ENERGIES
----------------

  NO   OCC          E(Eh)            E(eV)
   0   2.0000     -19.232333      -523.3384
   1   2.0000     -10.319969      -280.8206
   2   2.0000      -1.116570       -30.3834
   3   2.0000      -0.793443       -21.5907
   4   2.0000      -0.599470       -16.3124
   5   2.0000      -0.537525       -14.6268
   6   2.0000      -0.521638       -14.1945
   7   2.0000      -0.428988       -11.6733
   8   2.0000      -0.370674       -10.0866
   9   0.0000       0.082514         2.2453
  10   0.0000       0.111651         3.0382
  11   0.0000       0.144569         3.9339
  12   0.0000       0.164316         4.4713
  13   0.0000       0.184756         5.0275

MULLIKEN ATOMIC CHARGES
-----------------------
   0 C :   -0.000095
   1 O :    0.000011
   2 H :   -0.000025
   3 H :   -0.000007
   4 H :    0.000006
   5 H :   -0.000045
   6 C :   -0.170951
   7 O :   -0.488427
   8 H :    0.320646
   9 H :    0.108630
  10 H :    0.120155
  11 H :    0.110103
Sum of atomic charges:   -0.0000000

LOEWDIN ATOMIC CHARGES
----------------------
   0 C :   -0.000140
   1 O :   -0.000027
   2 H :   -0.000029
   3 H :   -0.000004
   4 H :   -0.000010
   5 H :   -0.000027
   6 C :   -0.370783
   7 O :   -0.122935
   8 H :    0.187651
   9 H :    0.102524
  10 H :    0.108686
  11 H :    0.095092

  Mayer bond orders larger than 0.1
B(  6-C ,  7-O ) :   0.9999 B(  6-C ,  9-H ) :   0.9783 B(  6-C , 10-H ) :   0.9710
B(  6-C , 11-H ) :   0.9760 B(  7-O ,  8-H ) :   0.8905

Dispersion correction           -0.000278783
FINAL SINGLE POINT ENERGY      -115.729741603377

DIPOLE MOMENT
-------------
                                X             Y             Z
Electronic contribution:     -1.35436      -1.25084       0.02025
Nuclear contribution   :      1.27890       1.92602       0.13204
                        -----------------------------------------
Total Dipole Moment    :     -0.07546       0.67518       0.15229
                        -----------------------------------------
Magnitude (a.u.)       :      0.69625
Magnitude (Debye)      :      1.76972

Rotational constants in cm-1:     4.263157     0.786734     0.758259
Rotational constants in MHz : 127806.219057 23585.694917 22732.023809

                             ****ORCA TERMINATED NORMALLY****
TOTAL RUN TIME: 0 days 0 hours 0 minutes 48 seconds 779 msec
