                         Program Version 4.1.2  - RELEASE  -
|  1> #Run DFT-D3 single point of the dimer
|  2> ! wB97X-D3 def2-TZVP TIGHTSCF CHELPG PMODEL PAL8
|  3>
|  4> %base "18-38_DFT_AB"
|  5>
|  6> %scf
|  7> MaxIter 1000
|  8> end
|  9>
| 10> * xyz 0 1
| 11>   C                      5.188788             2.614549             -0.430988
| 12>   O                      4.272714             3.629414             -0.212891
| 13>   H                      4.735754             4.461235             -0.188900
| 14>   H                      5.899015             2.492255             0.391204
| 15>   H                      4.718363             1.670627             -0.695147
| 16>   H                      5.822392             2.953750             -1.309417
| 17>   C                      6.908253             0.220759             2.011476
| 18>   O                      8.114543             0.789069             2.551896
| 19>   H                      8.365452             1.557626             2.032525
| 20>   H                      6.681093             -0.745003            2.526297
| 21>   H                      6.070835             0.936344             2.045320
| 22>   H                      7.099565             0.031283             0.954996
| 23> *
| 24>
| 25> #Run DFT-D3 single point of the molecule with dimer basis set
| 26> $new_job
| 27> %base "18-38_DFT_A"
| 28> ! wB97X-D3 def2-TZVP TIGHTSCF CHELPG PMODEL
| 29>
| 30> %scf
| 31> MaxIter 1000
| 32> end
| 33>
| 34> * xyz 0 1
| 35>   C                      5.188788             2.614549             -0.430988
| 36>   O                      4.272714             3.629414             -0.212891
| 37>   H                      4.735754             4.461235             -0.188900
| 38>   H                      5.899015             2.492255             0.391204
| 39>   H                      4.718363             1.670627             -0.695147
| 40>   H                      5.822392             2.953750             -1.309417
| 41>   C                    : 6.908253             0.220759             2.011476
| 42>   O                    : 8.114543             0.789069             2.551896
| 43>   H                    : 8.365452             1.557626             2.032525
| 44>   H                    : 6.681093             -0.745003            2.526297
| 45>   H                    : 6.070835             0.936344             2.045320
| 46>   H                    : 7.099565             0.031283             0.954996
| 47> *
| 48>
| 49> #Run DFT-D3 single point of the particle with dimer basis set
| 50> $new_job
| 51> %base "18-38_DFT_B"
| 52> ! wB97X-D3 def2-TZVP TIGHTSCF CHELPG PMODEL
| 53>
| 54> %scf
| 55> MaxIter 1000
| 56> end
| 57>
| 58> * xyz 0 1
| 59>   C                    : 5.188788             2.614549             -0.430988
| 60>   O                    : 4.272714             3.629414             -0.212891
| 61>   H                    : 4.735754             4.461235             -0.188900
| 62>   H                    : 5.899015             2.492255             0.391204
| 63>   H                    : 4.718363             1.670627             -0.695147
| 64>   H                    : 5.822392             2.953750             -1.309417
| 65>   C                      6.908253             0.220759             2.011476
| 66>   O                      8.114543             0.789069             2.551896
| 67>   H                      8.365452             1.557626             2.032525
| 68>   H                      6.681093             -0.745003            2.526297
| 69>   H                      6.070835             0.936344             2.045320
| 70>   H                      7.099565             0.031283             0.954996
| 71> *
| 72>
| 73>                          ****END OF INPUT****
 Total Charge           Charge          ....    0
 Multiplicity           Mult            ....    1
 Number of Electrons    NEL             ....   36
Dispersion correction           -0.001542562
FINAL SINGLE POINT ENERGY      -231.468108111450
Dispersion correction           -0.000220553
FINAL SINGLE POINT ENERGY      -115.733276867230

CARTESIAN COORDINATES (ANGSTROEM)
---------------------------------
  C      5.188788    2.614549   -0.430988
  O      4.272714    3.629414   -0.212891
  H      4.735754    4.461235   -0.188900
  H      5.899015    2.492255    0.391204
  H      4.718363    1.670627   -0.695147
  H      5.822392    2.953750   -1.309417
  C      6.908253    0.220759    2.011476
  O      8.114543    0.789069    2.551896
  H      8.365452    1.557626    2.032525
  H      6.681093   -0.745003    2.526297
  H      6.070835    0.936344    2.045320
  H      7.099565    0.031283    0.954996

 Multiplicity           Mult            ....    1
 Number of Electrons    NEL             ....   18
 Basis Dimension        Dim             ....  172

ORBITAL ENERGIES
----------------

  NO   OCC          E(Eh)            E(eV)
   0   2.0000     -19.227090      -523.1957
   1   2.0000     -10.318601      -280.7834
   2   2.0000      -1.126694       -30.6589
   3   2.0000      -0.793398       -21.5895
   4   2.0000      -0.606151       -16.4942
   5   2.0000      -0.536648       -14.6029
   6   2.0000      -0.525217       -14.2919
   7   2.0000      -0.433870       -11.8062
   8   2.0000      -0.371021       -10.0960
   9   0.0000       0.077121         2.0986
  10   0.0000       0.119473         3.2510
  11   0.0000       0.145038         3.9467
  12   0.0000       0.169499         4.6123
  13   0.0000       0.183673         4.9980

MULLIKEN ATOMIC CHARGES
-----------------------
   0 C :   -0.005572
   1 O :    0.000096
   2 H :    0.000011
   3 H :    0.004308
   4 H :    0.000340
   5 H :   -0.000011
   6 C :   -0.163558
   7 O :   -0.484100
   8 H :    0.312971
   9 H :    0.126816
  10 H :    0.104126
  11 H :    0.104573
Sum of atomic charges:   -0.0000000

LOEWDIN ATOMIC CHARGES
----------------------
   0 C :   -0.005066
   1 O :   -0.000011
   2 H :   -0.000005
   3 H :   -0.004916
   4 H :   -0.000464
   5 H :   -0.000034
   6 C :   -0.363488
   7 O :   -0.100037
   8 H :    0.165117
   9 H :    0.115169
  10 H :    0.097951
  11 H :    0.095783

  Mayer bond orders larger than 0.1
B(  6-C ,  7-O ) :   0.9875 B(  6-C ,  9-H ) :   0.9684 B(  6-C , 10-H ) :   0.9728
B(  6-C , 11-H ) :   0.9843 B(  7-O ,  8-H ) :   0.9005

Dispersion correction           -0.000241299
FINAL SINGLE POINT ENERGY      -115.734711133099

DIPOLE MOMENT
-------------
                                X             Y             Z
Electronic contribution:      1.43998       0.57001       0.84197
Nuclear contribution   :     -1.77276      -0.32527      -1.40761
                        -----------------------------------------
Total Dipole Moment    :     -0.33278       0.24474      -0.56564
                        -----------------------------------------
Magnitude (a.u.)       :      0.70042
Magnitude (Debye)      :      1.78033

Rotational constants in cm-1:     4.189446     0.813215     0.778357
Rotational constants in MHz : 125596.445977 24379.583768 23334.568788

                             ****ORCA TERMINATED NORMALLY****
TOTAL RUN TIME: 0 days 0 hours 1 minutes 2 seconds 90 msec
