                         Program Version 4.1.2  - RELEASE  -
|  1> #Run DFT-D3 single point of the dimer
|  2> ! wB97X-D3 def2-TZVP TIGHTSCF CHELPG PMODEL PAL8
|  3>
|  4> %base "10-127_DFT_AB"
|  5>
|  6> %scf
|  7> MaxIter 1000
|  8> end
|  9>
| 10> * xyz 0 1
| 11>   C                      -4.428457            9.457185             6.975211
| 12>   O                      -3.977799            8.276667             7.423609
| 13>   H                      -3.298247            8.485323             8.074216
| 14>   H                      -3.876182            10.238919            7.490986
| 15>   H                      -4.354874            9.603095             5.907255
| 16>   H                      -5.539428            9.552613             7.158782
| 17>   C                      -1.254803            10.259718            8.191492
| 18>   O                      -1.791641            9.454562             9.164263
| 19>   H                      -1.390613            9.717482             10.006201
| 20>   H                      -0.158954            10.203540            8.067924
| 21>   H                      -1.688238            10.030808            7.243099
| 22>   H                      -1.553373            11.312933            8.388703
| 23> *
| 24>
| 25> #Run DFT-D3 single point of the molecule with dimer basis set
| 26> $new_job
| 27> %base "10-127_DFT_A"
| 28> ! wB97X-D3 def2-TZVP TIGHTSCF CHELPG PMODEL
| 29>
| 30> %scf
| 31> MaxIter 1000
| 32> end
| 33>
| 34> * xyz 0 1
| 35>   C                      -4.428457            9.457185             6.975211
| 36>   O                      -3.977799            8.276667             7.423609
| 37>   H                      -3.298247            8.485323             8.074216
| 38>   H                      -3.876182            10.238919            7.490986
| 39>   H                      -4.354874            9.603095             5.907255
| 40>   H                      -5.539428            9.552613             7.158782
| 41>   C                    : -1.254803            10.259718            8.191492
| 42>   O                    : -1.791641            9.454562             9.164263
| 43>   H                    : -1.390613            9.717482             10.006201
| 44>   H                    : -0.158954            10.203540            8.067924
| 45>   H                    : -1.688238            10.030808            7.243099
| 46>   H                    : -1.553373            11.312933            8.388703
| 47> *
| 48>
| 49> #Run DFT-D3 single point of the particle with dimer basis set
| 50> $new_job
| 51> %base "10-127_DFT_B"
| 52> ! wB97X-D3 def2-TZVP TIGHTSCF CHELPG PMODEL
| 53>
| 54> %scf
| 55> MaxIter 1000
| 56> end
| 57>
| 58> * xyz 0 1
| 59>   C                    : -4.428457            9.457185             6.975211
| 60>   O                    : -3.977799            8.276667             7.423609
| 61>   H                    : -3.298247            8.485323             8.074216
| 62>   H                    : -3.876182            10.238919            7.490986
| 63>   H                    : -4.354874            9.603095             5.907255
| 64>   H                    : -5.539428            9.552613             7.158782
| 65>   C                      -1.254803            10.259718            8.191492
| 66>   O                      -1.791641            9.454562             9.164263
| 67>   H                      -1.390613            9.717482             10.006201
| 68>   H                      -0.158954            10.203540            8.067924
| 69>   H                      -1.688238            10.030808            7.243099
| 70>   H                      -1.553373            11.312933            8.388703
| 71> *
| 72>
| 73>                          ****END OF INPUT****
 Total Charge           Charge          ....    0
 Multiplicity           Mult            ....    1
 Number of Electrons    NEL             ....   36
Dispersion correction           -0.002165021
FINAL SINGLE POINT ENERGY      -231.470904026796
Dispersion correction           -0.000217365
FINAL SINGLE POINT ENERGY      -115.728329817405

CARTESIAN COORDINATES (ANGSTROEM)
---------------------------------
  C     -4.428457    9.457185    6.975211
  O     -3.977799    8.276667    7.423609
  H     -3.298247    8.485323    8.074216
  H     -3.876182   10.238919    7.490986
  H     -4.354874    9.603095    5.907255
  H     -5.539428    9.552613    7.158782
  C     -1.254803   10.259718    8.191492
  O     -1.791641    9.454562    9.164263
  H     -1.390613    9.717482   10.006201
  H     -0.158954   10.203540    8.067924
  H     -1.688238   10.030808    7.243099
  H     -1.553373   11.312933    8.388703

 Multiplicity           Mult            ....    1
 Number of Electrons    NEL             ....   18
 Basis Dimension        Dim             ....  172

ORBITAL ENERGIES
----------------

  NO   OCC          E(Eh)            E(eV)
   0   2.0000     -19.232810      -523.3514
   1   2.0000     -10.309483      -280.5353
   2   2.0000      -1.149971       -31.2923
   3   2.0000      -0.793809       -21.6006
   4   2.0000      -0.616765       -16.7830
   5   2.0000      -0.546080       -14.8596
   6   2.0000      -0.535875       -14.5819
   7   2.0000      -0.431012       -11.7284
   8   2.0000      -0.371893       -10.1197
   9   0.0000       0.096527         2.6266
  10   0.0000       0.123080         3.3492
  11   0.0000       0.156934         4.2704
  12   0.0000       0.188139         5.1195
  13   0.0000       0.199454         5.4274

MULLIKEN ATOMIC CHARGES
-----------------------
   0 C :   -0.000883
   1 O :    0.000634
   2 H :   -0.008071
   3 H :    0.002530
   4 H :   -0.000414
   5 H :    0.000198
   6 C :   -0.162993
   7 O :   -0.455576
   8 H :    0.312644
   9 H :    0.104977
  10 H :    0.113166
  11 H :    0.093789
Sum of atomic charges:    0.0000000

LOEWDIN ATOMIC CHARGES
----------------------
   0 C :   -0.009977
   1 O :   -0.002198
   2 H :   -0.024619
   3 H :   -0.006025
   4 H :   -0.000365
   5 H :   -0.000043
   6 C :   -0.412591
   7 O :   -0.023995
   8 H :    0.178665
   9 H :    0.094997
  10 H :    0.108073
  11 H :    0.098078

  Mayer bond orders larger than 0.1
B(  6-C ,  7-O ) :   0.9973 B(  6-C ,  9-H ) :   0.9658 B(  6-C , 10-H ) :   0.9792
B(  6-C , 11-H ) :   0.9856 B(  7-O ,  8-H ) :   0.8953

Dispersion correction           -0.000224892
FINAL SINGLE POINT ENERGY      -115.735038242443

DIPOLE MOMENT
-------------
                                X             Y             Z
Electronic contribution:     -0.74876      -1.23744       1.20509
Nuclear contribution   :      1.18885       1.68787      -1.04511
                        -----------------------------------------
Total Dipole Moment    :      0.44008       0.45043       0.15998
                        -----------------------------------------
Magnitude (a.u.)       :      0.64973
Magnitude (Debye)      :      1.65149

Rotational constants in cm-1:     4.312580     0.867417     0.840836
Rotational constants in MHz : 129287.884901 26004.518594 25207.622468

                             ****ORCA TERMINATED NORMALLY****
TOTAL RUN TIME: 0 days 0 hours 1 minutes 6 seconds 764 msec
