                         Program Version 4.1.2  - RELEASE  -
|  1> #Run DFT-D3 single point of the dimer
|  2> ! wB97X-D3 def2-TZVP TIGHTSCF CHELPG PMODEL PAL8
|  3>
|  4> %base "14-209_DFT_AB"
|  5>
|  6> %scf
|  7> MaxIter 1000
|  8> end
|  9>
| 10> * xyz 0 1
| 11>   C                      1.659542             8.064693             6.619045
| 12>   O                      1.285036             6.716515             6.451179
| 13>   H                      1.421251             6.185337             7.233705
| 14>   H                      1.064452             8.608270             7.410314
| 15>   H                      2.687417             8.150073             6.816097
| 16>   H                      1.495110             8.473051             5.686269
| 17>   C                      -0.515498            4.393885             8.199787
| 18>   O                      0.578833             5.082405             8.778407
| 19>   H                      0.391381             5.298747             9.694457
| 20>   H                      -0.654587            3.329830             8.581233
| 21>   H                      -1.442507            4.980994             8.465543
| 22>   H                      -0.377789            4.321679             7.132688
| 23> *
| 24>
| 25> #Run DFT-D3 single point of the molecule with dimer basis set
| 26> $new_job
| 27> %base "14-209_DFT_A"
| 28> ! wB97X-D3 def2-TZVP TIGHTSCF CHELPG PMODEL
| 29>
| 30> %scf
| 31> MaxIter 1000
| 32> end
| 33>
| 34> * xyz 0 1
| 35>   C                      1.659542             8.064693             6.619045
| 36>   O                      1.285036             6.716515             6.451179
| 37>   H                      1.421251             6.185337             7.233705
| 38>   H                      1.064452             8.608270             7.410314
| 39>   H                      2.687417             8.150073             6.816097
| 40>   H                      1.495110             8.473051             5.686269
| 41>   C                    : -0.515498            4.393885             8.199787
| 42>   O                    : 0.578833             5.082405             8.778407
| 43>   H                    : 0.391381             5.298747             9.694457
| 44>   H                    : -0.654587            3.329830             8.581233
| 45>   H                    : -1.442507            4.980994             8.465543
| 46>   H                    : -0.377789            4.321679             7.132688
| 47> *
| 48>
| 49> #Run DFT-D3 single point of the particle with dimer basis set
| 50> $new_job
| 51> %base "14-209_DFT_B"
| 52> ! wB97X-D3 def2-TZVP TIGHTSCF CHELPG PMODEL
| 53>
| 54> %scf
| 55> MaxIter 1000
| 56> end
| 57>
| 58> * xyz 0 1
| 59>   C                    : 1.659542             8.064693             6.619045
| 60>   O                    : 1.285036             6.716515             6.451179
| 61>   H                    : 1.421251             6.185337             7.233705
| 62>   H                    : 1.064452             8.608270             7.410314
| 63>   H                    : 2.687417             8.150073             6.816097
| 64>   H                    : 1.495110             8.473051             5.686269
| 65>   C                      -0.515498            4.393885             8.199787
| 66>   O                      0.578833             5.082405             8.778407
| 67>   H                      0.391381             5.298747             9.694457
| 68>   H                      -0.654587            3.329830             8.581233
| 69>   H                      -1.442507            4.980994             8.465543
| 70>   H                      -0.377789            4.321679             7.132688
| 71> *
| 72>
| 73>                          ****END OF INPUT****
 Total Charge           Charge          ....    0
 Multiplicity           Mult            ....    1
 Number of Electrons    NEL             ....   36
Dispersion correction           -0.001700931
FINAL SINGLE POINT ENERGY      -231.474354519768
Dispersion correction           -0.000243261
FINAL SINGLE POINT ENERGY      -115.732650857708

CARTESIAN COORDINATES (ANGSTROEM)
---------------------------------
  C      1.659542    8.064693    6.619045
  O      1.285036    6.716515    6.451179
  H      1.421251    6.185337    7.233705
  H      1.064452    8.608270    7.410314
  H      2.687417    8.150073    6.816097
  H      1.495110    8.473051    5.686269
  C     -0.515498    4.393885    8.199787
  O      0.578833    5.082405    8.778407
  H      0.391381    5.298747    9.694457
  H     -0.654587    3.329830    8.581233
  H     -1.442507    4.980994    8.465543
  H     -0.377789    4.321679    7.132688

 Multiplicity           Mult            ....    1
 Number of Electrons    NEL             ....   18
 Basis Dimension        Dim             ....  172

ORBITAL ENERGIES
----------------

  NO   OCC          E(Eh)            E(eV)
   0   2.0000     -19.230052      -523.2763
   1   2.0000     -10.321197      -280.8541
   2   2.0000      -1.134907       -30.8824
   3   2.0000      -0.792351       -21.5610
   4   2.0000      -0.608370       -16.5546
   5   2.0000      -0.539156       -14.6712
   6   2.0000      -0.528692       -14.3864
   7   2.0000      -0.431681       -11.7466
   8   2.0000      -0.371216       -10.1013
   9   0.0000       0.097022         2.6401
  10   0.0000       0.121252         3.2994
  11   0.0000       0.151756         4.1295
  12   0.0000       0.184205         5.0125
  13   0.0000       0.198037         5.3889

MULLIKEN ATOMIC CHARGES
-----------------------
   0 C :   -0.001603
   1 O :   -0.000736
   2 H :   -0.003626
   3 H :   -0.000668
   4 H :   -0.000041
   5 H :   -0.000187
   6 C :   -0.162915
   7 O :   -0.473742
   8 H :    0.314556
   9 H :    0.098324
  10 H :    0.100756
  11 H :    0.129881
Sum of atomic charges:   -0.0000000

LOEWDIN ATOMIC CHARGES
----------------------
   0 C :   -0.001899
   1 O :   -0.004467
   2 H :   -0.029091
   3 H :   -0.000388
   4 H :   -0.000028
   5 H :   -0.000038
   6 C :   -0.384757
   7 O :   -0.053952
   8 H :    0.166912
   9 H :    0.100488
  10 H :    0.101921
  11 H :    0.105299

  Mayer bond orders larger than 0.1
B(  6-C ,  7-O ) :   0.9885 B(  6-C ,  9-H ) :   0.9638 B(  6-C , 10-H ) :   0.9827
B(  6-C , 11-H ) :   0.9739 B(  7-O ,  8-H ) :   0.8958

Dispersion correction           -0.000251871
FINAL SINGLE POINT ENERGY      -115.734471998295

DIPOLE MOMENT
-------------
                                X             Y             Z
Electronic contribution:      1.51066       0.86071       0.54303
Nuclear contribution   :     -2.06006      -0.99347      -0.19898
                        -----------------------------------------
Total Dipole Moment    :     -0.54940      -0.13276       0.34406
                        -----------------------------------------
Magnitude (a.u.)       :      0.66169
Magnitude (Debye)      :      1.68189

Rotational constants in cm-1:     4.167710     0.823854     0.795152
Rotational constants in MHz : 124944.794849 24698.528332 23838.057101

                             ****ORCA TERMINATED NORMALLY****
TOTAL RUN TIME: 0 days 0 hours 1 minutes 9 seconds 533 msec
