                         Program Version 4.1.2  - RELEASE  -
|  1> #Run DFT-D3 single point of the dimer
|  2> ! wB97X-D3 def2-TZVP TIGHTSCF CHELPG PMODEL PAL8
|  3>
|  4> %base "5-105_DFT_AB"
|  5>
|  6> %scf
|  7> MaxIter 1000
|  8> end
|  9>
| 10> * xyz 0 1
| 11>   C                      5.879248             6.066946             0.264854
| 12>   O                      4.644750             5.484827             0.033709
| 13>   H                      3.940731             6.087676             0.317555
| 14>   H                      5.948655             7.172369             0.120098
| 15>   H                      6.144315             5.944105             1.290748
| 16>   H                      6.708963             5.622361             -0.348714
| 17>   C                      0.567218             6.000519             3.160337
| 18>   O                      0.360484             6.270881             1.769133
| 19>   H                      -0.567800            6.452111             1.611484
| 20>   H                      1.629474             5.820001             3.235269
| 21>   H                      0.317510             6.933082             3.730363
| 22>   H                      -0.035569            5.195958             3.619373
| 23> *
| 24>
| 25> #Run DFT-D3 single point of the molecule with dimer basis set
| 26> $new_job
| 27> %base "5-105_DFT_A"
| 28> ! wB97X-D3 def2-TZVP TIGHTSCF CHELPG PMODEL
| 29>
| 30> %scf
| 31> MaxIter 1000
| 32> end
| 33>
| 34> * xyz 0 1
| 35>   C                      5.879248             6.066946             0.264854
| 36>   O                      4.644750             5.484827             0.033709
| 37>   H                      3.940731             6.087676             0.317555
| 38>   H                      5.948655             7.172369             0.120098
| 39>   H                      6.144315             5.944105             1.290748
| 40>   H                      6.708963             5.622361             -0.348714
| 41>   C                    : 0.567218             6.000519             3.160337
| 42>   O                    : 0.360484             6.270881             1.769133
| 43>   H                    : -0.567800            6.452111             1.611484
| 44>   H                    : 1.629474             5.820001             3.235269
| 45>   H                    : 0.317510             6.933082             3.730363
| 46>   H                    : -0.035569            5.195958             3.619373
| 47> *
| 48>
| 49> #Run DFT-D3 single point of the particle with dimer basis set
| 50> $new_job
| 51> %base "5-105_DFT_B"
| 52> ! wB97X-D3 def2-TZVP TIGHTSCF CHELPG PMODEL
| 53>
| 54> %scf
| 55> MaxIter 1000
| 56> end
| 57>
| 58> * xyz 0 1
| 59>   C                    : 5.879248             6.066946             0.264854
| 60>   O                    : 4.644750             5.484827             0.033709
| 61>   H                    : 3.940731             6.087676             0.317555
| 62>   H                    : 5.948655             7.172369             0.120098
| 63>   H                    : 6.144315             5.944105             1.290748
| 64>   H                    : 6.708963             5.622361             -0.348714
| 65>   C                      0.567218             6.000519             3.160337
| 66>   O                      0.360484             6.270881             1.769133
| 67>   H                      -0.567800            6.452111             1.611484
| 68>   H                      1.629474             5.820001             3.235269
| 69>   H                      0.317510             6.933082             3.730363
| 70>   H                      -0.035569            5.195958             3.619373
| 71> *
| 72>
| 73>                          ****END OF INPUT****
 Total Charge           Charge          ....    0
 Multiplicity           Mult            ....    1
 Number of Electrons    NEL             ....   36
Dispersion correction           -0.000761388
FINAL SINGLE POINT ENERGY      -231.468804022354
Dispersion correction           -0.000244969
FINAL SINGLE POINT ENERGY      -115.732678515670

CARTESIAN COORDINATES (ANGSTROEM)
---------------------------------
  C      5.879248    6.066946    0.264854
  O      4.644750    5.484827    0.033709
  H      3.940731    6.087676    0.317555
  H      5.948655    7.172369    0.120098
  H      6.144315    5.944105    1.290748
  H      6.708963    5.622361   -0.348714
  C      0.567218    6.000519    3.160337
  O      0.360484    6.270881    1.769133
  H     -0.567800    6.452111    1.611484
  H      1.629474    5.820001    3.235269
  H      0.317510    6.933082    3.730363
  H     -0.035569    5.195958    3.619373

 Multiplicity           Mult            ....    1
 Number of Electrons    NEL             ....   18
 Basis Dimension        Dim             ....  172

ORBITAL ENERGIES
----------------

  NO   OCC          E(Eh)            E(eV)
   0   2.0000     -19.229392      -523.2584
   1   2.0000     -10.316907      -280.7373
   2   2.0000      -1.130021       -30.7494
   3   2.0000      -0.794736       -21.6259
   4   2.0000      -0.610177       -16.6037
   5   2.0000      -0.532737       -14.4965
   6   2.0000      -0.523411       -14.2427
   7   2.0000      -0.438580       -11.9344
   8   2.0000      -0.372042       -10.1238
   9   0.0000       0.091351         2.4858
  10   0.0000       0.115261         3.1364
  11   0.0000       0.154077         4.1926
  12   0.0000       0.167292         4.5523
  13   0.0000       0.199788         5.4365

MULLIKEN ATOMIC CHARGES
-----------------------
   0 C :    0.000052
   1 O :    0.000085
   2 H :   -0.001089
   3 H :   -0.000004
   4 H :    0.000000
   5 H :    0.000000
   6 C :   -0.165504
   7 O :   -0.476461
   8 H :    0.310061
   9 H :    0.126893
  10 H :    0.101073
  11 H :    0.104894
Sum of atomic charges:   -0.0000000

LOEWDIN ATOMIC CHARGES
----------------------
   0 C :   -0.000016
   1 O :   -0.000013
   2 H :   -0.000422
   3 H :   -0.000000
   4 H :   -0.000002
   5 H :   -0.000001
   6 C :   -0.374844
   7 O :   -0.090641
   8 H :    0.163167
   9 H :    0.107862
  10 H :    0.099422
  11 H :    0.095488

  Mayer bond orders larger than 0.1
B(  6-C ,  7-O ) :   0.9944 B(  6-C ,  9-H ) :   0.9753 B(  6-C , 10-H ) :   0.9802
B(  6-C , 11-H ) :   0.9638 B(  7-O ,  8-H ) :   0.9018

Dispersion correction           -0.000255217
FINAL SINGLE POINT ENERGY      -115.734916126352

DIPOLE MOMENT
-------------
                                X             Y             Z
Electronic contribution:     -0.13036       0.18395      -1.77135
Nuclear contribution   :     -0.37255      -0.17749       2.23187
                        -----------------------------------------
Total Dipole Moment    :     -0.50291       0.00646       0.46052
                        -----------------------------------------
Magnitude (a.u.)       :      0.68194
Magnitude (Debye)      :      1.73335

Rotational constants in cm-1:     4.228485     0.815914     0.784686
Rotational constants in MHz : 126766.795406 24460.486668 23524.284184

                             ****ORCA TERMINATED NORMALLY****
TOTAL RUN TIME: 0 days 0 hours 0 minutes 56 seconds 449 msec
