                         Program Version 4.1.2  - RELEASE  -
|  1> #Run DFT-D3 single point of the dimer
|  2> ! wB97X-D3 def2-TZVP TIGHTSCF CHELPG PMODEL PAL8
|  3>
|  4> %base "14-46_DFT_AB"
|  5>
|  6> %scf
|  7> MaxIter 1000
|  8> end
|  9>
| 10> * xyz 0 1
| 11>   C                      10.841088            -7.127061            -6.891285
| 12>   O                      10.495546            -7.092162            -5.484353
| 13>   H                      9.956987             -6.291068            -5.245316
| 14>   H                      9.927392             -6.872766            -7.502368
| 15>   H                      11.640231            -6.359361            -7.120319
| 16>   H                      11.277844            -8.122326            -7.267426
| 17>   C                      9.460644             -3.791369            -8.790349
| 18>   O                      9.723722             -4.555290            -9.940950
| 19>   H                      10.000357            -3.939135            -10.597525
| 20>   H                      8.413790             -3.319582            -8.752754
| 21>   H                      9.487116             -4.471365            -7.986285
| 22>   H                      10.268471            -3.035572            -8.522973
| 23> *
| 24>
| 25> #Run DFT-D3 single point of the molecule with dimer basis set
| 26> $new_job
| 27> %base "14-46_DFT_A"
| 28> ! wB97X-D3 def2-TZVP TIGHTSCF CHELPG PMODEL
| 29>
| 30> %scf
| 31> MaxIter 1000
| 32> end
| 33>
| 34> * xyz 0 1
| 35>   C                      10.841088            -7.127061            -6.891285
| 36>   O                      10.495546            -7.092162            -5.484353
| 37>   H                      9.956987             -6.291068            -5.245316
| 38>   H                      9.927392             -6.872766            -7.502368
| 39>   H                      11.640231            -6.359361            -7.120319
| 40>   H                      11.277844            -8.122326            -7.267426
| 41>   C                    : 9.460644             -3.791369            -8.790349
| 42>   O                    : 9.723722             -4.555290            -9.940950
| 43>   H                    : 10.000357            -3.939135            -10.597525
| 44>   H                    : 8.413790             -3.319582            -8.752754
| 45>   H                    : 9.487116             -4.471365            -7.986285
| 46>   H                    : 10.268471            -3.035572            -8.522973
| 47> *
| 48>
| 49> #Run DFT-D3 single point of the particle with dimer basis set
| 50> $new_job
| 51> %base "14-46_DFT_B"
| 52> ! wB97X-D3 def2-TZVP TIGHTSCF CHELPG PMODEL
| 53>
| 54> %scf
| 55> MaxIter 1000
| 56> end
| 57>
| 58> * xyz 0 1
| 59>   C                    : 10.841088            -7.127061            -6.891285
| 60>   O                    : 10.495546            -7.092162            -5.484353
| 61>   H                    : 9.956987             -6.291068            -5.245316
| 62>   H                    : 9.927392             -6.872766            -7.502368
| 63>   H                    : 11.640231            -6.359361            -7.120319
| 64>   H                    : 11.277844            -8.122326            -7.267426
| 65>   C                      9.460644             -3.791369            -8.790349
| 66>   O                      9.723722             -4.555290            -9.940950
| 67>   H                      10.000357            -3.939135            -10.597525
| 68>   H                      8.413790             -3.319582            -8.752754
| 69>   H                      9.487116             -4.471365            -7.986285
| 70>   H                      10.268471            -3.035572            -8.522973
| 71> *
| 72>
| 73>                          ****END OF INPUT****
 Total Charge           Charge          ....    0
 Multiplicity           Mult            ....    1
 Number of Electrons    NEL             ....   36
Dispersion correction           -0.001564865
FINAL SINGLE POINT ENERGY      -231.460846654722
Dispersion correction           -0.000287305
FINAL SINGLE POINT ENERGY      -115.728190359824

CARTESIAN COORDINATES (ANGSTROEM)
---------------------------------
  C     10.841088   -7.127061   -6.891285
  O     10.495546   -7.092162   -5.484353
  H      9.956987   -6.291068   -5.245316
  H      9.927392   -6.872766   -7.502368
  H     11.640231   -6.359361   -7.120319
  H     11.277844   -8.122326   -7.267426
  C      9.460644   -3.791369   -8.790349
  O      9.723722   -4.555290   -9.940950
  H     10.000357   -3.939135  -10.597525
  H      8.413790   -3.319582   -8.752754
  H      9.487116   -4.471365   -7.986285
  H     10.268471   -3.035572   -8.522973

 Multiplicity           Mult            ....    1
 Number of Electrons    NEL             ....   18
 Basis Dimension        Dim             ....  172

ORBITAL ENERGIES
----------------

  NO   OCC          E(Eh)            E(eV)
   0   2.0000     -19.233476      -523.3695
   1   2.0000     -10.317974      -280.7663
   2   2.0000      -1.146241       -31.1908
   3   2.0000      -0.794602       -21.6222
   4   2.0000      -0.611720       -16.6457
   5   2.0000      -0.538489       -14.6530
   6   2.0000      -0.528400       -14.3785
   7   2.0000      -0.435558       -11.8521
   8   2.0000      -0.377060       -10.2603
   9   0.0000       0.089687         2.4405
  10   0.0000       0.121369         3.3026
  11   0.0000       0.149798         4.0762
  12   0.0000       0.167973         4.5708
  13   0.0000       0.195509         5.3201

MULLIKEN ATOMIC CHARGES
-----------------------
   0 C :    0.000050
   1 O :   -0.000060
   2 H :   -0.000074
   3 H :    0.001174
   4 H :   -0.000306
   5 H :    0.000023
   6 C :   -0.172908
   7 O :   -0.459286
   8 H :    0.311444
   9 H :    0.098763
  10 H :    0.117663
  11 H :    0.103519
Sum of atomic charges:    0.0000000

LOEWDIN ATOMIC CHARGES
----------------------
   0 C :   -0.003013
   1 O :   -0.000027
   2 H :   -0.000245
   3 H :   -0.001898
   4 H :   -0.000387
   5 H :   -0.000016
   6 C :   -0.402303
   7 O :   -0.055670
   8 H :    0.158912
   9 H :    0.103418
  10 H :    0.097713
  11 H :    0.103516

  Mayer bond orders larger than 0.1
B(  6-C ,  7-O ) :   1.0162 B(  6-C ,  9-H ) :   0.9702 B(  6-C , 10-H ) :   0.9784
B(  6-C , 11-H ) :   0.9747 B(  7-O ,  8-H ) :   0.9060

Dispersion correction           -0.000259986
FINAL SINGLE POINT ENERGY      -115.731655240789

DIPOLE MOMENT
-------------
                                X             Y             Z
Electronic contribution:      0.32288      -1.11205      -1.54137
Nuclear contribution   :     -0.22284       1.75348       1.57521
                        -----------------------------------------
Total Dipole Moment    :      0.10003       0.64143       0.03384
                        -----------------------------------------
Magnitude (a.u.)       :      0.65007
Magnitude (Debye)      :      1.65234

Rotational constants in cm-1:     4.241851     0.827601     0.809458
Rotational constants in MHz : 127167.497520 24810.855610 24266.940699

                             ****ORCA TERMINATED NORMALLY****
TOTAL RUN TIME: 0 days 0 hours 0 minutes 59 seconds 755 msec
