                         Program Version 4.1.2  - RELEASE  -
|  1> #Run DFT-D3 single point of the dimer
|  2> ! wB97X-D3 def2-TZVP TIGHTSCF CHELPG PMODEL PAL8
|  3>
|  4> %base "21-97_DFT_AB"
|  5>
|  6> %scf
|  7> MaxIter 1000
|  8> end
|  9>
| 10> * xyz 0 1
| 11>   C                      -9.935633            -1.088503            1.284899
| 12>   O                      -11.033869           -1.960237            1.345496
| 13>   H                      -11.887862           -1.623931            1.666152
| 14>   H                      -8.996411            -1.368978            1.817904
| 15>   H                      -9.676983            -0.896278            0.194077
| 16>   H                      -10.219109           -0.076535            1.690126
| 17>   C                      -8.070406            -4.503512            0.294764
| 18>   O                      -8.673569            -5.587107            -0.386314
| 19>   H                      -9.563237            -5.630320            -0.002070
| 20>   H                      -7.873048            -4.860077            1.333254
| 21>   H                      -7.174208            -4.111271            -0.251197
| 22>   H                      -8.697759            -3.599668            0.320643
| 23> *
| 24>
| 25> #Run DFT-D3 single point of the molecule with dimer basis set
| 26> $new_job
| 27> %base "21-97_DFT_A"
| 28> ! wB97X-D3 def2-TZVP TIGHTSCF CHELPG PMODEL
| 29>
| 30> %scf
| 31> MaxIter 1000
| 32> end
| 33>
| 34> * xyz 0 1
| 35>   C                      -9.935633            -1.088503            1.284899
| 36>   O                      -11.033869           -1.960237            1.345496
| 37>   H                      -11.887862           -1.623931            1.666152
| 38>   H                      -8.996411            -1.368978            1.817904
| 39>   H                      -9.676983            -0.896278            0.194077
| 40>   H                      -10.219109           -0.076535            1.690126
| 41>   C                    : -8.070406            -4.503512            0.294764
| 42>   O                    : -8.673569            -5.587107            -0.386314
| 43>   H                    : -9.563237            -5.630320            -0.002070
| 44>   H                    : -7.873048            -4.860077            1.333254
| 45>   H                    : -7.174208            -4.111271            -0.251197
| 46>   H                    : -8.697759            -3.599668            0.320643
| 47> *
| 48>
| 49> #Run DFT-D3 single point of the particle with dimer basis set
| 50> $new_job
| 51> %base "21-97_DFT_B"
| 52> ! wB97X-D3 def2-TZVP TIGHTSCF CHELPG PMODEL
| 53>
| 54> %scf
| 55> MaxIter 1000
| 56> end
| 57>
| 58> * xyz 0 1
| 59>   C                    : -9.935633            -1.088503            1.284899
| 60>   O                    : -11.033869           -1.960237            1.345496
| 61>   H                    : -11.887862           -1.623931            1.666152
| 62>   H                    : -8.996411            -1.368978            1.817904
| 63>   H                    : -9.676983            -0.896278            0.194077
| 64>   H                    : -10.219109           -0.076535            1.690126
| 65>   C                      -8.070406            -4.503512            0.294764
| 66>   O                      -8.673569            -5.587107            -0.386314
| 67>   H                      -9.563237            -5.630320            -0.002070
| 68>   H                      -7.873048            -4.860077            1.333254
| 69>   H                      -7.174208            -4.111271            -0.251197
| 70>   H                      -8.697759            -3.599668            0.320643
| 71> *
| 72>
| 73>                          ****END OF INPUT****
 Total Charge           Charge          ....    0
 Multiplicity           Mult            ....    1
 Number of Electrons    NEL             ....   36
Dispersion correction           -0.001504779
FINAL SINGLE POINT ENERGY      -231.462297044239
Dispersion correction           -0.000280027
FINAL SINGLE POINT ENERGY      -115.728159360389

CARTESIAN COORDINATES (ANGSTROEM)
---------------------------------
  C     -9.935633   -1.088503    1.284899
  O    -11.033869   -1.960237    1.345496
  H    -11.887862   -1.623931    1.666152
  H     -8.996411   -1.368978    1.817904
  H     -9.676983   -0.896278    0.194077
  H    -10.219109   -0.076535    1.690126
  C     -8.070406   -4.503512    0.294764
  O     -8.673569   -5.587107   -0.386314
  H     -9.563237   -5.630320   -0.002070
  H     -7.873048   -4.860077    1.333254
  H     -7.174208   -4.111271   -0.251197
  H     -8.697759   -3.599668    0.320643

 Multiplicity           Mult            ....    1
 Number of Electrons    NEL             ....   18
 Basis Dimension        Dim             ....  172

ORBITAL ENERGIES
----------------

  NO   OCC          E(Eh)            E(eV)
   0   2.0000     -19.231810      -523.3242
   1   2.0000     -10.318926      -280.7922
   2   2.0000      -1.137216       -30.9452
   3   2.0000      -0.788137       -21.4463
   4   2.0000      -0.606676       -16.5085
   5   2.0000      -0.550829       -14.9888
   6   2.0000      -0.517911       -14.0931
   7   2.0000      -0.432897       -11.7797
   8   2.0000      -0.373247       -10.1566
   9   0.0000       0.078765         2.1433
  10   0.0000       0.116573         3.1721
  11   0.0000       0.144056         3.9200
  12   0.0000       0.171178         4.6580
  13   0.0000       0.185052         5.0355

MULLIKEN ATOMIC CHARGES
-----------------------
   0 C :    0.001157
   1 O :    0.000045
   2 H :   -0.000003
   3 H :   -0.000888
   4 H :   -0.000528
   5 H :   -0.000098
   6 C :   -0.157500
   7 O :   -0.468286
   8 H :    0.315868
   9 H :    0.103459
  10 H :    0.114809
  11 H :    0.091966
Sum of atomic charges:   -0.0000000

LOEWDIN ATOMIC CHARGES
----------------------
   0 C :   -0.007505
   1 O :   -0.000655
   2 H :   -0.000045
   3 H :   -0.001590
   4 H :   -0.000923
   5 H :   -0.000096
   6 C :   -0.395359
   7 O :   -0.083945
   8 H :    0.177226
   9 H :    0.100835
  10 H :    0.113729
  11 H :    0.098326

  Mayer bond orders larger than 0.1
B(  6-C ,  7-O ) :   0.9951 B(  6-C ,  9-H ) :   0.9836 B(  6-C , 10-H ) :   0.9661
B(  6-C , 11-H ) :   0.9818 B(  7-O ,  8-H ) :   0.8992

Dispersion correction           -0.000230642
FINAL SINGLE POINT ENERGY      -115.732206986933

DIPOLE MOMENT
-------------
                                X             Y             Z
Electronic contribution:     -0.61117      -1.46010      -0.97412
Nuclear contribution   :      0.28424       1.86888       1.45276
                        -----------------------------------------
Total Dipole Moment    :     -0.32693       0.40878       0.47864
                        -----------------------------------------
Magnitude (a.u.)       :      0.70928
Magnitude (Debye)      :      1.80283

Rotational constants in cm-1:     4.122814     0.830676     0.803650
Rotational constants in MHz : 123598.867113 24903.031238 24092.819378

                             ****ORCA TERMINATED NORMALLY****
TOTAL RUN TIME: 0 days 0 hours 0 minutes 46 seconds 191 msec
