                         Program Version 4.1.2  - RELEASE  -
|  1> #Run DFT-D3 single point of the dimer
|  2> ! wB97X-D3 def2-TZVP TIGHTSCF CHELPG PMODEL PAL8
|  3>
|  4> %base "18-95_DFT_AB"
|  5>
|  6> %scf
|  7> MaxIter 1000
|  8> end
|  9>
| 10> * xyz 0 1
| 11>   C                      6.893320             -10.876934           1.764212
| 12>   O                      8.038290             -11.623634           1.861776
| 13>   H                      8.174678             -11.814343           2.798983
| 14>   H                      6.119502             -10.972052           2.513738
| 15>   H                      7.098717             -9.827807            1.908222
| 16>   H                      6.424330             -11.063992           0.828174
| 17>   C                      9.356855             -10.495370           6.990895
| 18>   O                      10.101183            -9.380953            6.730428
| 19>   H                      10.042316            -8.766026            7.416026
| 20>   H                      9.348065             -11.247211           6.147468
| 21>   H                      9.646204             -10.966870           7.921043
| 22>   H                      8.281665             -10.263757           7.170799
| 23> *
| 24>
| 25> #Run DFT-D3 single point of the molecule with dimer basis set
| 26> $new_job
| 27> %base "18-95_DFT_A"
| 28> ! wB97X-D3 def2-TZVP TIGHTSCF CHELPG PMODEL
| 29>
| 30> %scf
| 31> MaxIter 1000
| 32> end
| 33>
| 34> * xyz 0 1
| 35>   C                      6.893320             -10.876934           1.764212
| 36>   O                      8.038290             -11.623634           1.861776
| 37>   H                      8.174678             -11.814343           2.798983
| 38>   H                      6.119502             -10.972052           2.513738
| 39>   H                      7.098717             -9.827807            1.908222
| 40>   H                      6.424330             -11.063992           0.828174
| 41>   C                    : 9.356855             -10.495370           6.990895
| 42>   O                    : 10.101183            -9.380953            6.730428
| 43>   H                    : 10.042316            -8.766026            7.416026
| 44>   H                    : 9.348065             -11.247211           6.147468
| 45>   H                    : 9.646204             -10.966870           7.921043
| 46>   H                    : 8.281665             -10.263757           7.170799
| 47> *
| 48>
| 49> #Run DFT-D3 single point of the particle with dimer basis set
| 50> $new_job
| 51> %base "18-95_DFT_B"
| 52> ! wB97X-D3 def2-TZVP TIGHTSCF CHELPG PMODEL
| 53>
| 54> %scf
| 55> MaxIter 1000
| 56> end
| 57>
| 58> * xyz 0 1
| 59>   C                    : 6.893320             -10.876934           1.764212
| 60>   O                    : 8.038290             -11.623634           1.861776
| 61>   H                    : 8.174678             -11.814343           2.798983
| 62>   H                    : 6.119502             -10.972052           2.513738
| 63>   H                    : 7.098717             -9.827807            1.908222
| 64>   H                    : 6.424330             -11.063992           0.828174
| 65>   C                      9.356855             -10.495370           6.990895
| 66>   O                      10.101183            -9.380953            6.730428
| 67>   H                      10.042316            -8.766026            7.416026
| 68>   H                      9.348065             -11.247211           6.147468
| 69>   H                      9.646204             -10.966870           7.921043
| 70>   H                      8.281665             -10.263757           7.170799
| 71> *
| 72>
| 73>                          ****END OF INPUT****
 Total Charge           Charge          ....    0
 Multiplicity           Mult            ....    1
 Number of Electrons    NEL             ....   36
Dispersion correction           -0.000674770
FINAL SINGLE POINT ENERGY      -231.461561972122
Dispersion correction           -0.000228529
FINAL SINGLE POINT ENERGY      -115.730140093522

CARTESIAN COORDINATES (ANGSTROEM)
---------------------------------
  C      6.893320  -10.876934    1.764212
  O      8.038290  -11.623634    1.861776
  H      8.174678  -11.814343    2.798983
  H      6.119502  -10.972052    2.513738
  H      7.098717   -9.827807    1.908222
  H      6.424330  -11.063992    0.828174
  C      9.356855  -10.495370    6.990895
  O     10.101183   -9.380953    6.730428
  H     10.042316   -8.766026    7.416026
  H      9.348065  -11.247211    6.147468
  H      9.646204  -10.966870    7.921043
  H      8.281665  -10.263757    7.170799

 Multiplicity           Mult            ....    1
 Number of Electrons    NEL             ....   18
 Basis Dimension        Dim             ....  172

ORBITAL ENERGIES
----------------

  NO   OCC          E(Eh)            E(eV)
   0   2.0000     -19.227482      -523.2064
   1   2.0000     -10.314809      -280.6802
   2   2.0000      -1.158328       -31.5197
   3   2.0000      -0.797294       -21.6955
   4   2.0000      -0.629517       -17.1300
   5   2.0000      -0.543621       -14.7927
   6   2.0000      -0.532350       -14.4860
   7   2.0000      -0.428973       -11.6730
   8   2.0000      -0.369316       -10.0496
   9   0.0000       0.086863         2.3637
  10   0.0000       0.119037         3.2392
  11   0.0000       0.146513         3.9868
  12   0.0000       0.172380         4.6907
  13   0.0000       0.196807         5.3554

MULLIKEN ATOMIC CHARGES
-----------------------
   0 C :    0.000012
   1 O :   -0.000003
   2 H :   -0.000055
   3 H :   -0.000014
   4 H :   -0.000004
   5 H :   -0.000000
   6 C :   -0.151303
   7 O :   -0.461214
   8 H :    0.311732
   9 H :    0.118468
  10 H :    0.094429
  11 H :    0.087953
Sum of atomic charges:   -0.0000000

LOEWDIN ATOMIC CHARGES
----------------------
   0 C :   -0.000006
   1 O :   -0.000004
   2 H :   -0.000175
   3 H :   -0.000004
   4 H :   -0.000001
   5 H :   -0.000000
   6 C :   -0.425145
   7 O :   -0.021319
   8 H :    0.149063
   9 H :    0.115901
  10 H :    0.088566
  11 H :    0.093123

  Mayer bond orders larger than 0.1
B(  6-C ,  7-O ) :   1.0004 B(  6-C ,  9-H ) :   0.9697 B(  6-C , 10-H ) :   0.9799
B(  6-C , 11-H ) :   0.9783 B(  7-O ,  8-H ) :   0.9022

Dispersion correction           -0.000230252
FINAL SINGLE POINT ENERGY      -115.731384908394

DIPOLE MOMENT
-------------
                                X             Y             Z
Electronic contribution:      1.16423       1.47215      -0.49687
Nuclear contribution   :     -1.47867      -1.47532       1.05313
                        -----------------------------------------
Total Dipole Moment    :     -0.31445      -0.00318       0.55626
                        -----------------------------------------
Magnitude (a.u.)       :      0.63900
Magnitude (Debye)      :      1.62420

Rotational constants in cm-1:     4.407755     0.870290     0.832452
Rotational constants in MHz : 132141.179950 26090.650519 24956.289471

                             ****ORCA TERMINATED NORMALLY****
TOTAL RUN TIME: 0 days 0 hours 0 minutes 44 seconds 933 msec
