                         Program Version 4.1.2  - RELEASE  -
|  1> #Run DFT-D3 single point of the dimer
|  2> ! wB97X-D3 def2-TZVP TIGHTSCF CHELPG PMODEL PAL8
|  3>
|  4> %base "15-39_DFT_AB"
|  5>
|  6> %scf
|  7> MaxIter 1000
|  8> end
|  9>
| 10> * xyz 0 1
| 11>   C                      -6.215711            8.702306             -1.753921
| 12>   O                      -6.204522            7.278721             -1.947713
| 13>   H                      -7.104918            7.064609             -2.073756
| 14>   H                      -5.527617            9.106006             -0.946702
| 15>   H                      -5.940116            9.260479             -2.642426
| 16>   H                      -7.167443            9.114555             -1.494518
| 17>   C                      -2.802171            8.921985             -4.223362
| 18>   O                      -2.682968            10.191465            -4.918048
| 19>   H                      -1.840277            10.511214            -4.686150
| 20>   H                      -2.700391            8.977356             -3.177137
| 21>   H                      -3.730556            8.386122             -4.466392
| 22>   H                      -1.986734            8.258888             -4.570737
| 23> *
| 24>
| 25> #Run DFT-D3 single point of the molecule with dimer basis set
| 26> $new_job
| 27> %base "15-39_DFT_A"
| 28> ! wB97X-D3 def2-TZVP TIGHTSCF CHELPG PMODEL
| 29>
| 30> %scf
| 31> MaxIter 1000
| 32> end
| 33>
| 34> * xyz 0 1
| 35>   C                      -6.215711            8.702306             -1.753921
| 36>   O                      -6.204522            7.278721             -1.947713
| 37>   H                      -7.104918            7.064609             -2.073756
| 38>   H                      -5.527617            9.106006             -0.946702
| 39>   H                      -5.940116            9.260479             -2.642426
| 40>   H                      -7.167443            9.114555             -1.494518
| 41>   C                    : -2.802171            8.921985             -4.223362
| 42>   O                    : -2.682968            10.191465            -4.918048
| 43>   H                    : -1.840277            10.511214            -4.686150
| 44>   H                    : -2.700391            8.977356             -3.177137
| 45>   H                    : -3.730556            8.386122             -4.466392
| 46>   H                    : -1.986734            8.258888             -4.570737
| 47> *
| 48>
| 49> #Run DFT-D3 single point of the particle with dimer basis set
| 50> $new_job
| 51> %base "15-39_DFT_B"
| 52> ! wB97X-D3 def2-TZVP TIGHTSCF CHELPG PMODEL
| 53>
| 54> %scf
| 55> MaxIter 1000
| 56> end
| 57>
| 58> * xyz 0 1
| 59>   C                    : -6.215711            8.702306             -1.753921
| 60>   O                    : -6.204522            7.278721             -1.947713
| 61>   H                    : -7.104918            7.064609             -2.073756
| 62>   H                    : -5.527617            9.106006             -0.946702
| 63>   H                    : -5.940116            9.260479             -2.642426
| 64>   H                    : -7.167443            9.114555             -1.494518
| 65>   C                      -2.802171            8.921985             -4.223362
| 66>   O                      -2.682968            10.191465            -4.918048
| 67>   H                      -1.840277            10.511214            -4.686150
| 68>   H                      -2.700391            8.977356             -3.177137
| 69>   H                      -3.730556            8.386122             -4.466392
| 70>   H                      -1.986734            8.258888             -4.570737
| 71> *
| 72>
| 73>                          ****END OF INPUT****
 Total Charge           Charge          ....    0
 Multiplicity           Mult            ....    1
 Number of Electrons    NEL             ....   36
Dispersion correction           -0.001295745
FINAL SINGLE POINT ENERGY      -231.463790506838
Dispersion correction           -0.000266581
FINAL SINGLE POINT ENERGY      -115.730000923429

CARTESIAN COORDINATES (ANGSTROEM)
---------------------------------
  C     -6.215711    8.702306   -1.753921
  O     -6.204522    7.278721   -1.947713
  H     -7.104918    7.064609   -2.073756
  H     -5.527617    9.106006   -0.946702
  H     -5.940116    9.260479   -2.642426
  H     -7.167443    9.114555   -1.494518
  C     -2.802171    8.921985   -4.223362
  O     -2.682968   10.191465   -4.918048
  H     -1.840277   10.511214   -4.686150
  H     -2.700391    8.977356   -3.177137
  H     -3.730556    8.386122   -4.466392
  H     -1.986734    8.258888   -4.570737

 Multiplicity           Mult            ....    1
 Number of Electrons    NEL             ....   18
 Basis Dimension        Dim             ....  172

ORBITAL ENERGIES
----------------

  NO   OCC          E(Eh)            E(eV)
   0   2.0000     -19.229075      -523.2497
   1   2.0000     -10.314378      -280.6685
   2   2.0000      -1.133436       -30.8424
   3   2.0000      -0.801257       -21.8033
   4   2.0000      -0.608929       -16.5698
   5   2.0000      -0.538410       -14.6509
   6   2.0000      -0.525389       -14.2966
   7   2.0000      -0.441813       -12.0223
   8   2.0000      -0.376180       -10.2364
   9   0.0000       0.085077         2.3151
  10   0.0000       0.119732         3.2581
  11   0.0000       0.152065         4.1379
  12   0.0000       0.161963         4.4072
  13   0.0000       0.186604         5.0778

MULLIKEN ATOMIC CHARGES
-----------------------
   0 C :   -0.002230
   1 O :    0.000215
   2 H :    0.000026
   3 H :    0.000112
   4 H :    0.001573
   5 H :    0.000031
   6 C :   -0.188108
   7 O :   -0.471640
   8 H :    0.308579
   9 H :    0.116161
  10 H :    0.126291
  11 H :    0.108991
Sum of atomic charges:   -0.0000000

LOEWDIN ATOMIC CHARGES
----------------------
   0 C :   -0.001320
   1 O :   -0.000060
   2 H :   -0.000006
   3 H :   -0.000132
   4 H :   -0.000675
   5 H :   -0.000010
   6 C :   -0.355724
   7 O :   -0.087450
   8 H :    0.147752
   9 H :    0.086219
  10 H :    0.111547
  11 H :    0.099860

  Mayer bond orders larger than 0.1
B(  6-C ,  7-O ) :   0.9864 B(  6-C ,  9-H ) :   0.9694 B(  6-C , 10-H ) :   0.9731
B(  6-C , 11-H ) :   0.9812 B(  7-O ,  8-H ) :   0.9083

Dispersion correction           -0.000243158
FINAL SINGLE POINT ENERGY      -115.732237694590

DIPOLE MOMENT
-------------
                                X             Y             Z
Electronic contribution:     -0.06907       1.67115      -0.84812
Nuclear contribution   :      0.55679      -2.00405       1.29083
                        -----------------------------------------
Total Dipole Moment    :      0.48772      -0.33290       0.44271
                        -----------------------------------------
Magnitude (a.u.)       :      0.73803
Magnitude (Debye)      :      1.87592

Rotational constants in cm-1:     4.426177     0.798161     0.768684
Rotational constants in MHz : 132693.442023 23928.272523 23044.557054

                             ****ORCA TERMINATED NORMALLY****
TOTAL RUN TIME: 0 days 0 hours 1 minutes 1 seconds 126 msec
