                         Program Version 4.1.2  - RELEASE  -
|  1> #Run DFT-D3 single point of the dimer
|  2> ! wB97X-D3 def2-TZVP TIGHTSCF CHELPG PMODEL PAL8
|  3>
|  4> %base "3-25_DFT_AB"
|  5>
|  6> %scf
|  7> MaxIter 1000
|  8> end
|  9>
| 10> * xyz 0 1
| 11>   C                      -1.479890            -2.782146            -10.347695
| 12>   O                      -2.119262            -3.328411            -11.446586
| 13>   H                      -1.445049            -3.506653            -12.123038
| 14>   H                      -2.045989            -2.790401            -9.457301
| 15>   H                      -0.487859            -3.274771            -10.077993
| 16>   H                      -1.208709            -1.733125            -10.415487
| 17>   C                      -2.163569            -4.260200            -5.067871
| 18>   O                      -2.162828            -4.313775            -6.512630
| 19>   H                      -1.241116            -4.481770            -6.787903
| 20>   H                      -2.978172            -3.697090            -4.729438
| 21>   H                      -2.359270            -5.261161            -4.629483
| 22>   H                      -1.257880            -3.868997            -4.675143
| 23> *
| 24>
| 25> #Run DFT-D3 single point of the molecule with dimer basis set
| 26> $new_job
| 27> %base "3-25_DFT_A"
| 28> ! wB97X-D3 def2-TZVP TIGHTSCF CHELPG PMODEL
| 29>
| 30> %scf
| 31> MaxIter 1000
| 32> end
| 33>
| 34> * xyz 0 1
| 35>   C                      -1.479890            -2.782146            -10.347695
| 36>   O                      -2.119262            -3.328411            -11.446586
| 37>   H                      -1.445049            -3.506653            -12.123038
| 38>   H                      -2.045989            -2.790401            -9.457301
| 39>   H                      -0.487859            -3.274771            -10.077993
| 40>   H                      -1.208709            -1.733125            -10.415487
| 41>   C                    : -2.163569            -4.260200            -5.067871
| 42>   O                    : -2.162828            -4.313775            -6.512630
| 43>   H                    : -1.241116            -4.481770            -6.787903
| 44>   H                    : -2.978172            -3.697090            -4.729438
| 45>   H                    : -2.359270            -5.261161            -4.629483
| 46>   H                    : -1.257880            -3.868997            -4.675143
| 47> *
| 48>
| 49> #Run DFT-D3 single point of the particle with dimer basis set
| 50> $new_job
| 51> %base "3-25_DFT_B"
| 52> ! wB97X-D3 def2-TZVP TIGHTSCF CHELPG PMODEL
| 53>
| 54> %scf
| 55> MaxIter 1000
| 56> end
| 57>
| 58> * xyz 0 1
| 59>   C                    : -1.479890            -2.782146            -10.347695
| 60>   O                    : -2.119262            -3.328411            -11.446586
| 61>   H                    : -1.445049            -3.506653            -12.123038
| 62>   H                    : -2.045989            -2.790401            -9.457301
| 63>   H                    : -0.487859            -3.274771            -10.077993
| 64>   H                    : -1.208709            -1.733125            -10.415487
| 65>   C                      -2.163569            -4.260200            -5.067871
| 66>   O                      -2.162828            -4.313775            -6.512630
| 67>   H                      -1.241116            -4.481770            -6.787903
| 68>   H                      -2.978172            -3.697090            -4.729438
| 69>   H                      -2.359270            -5.261161            -4.629483
| 70>   H                      -1.257880            -3.868997            -4.675143
| 71> *
| 72>
| 73>                          ****END OF INPUT****
 Total Charge           Charge          ....    0
 Multiplicity           Mult            ....    1
 Number of Electrons    NEL             ....   36
Dispersion correction           -0.000983348
FINAL SINGLE POINT ENERGY      -231.464880035816
Dispersion correction           -0.000252274
FINAL SINGLE POINT ENERGY      -115.731289854079

CARTESIAN COORDINATES (ANGSTROEM)
---------------------------------
  C     -1.479890   -2.782146  -10.347695
  O     -2.119262   -3.328411  -11.446586
  H     -1.445049   -3.506653  -12.123038
  H     -2.045989   -2.790401   -9.457301
  H     -0.487859   -3.274771  -10.077993
  H     -1.208709   -1.733125  -10.415487
  C     -2.163569   -4.260200   -5.067871
  O     -2.162828   -4.313775   -6.512630
  H     -1.241116   -4.481770   -6.787903
  H     -2.978172   -3.697090   -4.729438
  H     -2.359270   -5.261161   -4.629483
  H     -1.257880   -3.868997   -4.675143

 Multiplicity           Mult            ....    1
 Number of Electrons    NEL             ....   18
 Basis Dimension        Dim             ....  172

ORBITAL ENERGIES
----------------

  NO   OCC          E(Eh)            E(eV)
   0   2.0000     -19.231897      -523.3265
   1   2.0000     -10.308651      -280.5126
   2   2.0000      -1.123969       -30.5847
   3   2.0000      -0.801471       -21.8091
   4   2.0000      -0.605332       -16.4719
   5   2.0000      -0.536298       -14.5934
   6   2.0000      -0.528822       -14.3900
   7   2.0000      -0.441253       -12.0071
   8   2.0000      -0.373011       -10.1501
   9   0.0000       0.087591         2.3835
  10   0.0000       0.117570         3.1992
  11   0.0000       0.151028         4.1097
  12   0.0000       0.177893         4.8407
  13   0.0000       0.194079         5.2812

MULLIKEN ATOMIC CHARGES
-----------------------
   0 C :    0.001531
   1 O :   -0.000027
   2 H :   -0.000000
   3 H :   -0.004846
   4 H :   -0.000120
   5 H :   -0.000047
   6 C :   -0.169130
   7 O :   -0.474964
   8 H :    0.315792
   9 H :    0.124518
  10 H :    0.098562
  11 H :    0.108731
Sum of atomic charges:    0.0000000

LOEWDIN ATOMIC CHARGES
----------------------
   0 C :   -0.000880
   1 O :   -0.000012
   2 H :   -0.000002
   3 H :   -0.002286
   4 H :   -0.000101
   5 H :   -0.000004
   6 C :   -0.355871
   7 O :   -0.104587
   8 H :    0.176650
   9 H :    0.096693
  10 H :    0.100173
  11 H :    0.090229

  Mayer bond orders larger than 0.1
B(  6-C ,  7-O ) :   1.0033 B(  6-C ,  9-H ) :   0.9781 B(  6-C , 10-H ) :   0.9752
B(  6-C , 11-H ) :   0.9799 B(  7-O ,  8-H ) :   0.8984

Dispersion correction           -0.000251656
FINAL SINGLE POINT ENERGY      -115.733145538899

DIPOLE MOMENT
-------------
                                X             Y             Z
Electronic contribution:     -0.09632       0.05496      -1.80306
Nuclear contribution   :      0.66896      -0.11986       2.24525
                        -----------------------------------------
Total Dipole Moment    :      0.57265      -0.06490       0.44219
                        -----------------------------------------
Magnitude (a.u.)       :      0.72641
Magnitude (Debye)      :      1.84638

Rotational constants in cm-1:     4.409093     0.804526     0.774814
Rotational constants in MHz : 132181.269078 24119.094459 23228.339773

                             ****ORCA TERMINATED NORMALLY****
TOTAL RUN TIME: 0 days 0 hours 6 minutes 19 seconds 83 msec
