                         Program Version 4.1.2  - RELEASE  -
|  1> #Run DFT-D3 single point of the dimer
|  2> ! wB97X-D3 def2-TZVP TIGHTSCF CHELPG PMODEL PAL8
|  3>
|  4> %base "13-95_DFT_AB"
|  5>
|  6> %scf
|  7> MaxIter 1000
|  8> end
|  9>
| 10> * xyz 0 1
| 11>   C                      8.560098             -2.673546            8.422270
| 12>   O                      8.250090             -2.701109            9.788705
| 13>   H                      8.844717             -3.285811            10.224851
| 14>   H                      9.658630             -2.494390            8.335668
| 15>   H                      8.219889             -3.530177            7.895463
| 16>   H                      8.112362             -1.780007            7.980744
| 17>   C                      5.373942             -1.129285            4.694461
| 18>   O                      4.224974             -1.272723            5.530153
| 19>   H                      3.640740             -1.777807            4.982052
| 20>   H                      5.386971             -1.888202            3.956504
| 21>   H                      5.324224             -0.209936            4.139052
| 22>   H                      6.365160             -1.008160            5.245248
| 23> *
| 24>
| 25> #Run DFT-D3 single point of the molecule with dimer basis set
| 26> $new_job
| 27> %base "13-95_DFT_A"
| 28> ! wB97X-D3 def2-TZVP TIGHTSCF CHELPG PMODEL
| 29>
| 30> %scf
| 31> MaxIter 1000
| 32> end
| 33>
| 34> * xyz 0 1
| 35>   C                      8.560098             -2.673546            8.422270
| 36>   O                      8.250090             -2.701109            9.788705
| 37>   H                      8.844717             -3.285811            10.224851
| 38>   H                      9.658630             -2.494390            8.335668
| 39>   H                      8.219889             -3.530177            7.895463
| 40>   H                      8.112362             -1.780007            7.980744
| 41>   C                    : 5.373942             -1.129285            4.694461
| 42>   O                    : 4.224974             -1.272723            5.530153
| 43>   H                    : 3.640740             -1.777807            4.982052
| 44>   H                    : 5.386971             -1.888202            3.956504
| 45>   H                    : 5.324224             -0.209936            4.139052
| 46>   H                    : 6.365160             -1.008160            5.245248
| 47> *
| 48>
| 49> #Run DFT-D3 single point of the particle with dimer basis set
| 50> $new_job
| 51> %base "13-95_DFT_B"
| 52> ! wB97X-D3 def2-TZVP TIGHTSCF CHELPG PMODEL
| 53>
| 54> %scf
| 55> MaxIter 1000
| 56> end
| 57>
| 58> * xyz 0 1
| 59>   C                    : 8.560098             -2.673546            8.422270
| 60>   O                    : 8.250090             -2.701109            9.788705
| 61>   H                    : 8.844717             -3.285811            10.224851
| 62>   H                    : 9.658630             -2.494390            8.335668
| 63>   H                    : 8.219889             -3.530177            7.895463
| 64>   H                    : 8.112362             -1.780007            7.980744
| 65>   C                      5.373942             -1.129285            4.694461
| 66>   O                      4.224974             -1.272723            5.530153
| 67>   H                      3.640740             -1.777807            4.982052
| 68>   H                      5.386971             -1.888202            3.956504
| 69>   H                      5.324224             -0.209936            4.139052
| 70>   H                      6.365160             -1.008160            5.245248
| 71> *
| 72>
| 73>                          ****END OF INPUT****
 Total Charge           Charge          ....    0
 Multiplicity           Mult            ....    1
 Number of Electrons    NEL             ....   36
Dispersion correction           -0.000754987
FINAL SINGLE POINT ENERGY      -231.463556252866
Dispersion correction           -0.000226227
FINAL SINGLE POINT ENERGY      -115.734445364736

CARTESIAN COORDINATES (ANGSTROEM)
---------------------------------
  C      8.560098   -2.673546    8.422270
  O      8.250090   -2.701109    9.788705
  H      8.844717   -3.285811   10.224851
  H      9.658630   -2.494390    8.335668
  H      8.219889   -3.530177    7.895463
  H      8.112362   -1.780007    7.980744
  C      5.373942   -1.129285    4.694461
  O      4.224974   -1.272723    5.530153
  H      3.640740   -1.777807    4.982052
  H      5.386971   -1.888202    3.956504
  H      5.324224   -0.209936    4.139052
  H      6.365160   -1.008160    5.245248

 Multiplicity           Mult            ....    1
 Number of Electrons    NEL             ....   18
 Basis Dimension        Dim             ....  172

ORBITAL ENERGIES
----------------

  NO   OCC          E(Eh)            E(eV)
   0   2.0000     -19.231283      -523.3098
   1   2.0000     -10.313869      -280.6546
   2   2.0000      -1.139304       -31.0020
   3   2.0000      -0.796616       -21.6770
   4   2.0000      -0.614341       -16.7171
   5   2.0000      -0.538395       -14.6505
   6   2.0000      -0.524502       -14.2724
   7   2.0000      -0.445319       -12.1177
   8   2.0000      -0.371665       -10.1135
   9   0.0000       0.088511         2.4085
  10   0.0000       0.114605         3.1186
  11   0.0000       0.146036         3.9738
  12   0.0000       0.169766         4.6196
  13   0.0000       0.194180         5.2839

MULLIKEN ATOMIC CHARGES
-----------------------
   0 C :   -0.000253
   1 O :    0.000001
   2 H :   -0.000000
   3 H :    0.000039
   4 H :   -0.000034
   5 H :    0.000353
   6 C :   -0.177167
   7 O :   -0.461135
   8 H :    0.311285
   9 H :    0.105951
  10 H :    0.105113
  11 H :    0.115848
Sum of atomic charges:    0.0000000

LOEWDIN ATOMIC CHARGES
----------------------
   0 C :   -0.000172
   1 O :   -0.000002
   2 H :   -0.000000
   3 H :   -0.000002
   4 H :   -0.000017
   5 H :   -0.000290
   6 C :   -0.378644
   7 O :   -0.079448
   8 H :    0.163101
   9 H :    0.088119
  10 H :    0.091829
  11 H :    0.115526

  Mayer bond orders larger than 0.1
B(  6-C ,  7-O ) :   1.0079 B(  6-C ,  9-H ) :   0.9877 B(  6-C , 10-H ) :   0.9769
B(  6-C , 11-H ) :   0.9720 B(  7-O ,  8-H ) :   0.9061

Dispersion correction           -0.000236431
FINAL SINGLE POINT ENERGY      -115.729159502367

DIPOLE MOMENT
-------------
                                X             Y             Z
Electronic contribution:     -1.42728      -0.22200       1.23150
Nuclear contribution   :      1.50616      -0.03308      -1.93265
                        -----------------------------------------
Total Dipole Moment    :      0.07888      -0.25508      -0.70114
                        -----------------------------------------
Magnitude (a.u.)       :      0.75026
Magnitude (Debye)      :      1.90700

Rotational constants in cm-1:     4.362981     0.826527     0.784460
Rotational constants in MHz : 130798.892738 24778.664760 23517.511379

                             ****ORCA TERMINATED NORMALLY****
TOTAL RUN TIME: 0 days 0 hours 0 minutes 58 seconds 446 msec
