                         Program Version 4.1.2  - RELEASE  -
|  1> #Run DFT geometry optimization
|  2> ! wB97X-D3 def2-TZVP TIGHTSCF Grid5 FinalGrid6 Opt CHELPG PAL4
|  3>
|  4> %base "2_geo_opt"
|  5> %geom MaxIter 500
|  6> end
|  7>
|  8> %geom
|  9>   Constraints
| 10>     { A 5 0 4 C }
| 11>   end
| 12> end
| 13>
| 14>
| 15> * xyz 0 1
| 16>   C                    3.011308             -1.180897            0.598492
| 17>   O                    4.394673             -1.128050            0.874308
| 18>   H                    4.772196             -0.379022            0.412493
| 19>   H                    2.806434             -1.318965            -0.469350
| 20>   H                    2.613420             -2.041977            1.134482
| 21>   H                    2.486321             -0.282884            0.943869
| 22> *
| 23>
| 24>                          ****END OF INPUT****
 Total Charge           Charge          ....    0
 Multiplicity           Mult            ....    1
 Number of Electrons    NEL             ....   18
Dispersion correction           -0.000238927
FINAL SINGLE POINT ENERGY      -115.738048861603
Dispersion correction            ... done
                    ***********************HURRAY********************

CARTESIAN COORDINATES (ANGSTROEM)
---------------------------------
  C      3.011257   -1.180915    0.598674
  O      4.394789   -1.127983    0.874255
  H      4.772302   -0.379015    0.412354
  H      2.806599   -1.318928   -0.469321
  H      2.613204   -2.041964    1.134434
  H      2.486201   -0.282989    0.943898

 Multiplicity           Mult            ....    1
 Number of Electrons    NEL             ....   18
 Basis Dimension        Dim             ....   86

ORBITAL ENERGIES
----------------

  NO   OCC          E(Eh)            E(eV)
   0   2.0000     -19.228011      -523.2208
   1   2.0000     -10.315120      -280.6887
   2   2.0000      -1.136737       -30.9322
   3   2.0000      -0.795315       -21.6416
   4   2.0000      -0.611609       -16.6427
   5   2.0000      -0.541684       -14.7400
   6   2.0000      -0.526313       -14.3217
   7   2.0000      -0.433895       -11.8069
   8   2.0000      -0.373525       -10.1641
   9   0.0000       0.116606         3.1730
  10   0.0000       0.156751         4.2654
  11   0.0000       0.202530         5.5111
  12   0.0000       0.205071         5.5803
  13   0.0000       0.226407         6.1609

MULLIKEN ATOMIC CHARGES
-----------------------
   0 C :   -0.150732
   1 O :   -0.477742
   2 H :    0.312955
   3 H :    0.098527
   4 H :    0.118307
   5 H :    0.098685
Sum of atomic charges:   -0.0000000

LOEWDIN ATOMIC CHARGES
----------------------
   0 C :   -0.384936
   1 O :   -0.076269
   2 H :    0.165726
   3 H :    0.093382
   4 H :    0.108701
   5 H :    0.093396

  Mayer bond orders larger than 0.1
B(  0-C ,  1-O ) :   0.9985 B(  0-C ,  3-H ) :   0.9755 B(  0-C ,  4-H ) :   0.9749
B(  0-C ,  5-H ) :   0.9756 B(  1-O ,  2-H ) :   0.9002

Dispersion correction           -0.000238978
FINAL SINGLE POINT ENERGY      -115.738048976189

DIPOLE MOMENT
-------------
                                X             Y             Z
Electronic contribution:      1.75327      -0.02811       0.42223
Nuclear contribution   :     -2.06312       0.47560      -0.82034
                        -----------------------------------------
Total Dipole Moment    :     -0.30984       0.44748      -0.39811
                        -----------------------------------------
Magnitude (a.u.)       :      0.67434
Magnitude (Debye)      :      1.71404

Rotational constants in cm-1:     4.290753     0.833975     0.804888
Rotational constants in MHz : 128633.544329 25001.936536 24129.938088

                             ****ORCA TERMINATED NORMALLY****
TOTAL RUN TIME: 0 days 0 hours 0 minutes 35 seconds 398 msec
