                         Program Version 4.1.2  - RELEASE  -
|  1> #Run DFT-D3 single point of the dimer
|  2> ! wB97X-D3 def2-TZVP TIGHTSCF CHELPG PMODEL PAL8
|  3>
|  4> %base "17-168_DFT_AB"
|  5>
|  6> %scf
|  7> MaxIter 1000
|  8> end
|  9>
| 10> * xyz 0 1
| 11>   C                      8.915855             -6.208702            4.350031
| 12>   O                      7.767237             -6.944024            4.488190
| 13>   H                      7.996220             -7.702451            5.042601
| 14>   H                      9.496857             -6.199584            5.282683
| 15>   H                      9.538436             -6.503789            3.478665
| 16>   H                      8.630338             -5.185743            4.188997
| 17>   C                      9.506560             -10.470786           6.440024
| 18>   O                      8.504790             -9.541329            6.457576
| 19>   H                      8.071074             -9.698301            7.270270
| 20>   H                      10.102653            -10.577317           5.446685
| 21>   H                      10.203250            -10.204499           7.232463
| 22>   H                      9.002896             -11.426991           6.709804
| 23> *
| 24>
| 25> #Run DFT-D3 single point of the molecule with dimer basis set
| 26> $new_job
| 27> %base "17-168_DFT_A"
| 28> ! wB97X-D3 def2-TZVP TIGHTSCF CHELPG PMODEL
| 29>
| 30> %scf
| 31> MaxIter 1000
| 32> end
| 33>
| 34> * xyz 0 1
| 35>   C                      8.915855             -6.208702            4.350031
| 36>   O                      7.767237             -6.944024            4.488190
| 37>   H                      7.996220             -7.702451            5.042601
| 38>   H                      9.496857             -6.199584            5.282683
| 39>   H                      9.538436             -6.503789            3.478665
| 40>   H                      8.630338             -5.185743            4.188997
| 41>   C                    : 9.506560             -10.470786           6.440024
| 42>   O                    : 8.504790             -9.541329            6.457576
| 43>   H                    : 8.071074             -9.698301            7.270270
| 44>   H                    : 10.102653            -10.577317           5.446685
| 45>   H                    : 10.203250            -10.204499           7.232463
| 46>   H                    : 9.002896             -11.426991           6.709804
| 47> *
| 48>
| 49> #Run DFT-D3 single point of the particle with dimer basis set
| 50> $new_job
| 51> %base "17-168_DFT_B"
| 52> ! wB97X-D3 def2-TZVP TIGHTSCF CHELPG PMODEL
| 53>
| 54> %scf
| 55> MaxIter 1000
| 56> end
| 57>
| 58> * xyz 0 1
| 59>   C                    : 8.915855             -6.208702            4.350031
| 60>   O                    : 7.767237             -6.944024            4.488190
| 61>   H                    : 7.996220             -7.702451            5.042601
| 62>   H                    : 9.496857             -6.199584            5.282683
| 63>   H                    : 9.538436             -6.503789            3.478665
| 64>   H                    : 8.630338             -5.185743            4.188997
| 65>   C                      9.506560             -10.470786           6.440024
| 66>   O                      8.504790             -9.541329            6.457576
| 67>   H                      8.071074             -9.698301            7.270270
| 68>   H                      10.102653            -10.577317           5.446685
| 69>   H                      10.203250            -10.204499           7.232463
| 70>   H                      9.002896             -11.426991           6.709804
| 71> *
| 72>
| 73>                          ****END OF INPUT****
 Total Charge           Charge          ....    0
 Multiplicity           Mult            ....    1
 Number of Electrons    NEL             ....   36
Dispersion correction           -0.001327534
FINAL SINGLE POINT ENERGY      -231.466753896576
Dispersion correction           -0.000225650
FINAL SINGLE POINT ENERGY      -115.734433655044

CARTESIAN COORDINATES (ANGSTROEM)
---------------------------------
  C      8.915855   -6.208702    4.350031
  O      7.767237   -6.944024    4.488190
  H      7.996220   -7.702451    5.042601
  H      9.496857   -6.199584    5.282683
  H      9.538436   -6.503789    3.478665
  H      8.630338   -5.185743    4.188997
  C      9.506560  -10.470786    6.440024
  O      8.504790   -9.541329    6.457576
  H      8.071074   -9.698301    7.270270
  H     10.102653  -10.577317    5.446685
  H     10.203250  -10.204499    7.232463
  H      9.002896  -11.426991    6.709804

 Multiplicity           Mult            ....    1
 Number of Electrons    NEL             ....   18
 Basis Dimension        Dim             ....  172

ORBITAL ENERGIES
----------------

  NO   OCC          E(Eh)            E(eV)
   0   2.0000     -19.226975      -523.1926
   1   2.0000     -10.318543      -280.7818
   2   2.0000      -1.161583       -31.6083
   3   2.0000      -0.785682       -21.3795
   4   2.0000      -0.620277       -16.8786
   5   2.0000      -0.552765       -15.0415
   6   2.0000      -0.534161       -14.5353
   7   2.0000      -0.429069       -11.6756
   8   2.0000      -0.367854       -10.0098
   9   0.0000       0.098593         2.6829
  10   0.0000       0.119075         3.2402
  11   0.0000       0.156150         4.2491
  12   0.0000       0.188167         5.1203
  13   0.0000       0.199083         5.4173

MULLIKEN ATOMIC CHARGES
-----------------------
   0 C :    0.001502
   1 O :    0.000096
   2 H :   -0.009145
   3 H :   -0.001824
   4 H :   -0.000047
   5 H :   -0.000134
   6 C :   -0.170482
   7 O :   -0.440578
   8 H :    0.311772
   9 H :    0.117701
  10 H :    0.099220
  11 H :    0.091919
Sum of atomic charges:    0.0000000

LOEWDIN ATOMIC CHARGES
----------------------
   0 C :   -0.001114
   1 O :   -0.001098
   2 H :   -0.018104
   3 H :   -0.000608
   4 H :   -0.000009
   5 H :   -0.000013
   6 C :   -0.428105
   7 O :   -0.020054
   8 H :    0.160918
   9 H :    0.120116
  10 H :    0.090730
  11 H :    0.097341

  Mayer bond orders larger than 0.1
B(  6-C ,  7-O ) :   0.9806 B(  6-C ,  9-H ) :   0.9666 B(  6-C , 10-H ) :   0.9784
B(  6-C , 11-H ) :   0.9885 B(  7-O ,  8-H ) :   0.9002

Dispersion correction           -0.000198396
FINAL SINGLE POINT ENERGY      -115.725475578320

DIPOLE MOMENT
-------------
                                X             Y             Z
Electronic contribution:     -1.25244       1.31592      -0.18532
Nuclear contribution   :      1.33988      -1.75435       0.70422
                        -----------------------------------------
Total Dipole Moment    :      0.08744      -0.43844       0.51889
                        -----------------------------------------
Magnitude (a.u.)       :      0.68492
Magnitude (Debye)      :      1.74094

Rotational constants in cm-1:     4.121486     0.888549     0.848970
Rotational constants in MHz : 123559.052057 26638.016135 25451.471903

                             ****ORCA TERMINATED NORMALLY****
TOTAL RUN TIME: 0 days 0 hours 1 minutes 13 seconds 354 msec
