                         Program Version 4.1.2  - RELEASE  -
|  1> #Run DFT-D3 single point of the dimer
|  2> ! wB97X-D3 def2-TZVP TIGHTSCF CHELPG PMODEL PAL8
|  3>
|  4> %base "20-100_DFT_AB"
|  5>
|  6> %scf
|  7> MaxIter 1000
|  8> end
|  9>
| 10> * xyz 0 1
| 11>   C                      5.267570             -1.081642            8.103618
| 12>   O                      4.867190             -2.109481            8.947615
| 13>   H                      3.963623             -1.847875            9.170114
| 14>   H                      5.623439             -0.273538            8.761835
| 15>   H                      6.051549             -1.305107            7.366669
| 16>   H                      4.404855             -0.674548            7.564045
| 17>   C                      7.356633             -0.427867            5.014311
| 18>   O                      7.640773             0.095332             6.288135
| 19>   H                      6.963374             0.785339             6.456965
| 20>   H                      8.218673             -0.569521            4.371192
| 21>   H                      6.895203             -1.361880            5.066783
| 22>   H                      6.580939             0.181751             4.566550
| 23> *
| 24>
| 25> #Run DFT-D3 single point of the molecule with dimer basis set
| 26> $new_job
| 27> %base "20-100_DFT_A"
| 28> ! wB97X-D3 def2-TZVP TIGHTSCF CHELPG PMODEL
| 29>
| 30> %scf
| 31> MaxIter 1000
| 32> end
| 33>
| 34> * xyz 0 1
| 35>   C                      5.267570             -1.081642            8.103618
| 36>   O                      4.867190             -2.109481            8.947615
| 37>   H                      3.963623             -1.847875            9.170114
| 38>   H                      5.623439             -0.273538            8.761835
| 39>   H                      6.051549             -1.305107            7.366669
| 40>   H                      4.404855             -0.674548            7.564045
| 41>   C                    : 7.356633             -0.427867            5.014311
| 42>   O                    : 7.640773             0.095332             6.288135
| 43>   H                    : 6.963374             0.785339             6.456965
| 44>   H                    : 8.218673             -0.569521            4.371192
| 45>   H                    : 6.895203             -1.361880            5.066783
| 46>   H                    : 6.580939             0.181751             4.566550
| 47> *
| 48>
| 49> #Run DFT-D3 single point of the particle with dimer basis set
| 50> $new_job
| 51> %base "20-100_DFT_B"
| 52> ! wB97X-D3 def2-TZVP TIGHTSCF CHELPG PMODEL
| 53>
| 54> %scf
| 55> MaxIter 1000
| 56> end
| 57>
| 58> * xyz 0 1
| 59>   C                    : 5.267570             -1.081642            8.103618
| 60>   O                    : 4.867190             -2.109481            8.947615
| 61>   H                    : 3.963623             -1.847875            9.170114
| 62>   H                    : 5.623439             -0.273538            8.761835
| 63>   H                    : 6.051549             -1.305107            7.366669
| 64>   H                    : 4.404855             -0.674548            7.564045
| 65>   C                      7.356633             -0.427867            5.014311
| 66>   O                      7.640773             0.095332             6.288135
| 67>   H                      6.963374             0.785339             6.456965
| 68>   H                      8.218673             -0.569521            4.371192
| 69>   H                      6.895203             -1.361880            5.066783
| 70>   H                      6.580939             0.181751             4.566550
| 71> *
| 72>
| 73>                          ****END OF INPUT****
 Total Charge           Charge          ....    0
 Multiplicity           Mult            ....    1
 Number of Electrons    NEL             ....   36
Dispersion correction           -0.001822510
FINAL SINGLE POINT ENERGY      -231.461379650144
Dispersion correction           -0.000211190
FINAL SINGLE POINT ENERGY      -115.730902670589

CARTESIAN COORDINATES (ANGSTROEM)
---------------------------------
  C      5.267570   -1.081642    8.103618
  O      4.867190   -2.109481    8.947615
  H      3.963623   -1.847875    9.170114
  H      5.623439   -0.273538    8.761835
  H      6.051549   -1.305107    7.366669
  H      4.404855   -0.674548    7.564045
  C      7.356633   -0.427867    5.014311
  O      7.640773    0.095332    6.288135
  H      6.963374    0.785339    6.456965
  H      8.218673   -0.569521    4.371192
  H      6.895203   -1.361880    5.066783
  H      6.580939    0.181751    4.566550

 Multiplicity           Mult            ....    1
 Number of Electrons    NEL             ....   18
 Basis Dimension        Dim             ....  172

ORBITAL ENERGIES
----------------

  NO   OCC          E(Eh)            E(eV)
   0   2.0000     -19.232678      -523.3478
   1   2.0000     -10.304596      -280.4023
   2   2.0000      -1.136394       -30.9229
   3   2.0000      -0.799355       -21.7516
   4   2.0000      -0.613847       -16.7036
   5   2.0000      -0.540100       -14.6969
   6   2.0000      -0.538065       -14.6415
   7   2.0000      -0.434156       -11.8140
   8   2.0000      -0.372415       -10.1339
   9   0.0000       0.082615         2.2481
  10   0.0000       0.122788         3.3412
  11   0.0000       0.150883         4.1057
  12   0.0000       0.185341         5.0434
  13   0.0000       0.196570         5.3489

MULLIKEN ATOMIC CHARGES
-----------------------
   0 C :   -0.014857
   1 O :   -0.000398
   2 H :   -0.000098
   3 H :   -0.000112
   4 H :    0.003894
   5 H :    0.000997
   6 C :   -0.175349
   7 O :   -0.464807
   8 H :    0.322263
   9 H :    0.118560
  10 H :    0.109614
  11 H :    0.100293
Sum of atomic charges:   -0.0000000

LOEWDIN ATOMIC CHARGES
----------------------
   0 C :   -0.014308
   1 O :   -0.000053
   2 H :   -0.000046
   3 H :   -0.001421
   4 H :   -0.013159
   5 H :   -0.000380
   6 C :   -0.384757
   7 O :   -0.060994
   8 H :    0.187548
   9 H :    0.102657
  10 H :    0.087588
  11 H :    0.097326

  Mayer bond orders larger than 0.1
B(  6-C ,  7-O ) :   1.0104 B(  6-C ,  9-H ) :   0.9739 B(  6-C , 10-H ) :   0.9785
B(  6-C , 11-H ) :   0.9950 B(  7-O ,  8-H ) :   0.8951

Dispersion correction           -0.000230173
FINAL SINGLE POINT ENERGY      -115.730255650068

DIPOLE MOMENT
-------------
                                X             Y             Z
Electronic contribution:      0.60971       0.58488       1.63989
Nuclear contribution   :     -1.16009      -0.36407      -2.04609
                        -----------------------------------------
Total Dipole Moment    :     -0.55037       0.22081      -0.40619
                        -----------------------------------------
Magnitude (a.u.)       :      0.71879
Magnitude (Debye)      :      1.82702

Rotational constants in cm-1:     4.446759     0.847940     0.804922
Rotational constants in MHz : 133310.473086 25420.616142 24130.953017

                             ****ORCA TERMINATED NORMALLY****
TOTAL RUN TIME: 0 days 0 hours 1 minutes 5 seconds 365 msec
