                         Program Version 4.1.2  - RELEASE  -
|  1> #Run DFT-D3 single point of the dimer
|  2> ! wB97X-D3 def2-TZVP TIGHTSCF CHELPG PMODEL PAL8
|  3>
|  4> %base "20-185_DFT_AB"
|  5>
|  6> %scf
|  7> MaxIter 1000
|  8> end
|  9>
| 10> * xyz 0 1
| 11>   C                      -9.402311            7.959093             7.014368
| 12>   O                      -8.923783            7.908151             8.427865
| 13>   H                      -9.377012            8.564968             8.937901
| 14>   H                      -8.904831            7.197859             6.374025
| 15>   H                      -10.457614           7.716346             7.042583
| 16>   H                      -9.255336            8.975391             6.596974
| 17>   C                      -5.925478            6.762485             8.283272
| 18>   O                      -6.433259            7.176933             9.574631
| 19>   H                      -7.336822            7.465403             9.412063
| 20>   H                      -6.479207            7.250024             7.448698
| 21>   H                      -4.900665            7.061786             8.193284
| 22>   H                      -6.040697            5.616280             8.186349
| 23> *
| 24>
| 25> #Run DFT-D3 single point of the molecule with dimer basis set
| 26> $new_job
| 27> %base "20-185_DFT_A"
| 28> ! wB97X-D3 def2-TZVP TIGHTSCF CHELPG PMODEL
| 29>
| 30> %scf
| 31> MaxIter 1000
| 32> end
| 33>
| 34> * xyz 0 1
| 35>   C                      -9.402311            7.959093             7.014368
| 36>   O                      -8.923783            7.908151             8.427865
| 37>   H                      -9.377012            8.564968             8.937901
| 38>   H                      -8.904831            7.197859             6.374025
| 39>   H                      -10.457614           7.716346             7.042583
| 40>   H                      -9.255336            8.975391             6.596974
| 41>   C                    : -5.925478            6.762485             8.283272
| 42>   O                    : -6.433259            7.176933             9.574631
| 43>   H                    : -7.336822            7.465403             9.412063
| 44>   H                    : -6.479207            7.250024             7.448698
| 45>   H                    : -4.900665            7.061786             8.193284
| 46>   H                    : -6.040697            5.616280             8.186349
| 47> *
| 48>
| 49> #Run DFT-D3 single point of the particle with dimer basis set
| 50> $new_job
| 51> %base "20-185_DFT_B"
| 52> ! wB97X-D3 def2-TZVP TIGHTSCF CHELPG PMODEL
| 53>
| 54> %scf
| 55> MaxIter 1000
| 56> end
| 57>
| 58> * xyz 0 1
| 59>   C                    : -9.402311            7.959093             7.014368
| 60>   O                    : -8.923783            7.908151             8.427865
| 61>   H                    : -9.377012            8.564968             8.937901
| 62>   H                    : -8.904831            7.197859             6.374025
| 63>   H                    : -10.457614           7.716346             7.042583
| 64>   H                    : -9.255336            8.975391             6.596974
| 65>   C                      -5.925478            6.762485             8.283272
| 66>   O                      -6.433259            7.176933             9.574631
| 67>   H                      -7.336822            7.465403             9.412063
| 68>   H                      -6.479207            7.250024             7.448698
| 69>   H                      -4.900665            7.061786             8.193284
| 70>   H                      -6.040697            5.616280             8.186349
| 71> *
| 72>
| 73>                          ****END OF INPUT****
 Total Charge           Charge          ....    0
 Multiplicity           Mult            ....    1
 Number of Electrons    NEL             ....   36
Dispersion correction           -0.002059034
FINAL SINGLE POINT ENERGY      -231.472968963882
Dispersion correction           -0.000267892
FINAL SINGLE POINT ENERGY      -115.731831116361

CARTESIAN COORDINATES (ANGSTROEM)
---------------------------------
  C     -9.402311    7.959093    7.014368
  O     -8.923783    7.908151    8.427865
  H     -9.377012    8.564968    8.937901
  H     -8.904831    7.197859    6.374025
  H    -10.457614    7.716346    7.042583
  H     -9.255336    8.975391    6.596974
  C     -5.925478    6.762485    8.283272
  O     -6.433259    7.176933    9.574631
  H     -7.336822    7.465403    9.412063
  H     -6.479207    7.250024    7.448698
  H     -4.900665    7.061786    8.193284
  H     -6.040697    5.616280    8.186349

 Multiplicity           Mult            ....    1
 Number of Electrons    NEL             ....   18
 Basis Dimension        Dim             ....  172

ORBITAL ENERGIES
----------------

  NO   OCC          E(Eh)            E(eV)
   0   2.0000     -19.231333      -523.3112
   1   2.0000     -10.322350      -280.8854
   2   2.0000      -1.127649       -30.6849
   3   2.0000      -0.791116       -21.5274
   4   2.0000      -0.603571       -16.4240
   5   2.0000      -0.537486       -14.6257
   6   2.0000      -0.519274       -14.1302
   7   2.0000      -0.439054       -11.9473
   8   2.0000      -0.374345       -10.1864
   9   0.0000       0.067912         1.8480
  10   0.0000       0.130104         3.5403
  11   0.0000       0.141577         3.8525
  12   0.0000       0.180378         4.9083
  13   0.0000       0.182881         4.9765

MULLIKEN ATOMIC CHARGES
-----------------------
   0 C :    0.002234
   1 O :   -0.007167
   2 H :   -0.000886
   3 H :   -0.000852
   4 H :    0.000004
   5 H :   -0.000316
   6 C :   -0.172970
   7 O :   -0.474002
   8 H :    0.318673
   9 H :    0.102575
  10 H :    0.126233
  11 H :    0.106475
Sum of atomic charges:    0.0000000

LOEWDIN ATOMIC CHARGES
----------------------
   0 C :   -0.005438
   1 O :   -0.022739
   2 H :   -0.002075
   3 H :   -0.001671
   4 H :   -0.000057
   5 H :   -0.000129
   6 C :   -0.362240
   7 O :   -0.092853
   8 H :    0.176766
   9 H :    0.102377
  10 H :    0.099067
  11 H :    0.108992

  Mayer bond orders larger than 0.1
B(  6-C ,  7-O ) :   0.9917 B(  6-C ,  9-H ) :   0.9766 B(  6-C , 10-H ) :   0.9730
B(  6-C , 11-H ) :   0.9738 B(  7-O ,  8-H ) :   0.9068

Dispersion correction           -0.000260105
FINAL SINGLE POINT ENERGY      -115.733111450538

DIPOLE MOMENT
-------------
                                X             Y             Z
Electronic contribution:     -0.43611       0.54158       1.69166
Nuclear contribution   :      0.08258      -0.49192      -2.32220
                        -----------------------------------------
Total Dipole Moment    :     -0.35353       0.04966      -0.63054
                        -----------------------------------------
Magnitude (a.u.)       :      0.72459
Magnitude (Debye)      :      1.84176

Rotational constants in cm-1:     4.093901     0.797981     0.776017
Rotational constants in MHz : 122732.073308 23922.864069 23264.389590

                             ****ORCA TERMINATED NORMALLY****
TOTAL RUN TIME: 0 days 0 hours 1 minutes 9 seconds 971 msec
