                         Program Version 4.1.2  - RELEASE  -
|  1> #Run DFT-D3 single point of the dimer
|  2> ! wB97X-D3 def2-TZVP TIGHTSCF CHELPG PMODEL PAL8
|  3>
|  4> %base "3-193_DFT_AB"
|  5>
|  6> %scf
|  7> MaxIter 1000
|  8> end
|  9>
| 10> * xyz 0 1
| 11>   C                      -2.126235            -0.360681            -2.637112
| 12>   O                      -1.117700            -1.154782            -3.243928
| 13>   H                      -0.344218            -1.171476            -2.675353
| 14>   H                      -2.847046            -0.072665            -3.423563
| 15>   H                      -2.661588            -0.937043            -1.872576
| 16>   H                      -1.636193            0.528980             -2.202952
| 17>   C                      -0.791894            0.153209             -7.293953
| 18>   O                      -0.429146            0.665434             -6.098540
| 19>   H                      -0.963668            0.273240             -5.400980
| 20>   H                      -1.837251            0.451589             -7.599444
| 21>   H                      -0.115426            0.306201             -8.126156
| 22>   H                      -0.855482            -0.922665            -7.269317
| 23> *
| 24>
| 25> #Run DFT-D3 single point of the molecule with dimer basis set
| 26> $new_job
| 27> %base "3-193_DFT_A"
| 28> ! wB97X-D3 def2-TZVP TIGHTSCF CHELPG PMODEL
| 29>
| 30> %scf
| 31> MaxIter 1000
| 32> end
| 33>
| 34> * xyz 0 1
| 35>   C                      -2.126235            -0.360681            -2.637112
| 36>   O                      -1.117700            -1.154782            -3.243928
| 37>   H                      -0.344218            -1.171476            -2.675353
| 38>   H                      -2.847046            -0.072665            -3.423563
| 39>   H                      -2.661588            -0.937043            -1.872576
| 40>   H                      -1.636193            0.528980             -2.202952
| 41>   C                    : -0.791894            0.153209             -7.293953
| 42>   O                    : -0.429146            0.665434             -6.098540
| 43>   H                    : -0.963668            0.273240             -5.400980
| 44>   H                    : -1.837251            0.451589             -7.599444
| 45>   H                    : -0.115426            0.306201             -8.126156
| 46>   H                    : -0.855482            -0.922665            -7.269317
| 47> *
| 48>
| 49> #Run DFT-D3 single point of the particle with dimer basis set
| 50> $new_job
| 51> %base "3-193_DFT_B"
| 52> ! wB97X-D3 def2-TZVP TIGHTSCF CHELPG PMODEL
| 53>
| 54> %scf
| 55> MaxIter 1000
| 56> end
| 57>
| 58> * xyz 0 1
| 59>   C                    : -2.126235            -0.360681            -2.637112
| 60>   O                    : -1.117700            -1.154782            -3.243928
| 61>   H                    : -0.344218            -1.171476            -2.675353
| 62>   H                    : -2.847046            -0.072665            -3.423563
| 63>   H                    : -2.661588            -0.937043            -1.872576
| 64>   H                    : -1.636193            0.528980             -2.202952
| 65>   C                      -0.791894            0.153209             -7.293953
| 66>   O                      -0.429146            0.665434             -6.098540
| 67>   H                      -0.963668            0.273240             -5.400980
| 68>   H                      -1.837251            0.451589             -7.599444
| 69>   H                      -0.115426            0.306201             -8.126156
| 70>   H                      -0.855482            -0.922665            -7.269317
| 71> *
| 72>
| 73>                          ****END OF INPUT****
 Total Charge           Charge          ....    0
 Multiplicity           Mult            ....    1
 Number of Electrons    NEL             ....   36
Dispersion correction           -0.001473367
FINAL SINGLE POINT ENERGY      -231.471366848529
Dispersion correction           -0.000235215
FINAL SINGLE POINT ENERGY      -115.736366737223

CARTESIAN COORDINATES (ANGSTROEM)
---------------------------------
  C     -2.126235   -0.360681   -2.637112
  O     -1.117700   -1.154782   -3.243928
  H     -0.344218   -1.171476   -2.675353
  H     -2.847046   -0.072665   -3.423563
  H     -2.661588   -0.937043   -1.872576
  H     -1.636193    0.528980   -2.202952
  C     -0.791894    0.153209   -7.293953
  O     -0.429146    0.665434   -6.098540
  H     -0.963668    0.273240   -5.400980
  H     -1.837251    0.451589   -7.599444
  H     -0.115426    0.306201   -8.126156
  H     -0.855482   -0.922665   -7.269317

 Multiplicity           Mult            ....    1
 Number of Electrons    NEL             ....   18
 Basis Dimension        Dim             ....  172

ORBITAL ENERGIES
----------------

  NO   OCC          E(Eh)            E(eV)
   0   2.0000     -19.233138      -523.3603
   1   2.0000     -10.308922      -280.5200
   2   2.0000      -1.157948       -31.5094
   3   2.0000      -0.795653       -21.6508
   4   2.0000      -0.628170       -17.0934
   5   2.0000      -0.547516       -14.8987
   6   2.0000      -0.536793       -14.6069
   7   2.0000      -0.426930       -11.6174
   8   2.0000      -0.368546       -10.0287
   9   0.0000       0.069456         1.8900
  10   0.0000       0.129102         3.5131
  11   0.0000       0.154463         4.2032
  12   0.0000       0.160676         4.3722
  13   0.0000       0.191746         5.2177

MULLIKEN ATOMIC CHARGES
-----------------------
   0 C :    0.000402
   1 O :   -0.000685
   2 H :   -0.000270
   3 H :   -0.001113
   4 H :    0.000014
   5 H :   -0.000086
   6 C :   -0.159847
   7 O :   -0.457862
   8 H :    0.322261
   9 H :    0.082290
  10 H :    0.119771
  11 H :    0.095124
Sum of atomic charges:   -0.0000000

LOEWDIN ATOMIC CHARGES
----------------------
   0 C :   -0.002679
   1 O :   -0.002897
   2 H :   -0.000371
   3 H :   -0.000970
   4 H :   -0.000033
   5 H :   -0.000082
   6 C :   -0.441284
   7 O :   -0.022449
   8 H :    0.180408
   9 H :    0.095205
  10 H :    0.106323
  11 H :    0.088830

  Mayer bond orders larger than 0.1
B(  6-C ,  7-O ) :   1.0085 B(  6-C ,  9-H ) :   0.9802 B(  6-C , 10-H ) :   0.9684
B(  6-C , 11-H ) :   0.9833 B(  7-O ,  8-H ) :   0.8946

Dispersion correction           -0.000224110
FINAL SINGLE POINT ENERGY      -115.730271758178

DIPOLE MOMENT
-------------
                                X             Y             Z
Electronic contribution:      0.73113       0.90231       1.61375
Nuclear contribution   :     -1.17230      -1.36949      -1.59182
                        -----------------------------------------
Total Dipole Moment    :     -0.44117      -0.46719       0.02192
                        -----------------------------------------
Magnitude (a.u.)       :      0.64294
Magnitude (Debye)      :      1.63423

Rotational constants in cm-1:     4.458004     0.880615     0.847968
Rotational constants in MHz : 133647.591927 26400.187874 25421.453858

                             ****ORCA TERMINATED NORMALLY****
TOTAL RUN TIME: 0 days 0 hours 6 minutes 23 seconds 146 msec
