                         Program Version 4.1.2  - RELEASE  -
|  1> #Run DFT-D3 single point of the dimer
|  2> ! wB97X-D3 def2-TZVP TIGHTSCF CHELPG PMODEL PAL8
|  3>
|  4> %base "4-65_DFT_AB"
|  5>
|  6> %scf
|  7> MaxIter 1000
|  8> end
|  9>
| 10> * xyz 0 1
| 11>   C                      3.051319             10.744531            -1.095731
| 12>   O                      4.041918             9.795528             -1.066697
| 13>   H                      3.695005             9.045905             -1.508227
| 14>   H                      2.823380             11.193484            -2.079917
| 15>   H                      2.116573             10.257582            -0.937231
| 16>   H                      3.298022             11.551580            -0.358631
| 17>   C                      3.208912             8.523574             1.890041
| 18>   O                      4.022419             9.685875             2.003729
| 19>   H                      4.329274             9.884666             1.116175
| 20>   H                      3.838737             7.602119             1.554761
| 21>   H                      2.728100             8.354032             2.919526
| 22>   H                      2.387934             8.697139             1.159460
| 23> *
| 24>
| 25> #Run DFT-D3 single point of the molecule with dimer basis set
| 26> $new_job
| 27> %base "4-65_DFT_A"
| 28> ! wB97X-D3 def2-TZVP TIGHTSCF CHELPG PMODEL
| 29>
| 30> %scf
| 31> MaxIter 1000
| 32> end
| 33>
| 34> * xyz 0 1
| 35>   C                      3.051319             10.744531            -1.095731
| 36>   O                      4.041918             9.795528             -1.066697
| 37>   H                      3.695005             9.045905             -1.508227
| 38>   H                      2.823380             11.193484            -2.079917
| 39>   H                      2.116573             10.257582            -0.937231
| 40>   H                      3.298022             11.551580            -0.358631
| 41>   C                    : 3.208912             8.523574             1.890041
| 42>   O                    : 4.022419             9.685875             2.003729
| 43>   H                    : 4.329274             9.884666             1.116175
| 44>   H                    : 3.838737             7.602119             1.554761
| 45>   H                    : 2.728100             8.354032             2.919526
| 46>   H                    : 2.387934             8.697139             1.159460
| 47> *
| 48>
| 49> #Run DFT-D3 single point of the particle with dimer basis set
| 50> $new_job
| 51> %base "4-65_DFT_B"
| 52> ! wB97X-D3 def2-TZVP TIGHTSCF CHELPG PMODEL
| 53>
| 54> %scf
| 55> MaxIter 1000
| 56> end
| 57>
| 58> * xyz 0 1
| 59>   C                    : 3.051319             10.744531            -1.095731
| 60>   O                    : 4.041918             9.795528             -1.066697
| 61>   H                    : 3.695005             9.045905             -1.508227
| 62>   H                    : 2.823380             11.193484            -2.079917
| 63>   H                    : 2.116573             10.257582            -0.937231
| 64>   H                    : 3.298022             11.551580            -0.358631
| 65>   C                      3.208912             8.523574             1.890041
| 66>   O                      4.022419             9.685875             2.003729
| 67>   H                      4.329274             9.884666             1.116175
| 68>   H                      3.838737             7.602119             1.554761
| 69>   H                      2.728100             8.354032             2.919526
| 70>   H                      2.387934             8.697139             1.159460
| 71> *
| 72>
| 73>                          ****END OF INPUT****
 Total Charge           Charge          ....    0
 Multiplicity           Mult            ....    1
 Number of Electrons    NEL             ....   36
Dispersion correction           -0.002365119
FINAL SINGLE POINT ENERGY      -231.469403531637
Dispersion correction           -0.000214605
FINAL SINGLE POINT ENERGY      -115.729720507085

CARTESIAN COORDINATES (ANGSTROEM)
---------------------------------
  C      3.051319   10.744531   -1.095731
  O      4.041918    9.795528   -1.066697
  H      3.695005    9.045905   -1.508227
  H      2.823380   11.193484   -2.079917
  H      2.116573   10.257582   -0.937231
  H      3.298022   11.551580   -0.358631
  C      3.208912    8.523574    1.890041
  O      4.022419    9.685875    2.003729
  H      4.329274    9.884666    1.116175
  H      3.838737    7.602119    1.554761
  H      2.728100    8.354032    2.919526
  H      2.387934    8.697139    1.159460

 Multiplicity           Mult            ....    1
 Number of Electrons    NEL             ....   18
 Basis Dimension        Dim             ....  172

ORBITAL ENERGIES
----------------

  NO   OCC          E(Eh)            E(eV)
   0   2.0000     -19.233139      -523.3603
   1   2.0000     -10.329643      -281.0839
   2   2.0000      -1.136542       -30.9269
   3   2.0000      -0.783878       -21.3304
   4   2.0000      -0.607130       -16.5208
   5   2.0000      -0.536761       -14.6060
   6   2.0000      -0.519836       -14.1455
   7   2.0000      -0.434867       -11.8333
   8   2.0000      -0.374169       -10.1817
   9   0.0000       0.070946         1.9305
  10   0.0000       0.136570         3.7163
  11   0.0000       0.145358         3.9554
  12   0.0000       0.163235         4.4419
  13   0.0000       0.187109         5.0915

MULLIKEN ATOMIC CHARGES
-----------------------
   0 C :   -0.006856
   1 O :   -0.000831
   2 H :   -0.000081
   3 H :   -0.000347
   4 H :    0.000365
   5 H :   -0.001844
   6 C :   -0.182251
   7 O :   -0.459678
   8 H :    0.313835
   9 H :    0.104703
  10 H :    0.125373
  11 H :    0.107612
Sum of atomic charges:   -0.0000000

LOEWDIN ATOMIC CHARGES
----------------------
   0 C :   -0.010703
   1 O :   -0.009286
   2 H :   -0.000881
   3 H :   -0.000148
   4 H :   -0.001729
   5 H :   -0.002881
   6 C :   -0.393494
   7 O :   -0.073935
   8 H :    0.170669
   9 H :    0.105764
  10 H :    0.119380
  11 H :    0.097246

  Mayer bond orders larger than 0.1
B(  6-C ,  7-O ) :   0.9993 B(  6-C ,  9-H ) :   0.9728 B(  6-C , 10-H ) :   0.9704
B(  6-C , 11-H ) :   0.9697 B(  7-O ,  8-H ) :   0.9052

Dispersion correction           -0.000252827
FINAL SINGLE POINT ENERGY      -115.732835063943

DIPOLE MOMENT
-------------
                                X             Y             Z
Electronic contribution:      1.01466       1.50043       0.29202
Nuclear contribution   :     -1.15077      -1.80564      -0.87630
                        -----------------------------------------
Total Dipole Moment    :     -0.13612      -0.30521      -0.58428
                        -----------------------------------------
Magnitude (a.u.)       :      0.67310
Magnitude (Debye)      :      1.71090

Rotational constants in cm-1:     3.925355     0.820812     0.790189
Rotational constants in MHz : 117679.187497 24607.332102 23689.258972

                             ****ORCA TERMINATED NORMALLY****
TOTAL RUN TIME: 0 days 0 hours 1 minutes 37 seconds 256 msec
