                         Program Version 4.1.2  - RELEASE  -
|  1> #Run DFT-D3 single point of the dimer
|  2> ! wB97X-D3 def2-TZVP TIGHTSCF CHELPG PMODEL PAL8
|  3>
|  4> %base "15-179_DFT_AB"
|  5>
|  6> %scf
|  7> MaxIter 1000
|  8> end
|  9>
| 10> * xyz 0 1
| 11>   C                      0.577342             8.286108             -6.879825
| 12>   O                      -0.082059            7.315492             -6.092842
| 13>   H                      -0.200547            6.592440             -6.761152
| 14>   H                      1.445892             7.839362             -7.293645
| 15>   H                      0.031159             8.724131             -7.716760
| 16>   H                      0.959594             9.097686             -6.252328
| 17>   C                      0.197106             5.643279             -2.810635
| 18>   O                      0.990186             6.638446             -3.502178
| 19>   H                      0.467502             7.018824             -4.265643
| 20>   H                      0.725189             4.808074             -2.264387
| 21>   H                      -0.343198            6.242626             -2.087123
| 22>   H                      -0.659478            5.169632             -3.309473
| 23> *
| 24>
| 25> #Run DFT-D3 single point of the molecule with dimer basis set
| 26> $new_job
| 27> %base "15-179_DFT_A"
| 28> ! wB97X-D3 def2-TZVP TIGHTSCF CHELPG PMODEL
| 29>
| 30> %scf
| 31> MaxIter 1000
| 32> end
| 33>
| 34> * xyz 0 1
| 35>   C                      0.577342             8.286108             -6.879825
| 36>   O                      -0.082059            7.315492             -6.092842
| 37>   H                      -0.200547            6.592440             -6.761152
| 38>   H                      1.445892             7.839362             -7.293645
| 39>   H                      0.031159             8.724131             -7.716760
| 40>   H                      0.959594             9.097686             -6.252328
| 41>   C                    : 0.197106             5.643279             -2.810635
| 42>   O                    : 0.990186             6.638446             -3.502178
| 43>   H                    : 0.467502             7.018824             -4.265643
| 44>   H                    : 0.725189             4.808074             -2.264387
| 45>   H                    : -0.343198            6.242626             -2.087123
| 46>   H                    : -0.659478            5.169632             -3.309473
| 47> *
| 48>
| 49> #Run DFT-D3 single point of the particle with dimer basis set
| 50> $new_job
| 51> %base "15-179_DFT_B"
| 52> ! wB97X-D3 def2-TZVP TIGHTSCF CHELPG PMODEL
| 53>
| 54> %scf
| 55> MaxIter 1000
| 56> end
| 57>
| 58> * xyz 0 1
| 59>   C                    : 0.577342             8.286108             -6.879825
| 60>   O                    : -0.082059            7.315492             -6.092842
| 61>   H                    : -0.200547            6.592440             -6.761152
| 62>   H                    : 1.445892             7.839362             -7.293645
| 63>   H                    : 0.031159             8.724131             -7.716760
| 64>   H                    : 0.959594             9.097686             -6.252328
| 65>   C                      0.197106             5.643279             -2.810635
| 66>   O                      0.990186             6.638446             -3.502178
| 67>   H                      0.467502             7.018824             -4.265643
| 68>   H                      0.725189             4.808074             -2.264387
| 69>   H                      -0.343198            6.242626             -2.087123
| 70>   H                      -0.659478            5.169632             -3.309473
| 71> *
| 72>
| 73>                          ****END OF INPUT****
 Total Charge           Charge          ....    0
 Multiplicity           Mult            ....    1
 Number of Electrons    NEL             ....   36
Dispersion correction           -0.001595440
FINAL SINGLE POINT ENERGY      -231.462543387045
Dispersion correction           -0.000224171
FINAL SINGLE POINT ENERGY      -115.732007961908

CARTESIAN COORDINATES (ANGSTROEM)
---------------------------------
  C      0.577342    8.286108   -6.879825
  O     -0.082059    7.315492   -6.092842
  H     -0.200547    6.592440   -6.761152
  H      1.445892    7.839362   -7.293645
  H      0.031159    8.724131   -7.716760
  H      0.959594    9.097686   -6.252328
  C      0.197106    5.643279   -2.810635
  O      0.990186    6.638446   -3.502178
  H      0.467502    7.018824   -4.265643
  H      0.725189    4.808074   -2.264387
  H     -0.343198    6.242626   -2.087123
  H     -0.659478    5.169632   -3.309473

 Multiplicity           Mult            ....    1
 Number of Electrons    NEL             ....   18
 Basis Dimension        Dim             ....  172

ORBITAL ENERGIES
----------------

  NO   OCC          E(Eh)            E(eV)
   0   2.0000     -19.237009      -523.4656
   1   2.0000     -10.318871      -280.7908
   2   2.0000      -1.119708       -30.4688
   3   2.0000      -0.795022       -21.6336
   4   2.0000      -0.605790       -16.4844
   5   2.0000      -0.535688       -14.5768
   6   2.0000      -0.513432       -13.9712
   7   2.0000      -0.436663       -11.8822
   8   2.0000      -0.369251       -10.0478
   9   0.0000       0.070515         1.9188
  10   0.0000       0.126839         3.4515
  11   0.0000       0.144264         3.9256
  12   0.0000       0.166213         4.5229
  13   0.0000       0.190117         5.1733

MULLIKEN ATOMIC CHARGES
-----------------------
   0 C :   -0.002291
   1 O :   -0.003861
   2 H :   -0.000411
   3 H :    0.000098
   4 H :    0.000049
   5 H :   -0.000042
   6 C :   -0.191121
   7 O :   -0.475075
   8 H :    0.321367
   9 H :    0.126405
  10 H :    0.114575
  11 H :    0.110306
Sum of atomic charges:   -0.0000000

LOEWDIN ATOMIC CHARGES
----------------------
   0 C :   -0.003815
   1 O :   -0.021403
   2 H :   -0.001391
   3 H :   -0.000169
   4 H :   -0.000066
   5 H :   -0.000362
   6 C :   -0.379838
   7 O :   -0.106860
   8 H :    0.203427
   9 H :    0.114884
  10 H :    0.097946
  11 H :    0.097647

  Mayer bond orders larger than 0.1
B(  6-C ,  7-O ) :   0.9863 B(  6-C ,  9-H ) :   0.9651 B(  6-C , 10-H ) :   0.9925
B(  6-C , 11-H ) :   0.9660 B(  7-O ,  8-H ) :   0.8915

Dispersion correction           -0.000284063
FINAL SINGLE POINT ENERGY      -115.722446192489

DIPOLE MOMENT
-------------
                                X             Y             Z
Electronic contribution:      1.28842       1.14391      -0.91639
Nuclear contribution   :     -1.97067      -1.31143       0.72996
                        -----------------------------------------
Total Dipole Moment    :     -0.68225      -0.16752      -0.18643
                        -----------------------------------------
Magnitude (a.u.)       :      0.72683
Magnitude (Debye)      :      1.84746

Rotational constants in cm-1:     4.401517     0.784511     0.750023
Rotational constants in MHz : 131954.159274 23519.045334 22485.113945

                             ****ORCA TERMINATED NORMALLY****
TOTAL RUN TIME: 0 days 0 hours 1 minutes 6 seconds 462 msec
