                         Program Version 4.1.2  - RELEASE  -
|  1> #Run DFT-D3 single point of the dimer
|  2> ! wB97X-D3 def2-TZVP TIGHTSCF CHELPG PMODEL PAL8
|  3>
|  4> %base "18-97_DFT_AB"
|  5>
|  6> %scf
|  7> MaxIter 1000
|  8> end
|  9>
| 10> * xyz 0 1
| 11>   C                      6.430916             -8.552411            -1.489255
| 12>   O                      6.868516             -9.819716            -2.040261
| 13>   H                      7.680427             -9.616635            -2.544591
| 14>   H                      5.535664             -8.670275            -0.881404
| 15>   H                      7.250177             -8.131062            -0.814206
| 16>   H                      6.147152             -7.774020            -2.250141
| 17>   C                      11.338925            -10.965689           -0.275492
| 18>   O                      9.968722             -10.875381           -0.253434
| 19>   H                      9.606358             -11.447969           0.483523
| 20>   H                      11.820256            -11.855597           -0.630856
| 21>   H                      11.884229            -10.155072           -0.800702
| 22>   H                      11.694519            -10.914047           0.768294
| 23> *
| 24>
| 25> #Run DFT-D3 single point of the molecule with dimer basis set
| 26> $new_job
| 27> %base "18-97_DFT_A"
| 28> ! wB97X-D3 def2-TZVP TIGHTSCF CHELPG PMODEL
| 29>
| 30> %scf
| 31> MaxIter 1000
| 32> end
| 33>
| 34> * xyz 0 1
| 35>   C                      6.430916             -8.552411            -1.489255
| 36>   O                      6.868516             -9.819716            -2.040261
| 37>   H                      7.680427             -9.616635            -2.544591
| 38>   H                      5.535664             -8.670275            -0.881404
| 39>   H                      7.250177             -8.131062            -0.814206
| 40>   H                      6.147152             -7.774020            -2.250141
| 41>   C                    : 11.338925            -10.965689           -0.275492
| 42>   O                    : 9.968722             -10.875381           -0.253434
| 43>   H                    : 9.606358             -11.447969           0.483523
| 44>   H                    : 11.820256            -11.855597           -0.630856
| 45>   H                    : 11.884229            -10.155072           -0.800702
| 46>   H                    : 11.694519            -10.914047           0.768294
| 47> *
| 48>
| 49> #Run DFT-D3 single point of the particle with dimer basis set
| 50> $new_job
| 51> %base "18-97_DFT_B"
| 52> ! wB97X-D3 def2-TZVP TIGHTSCF CHELPG PMODEL
| 53>
| 54> %scf
| 55> MaxIter 1000
| 56> end
| 57>
| 58> * xyz 0 1
| 59>   C                    : 6.430916             -8.552411            -1.489255
| 60>   O                    : 6.868516             -9.819716            -2.040261
| 61>   H                    : 7.680427             -9.616635            -2.544591
| 62>   H                    : 5.535664             -8.670275            -0.881404
| 63>   H                    : 7.250177             -8.131062            -0.814206
| 64>   H                    : 6.147152             -7.774020            -2.250141
| 65>   C                      11.338925            -10.965689           -0.275492
| 66>   O                      9.968722             -10.875381           -0.253434
| 67>   H                      9.606358             -11.447969           0.483523
| 68>   H                      11.820256            -11.855597           -0.630856
| 69>   H                      11.884229            -10.155072           -0.800702
| 70>   H                      11.694519            -10.914047           0.768294
| 71> *
| 72>
| 73>                          ****END OF INPUT****
 Total Charge           Charge          ....    0
 Multiplicity           Mult            ....    1
 Number of Electrons    NEL             ....   36
Dispersion correction           -0.001014928
FINAL SINGLE POINT ENERGY      -231.462051747372
Dispersion correction           -0.000270722
FINAL SINGLE POINT ENERGY      -115.733353397102

CARTESIAN COORDINATES (ANGSTROEM)
---------------------------------
  C      6.430916   -8.552411   -1.489255
  O      6.868516   -9.819716   -2.040261
  H      7.680427   -9.616635   -2.544591
  H      5.535664   -8.670275   -0.881404
  H      7.250177   -8.131062   -0.814206
  H      6.147152   -7.774020   -2.250141
  C     11.338925  -10.965689   -0.275492
  O      9.968722  -10.875381   -0.253434
  H      9.606358  -11.447969    0.483523
  H     11.820256  -11.855597   -0.630856
  H     11.884229  -10.155072   -0.800702
  H     11.694519  -10.914047    0.768294

 Multiplicity           Mult            ....    1
 Number of Electrons    NEL             ....   18
 Basis Dimension        Dim             ....  172

ORBITAL ENERGIES
----------------

  NO   OCC          E(Eh)            E(eV)
   0   2.0000     -19.237719      -523.4850
   1   2.0000     -10.309895      -280.5465
   2   2.0000      -1.143687       -31.1213
   3   2.0000      -0.793527       -21.5930
   4   2.0000      -0.620502       -16.8847
   5   2.0000      -0.541814       -14.7435
   6   2.0000      -0.533200       -14.5091
   7   2.0000      -0.425631       -11.5820
   8   2.0000      -0.370375       -10.0784
   9   0.0000       0.094146         2.5619
  10   0.0000       0.112188         3.0528
  11   0.0000       0.149461         4.0671
  12   0.0000       0.177627         4.8335
  13   0.0000       0.202235         5.5031

MULLIKEN ATOMIC CHARGES
-----------------------
   0 C :    0.000545
   1 O :   -0.000296
   2 H :   -0.001427
   3 H :    0.000010
   4 H :   -0.001263
   5 H :   -0.000047
   6 C :   -0.162914
   7 O :   -0.463532
   8 H :    0.324953
   9 H :    0.096154
  10 H :    0.116569
  11 H :    0.091248
Sum of atomic charges:    0.0000000

LOEWDIN ATOMIC CHARGES
----------------------
   0 C :   -0.000511
   1 O :   -0.000661
   2 H :   -0.001431
   3 H :   -0.000002
   4 H :   -0.000483
   5 H :   -0.000005
   6 C :   -0.430173
   7 O :   -0.059344
   8 H :    0.200376
   9 H :    0.085845
  10 H :    0.110838
  11 H :    0.095552

  Mayer bond orders larger than 0.1
B(  6-C ,  7-O ) :   1.0111 B(  6-C ,  9-H ) :   0.9655 B(  6-C , 10-H ) :   0.9725
B(  6-C , 11-H ) :   0.9928 B(  7-O ,  8-H ) :   0.8847

Dispersion correction           -0.000243885
FINAL SINGLE POINT ENERGY      -115.727841908127

DIPOLE MOMENT
-------------
                                X             Y             Z
Electronic contribution:     -1.98106       0.19034      -0.24328
Nuclear contribution   :      2.27015      -0.58651       0.71474
                        -----------------------------------------
Total Dipole Moment    :      0.28909      -0.39617       0.47146
                        -----------------------------------------
Magnitude (a.u.)       :      0.68029
Magnitude (Debye)      :      1.72917

Rotational constants in cm-1:     4.473151     0.854457     0.815810
Rotational constants in MHz : 134101.694570 25615.984743 24457.379251

                             ****ORCA TERMINATED NORMALLY****
TOTAL RUN TIME: 0 days 0 hours 0 minutes 45 seconds 758 msec
