                         Program Version 4.1.2  - RELEASE  -
|  1> #Run DFT-D3 single point of the dimer
|  2> ! wB97X-D3 def2-TZVP TIGHTSCF CHELPG PMODEL PAL8
|  3>
|  4> %base "2-79_DFT_AB"
|  5>
|  6> %scf
|  7> MaxIter 1000
|  8> end
|  9>
| 10> * xyz 0 1
| 11>   C                      -6.296488            0.198913             2.792889
| 12>   O                      -6.461516            -0.521665            1.555688
| 13>   H                      -5.961074            -1.353102            1.626890
| 14>   H                      -6.761771            -0.381322            3.663012
| 15>   H                      -5.261582            0.262228             3.149411
| 16>   H                      -6.779186            1.233509             2.736756
| 17>   C                      -8.858361            0.599760             5.266893
| 18>   O                      -8.070024            0.651154             6.431593
| 19>   H                      -7.598837            1.501472             6.559302
| 20>   H                      -9.791042            1.088440             5.490044
| 21>   H                      -8.279464            0.920911             4.389770
| 22>   H                      -9.148679            -0.456298            5.047756
| 23> *
| 24>
| 25> #Run DFT-D3 single point of the molecule with dimer basis set
| 26> $new_job
| 27> %base "2-79_DFT_A"
| 28> ! wB97X-D3 def2-TZVP TIGHTSCF CHELPG PMODEL
| 29>
| 30> %scf
| 31> MaxIter 1000
| 32> end
| 33>
| 34> * xyz 0 1
| 35>   C                      -6.296488            0.198913             2.792889
| 36>   O                      -6.461516            -0.521665            1.555688
| 37>   H                      -5.961074            -1.353102            1.626890
| 38>   H                      -6.761771            -0.381322            3.663012
| 39>   H                      -5.261582            0.262228             3.149411
| 40>   H                      -6.779186            1.233509             2.736756
| 41>   C                    : -8.858361            0.599760             5.266893
| 42>   O                    : -8.070024            0.651154             6.431593
| 43>   H                    : -7.598837            1.501472             6.559302
| 44>   H                    : -9.791042            1.088440             5.490044
| 45>   H                    : -8.279464            0.920911             4.389770
| 46>   H                    : -9.148679            -0.456298            5.047756
| 47> *
| 48>
| 49> #Run DFT-D3 single point of the particle with dimer basis set
| 50> $new_job
| 51> %base "2-79_DFT_B"
| 52> ! wB97X-D3 def2-TZVP TIGHTSCF CHELPG PMODEL
| 53>
| 54> %scf
| 55> MaxIter 1000
| 56> end
| 57>
| 58> * xyz 0 1
| 59>   C                    : -6.296488            0.198913             2.792889
| 60>   O                    : -6.461516            -0.521665            1.555688
| 61>   H                    : -5.961074            -1.353102            1.626890
| 62>   H                    : -6.761771            -0.381322            3.663012
| 63>   H                    : -5.261582            0.262228             3.149411
| 64>   H                    : -6.779186            1.233509             2.736756
| 65>   C                      -8.858361            0.599760             5.266893
| 66>   O                      -8.070024            0.651154             6.431593
| 67>   H                      -7.598837            1.501472             6.559302
| 68>   H                      -9.791042            1.088440             5.490044
| 69>   H                      -8.279464            0.920911             4.389770
| 70>   H                      -9.148679            -0.456298            5.047756
| 71> *
| 72>
| 73>                          ****END OF INPUT****
 Total Charge           Charge          ....    0
 Multiplicity           Mult            ....    1
 Number of Electrons    NEL             ....   36
Dispersion correction           -0.001693372
FINAL SINGLE POINT ENERGY      -231.462516136814
Dispersion correction           -0.000270371
FINAL SINGLE POINT ENERGY      -115.730881372704

CARTESIAN COORDINATES (ANGSTROEM)
---------------------------------
  C     -6.296488    0.198913    2.792889
  O     -6.461516   -0.521665    1.555688
  H     -5.961074   -1.353102    1.626890
  H     -6.761771   -0.381322    3.663012
  H     -5.261582    0.262228    3.149411
  H     -6.779186    1.233509    2.736756
  C     -8.858361    0.599760    5.266893
  O     -8.070024    0.651154    6.431593
  H     -7.598837    1.501472    6.559302
  H     -9.791042    1.088440    5.490044
  H     -8.279464    0.920911    4.389770
  H     -9.148679   -0.456298    5.047756

 Multiplicity           Mult            ....    1
 Number of Electrons    NEL             ....   18
 Basis Dimension        Dim             ....  172

ORBITAL ENERGIES
----------------

  NO   OCC          E(Eh)            E(eV)
   0   2.0000     -19.226006      -523.1662
   1   2.0000     -10.313066      -280.6328
   2   2.0000      -1.128843       -30.7174
   3   2.0000      -0.794180       -21.6107
   4   2.0000      -0.603157       -16.4127
   5   2.0000      -0.554578       -15.0908
   6   2.0000      -0.524545       -14.2736
   7   2.0000      -0.416450       -11.3322
   8   2.0000      -0.372013       -10.1230
   9   0.0000       0.084761         2.3065
  10   0.0000       0.119755         3.2587
  11   0.0000       0.155439         4.2297
  12   0.0000       0.166713         4.5365
  13   0.0000       0.190082         5.1724

MULLIKEN ATOMIC CHARGES
-----------------------
   0 C :    0.001147
   1 O :    0.000464
   2 H :    0.000067
   3 H :    0.001325
   4 H :   -0.000241
   5 H :   -0.001644
   6 C :   -0.143093
   7 O :   -0.499078
   8 H :    0.320045
   9 H :    0.112489
  10 H :    0.099678
  11 H :    0.108841
Sum of atomic charges:   -0.0000000

LOEWDIN ATOMIC CHARGES
----------------------
   0 C :   -0.011797
   1 O :   -0.000021
   2 H :   -0.000007
   3 H :   -0.005618
   4 H :   -0.000104
   5 H :   -0.004485
   6 C :   -0.383002
   7 O :   -0.088443
   8 H :    0.178822
   9 H :    0.093786
  10 H :    0.106906
  11 H :    0.113963

  Mayer bond orders larger than 0.1
B(  6-C ,  7-O ) :   0.9813 B(  6-C ,  9-H ) :   0.9817 B(  6-C , 10-H ) :   0.9820
B(  6-C , 11-H ) :   0.9717 B(  7-O ,  8-H ) :   0.8894

Dispersion correction           -0.000247560
FINAL SINGLE POINT ENERGY      -115.732004828237

DIPOLE MOMENT
-------------
                                X             Y             Z
Electronic contribution:      0.94643       0.06878       1.43875
Nuclear contribution   :     -0.96690       0.44135      -1.83008
                        -----------------------------------------
Total Dipole Moment    :     -0.02047       0.51013      -0.39133
                        -----------------------------------------
Magnitude (a.u.)       :      0.64327
Magnitude (Debye)      :      1.63505

Rotational constants in cm-1:     4.278496     0.828905     0.808357
Rotational constants in MHz : 128266.083329 24849.943107 24233.939532

                             ****ORCA TERMINATED NORMALLY****
TOTAL RUN TIME: 0 days 0 hours 6 minutes 0 seconds 133 msec
