                         Program Version 4.1.2  - RELEASE  -
|  1> #Run DFT-D3 single point of the dimer
|  2> ! wB97X-D3 def2-TZVP TIGHTSCF CHELPG PMODEL PAL8
|  3>
|  4> %base "2-111_DFT_AB"
|  5>
|  6> %scf
|  7> MaxIter 1000
|  8> end
|  9>
| 10> * xyz 0 1
| 11>   C                      -11.039653           -0.863043            -7.009951
| 12>   O                      -9.846374            -0.423377            -7.613633
| 13>   H                      -9.078687            -0.729567            -7.139579
| 14>   H                      -10.911681           -0.614363            -5.982342
| 15>   H                      -11.876190           -0.281241            -7.407889
| 16>   H                      -11.245498           -1.931224            -7.171333
| 17>   C                      -8.553679            1.998471             -10.210150
| 18>   O                      -9.406339            1.833040             -9.120833
| 19>   H                      -9.828810            0.981746             -9.163183
| 20>   H                      -9.071317            1.805013             -11.142384
| 21>   H                      -8.218732            3.056978             -10.178995
| 22>   H                      -7.623207            1.354793             -10.046904
| 23> *
| 24>
| 25> #Run DFT-D3 single point of the molecule with dimer basis set
| 26> $new_job
| 27> %base "2-111_DFT_A"
| 28> ! wB97X-D3 def2-TZVP TIGHTSCF CHELPG PMODEL
| 29>
| 30> %scf
| 31> MaxIter 1000
| 32> end
| 33>
| 34> * xyz 0 1
| 35>   C                      -11.039653           -0.863043            -7.009951
| 36>   O                      -9.846374            -0.423377            -7.613633
| 37>   H                      -9.078687            -0.729567            -7.139579
| 38>   H                      -10.911681           -0.614363            -5.982342
| 39>   H                      -11.876190           -0.281241            -7.407889
| 40>   H                      -11.245498           -1.931224            -7.171333
| 41>   C                    : -8.553679            1.998471             -10.210150
| 42>   O                    : -9.406339            1.833040             -9.120833
| 43>   H                    : -9.828810            0.981746             -9.163183
| 44>   H                    : -9.071317            1.805013             -11.142384
| 45>   H                    : -8.218732            3.056978             -10.178995
| 46>   H                    : -7.623207            1.354793             -10.046904
| 47> *
| 48>
| 49> #Run DFT-D3 single point of the particle with dimer basis set
| 50> $new_job
| 51> %base "2-111_DFT_B"
| 52> ! wB97X-D3 def2-TZVP TIGHTSCF CHELPG PMODEL
| 53>
| 54> %scf
| 55> MaxIter 1000
| 56> end
| 57>
| 58> * xyz 0 1
| 59>   C                    : -11.039653           -0.863043            -7.009951
| 60>   O                    : -9.846374            -0.423377            -7.613633
| 61>   H                    : -9.078687            -0.729567            -7.139579
| 62>   H                    : -10.911681           -0.614363            -5.982342
| 63>   H                    : -11.876190           -0.281241            -7.407889
| 64>   H                    : -11.245498           -1.931224            -7.171333
| 65>   C                      -8.553679            1.998471             -10.210150
| 66>   O                      -9.406339            1.833040             -9.120833
| 67>   H                      -9.828810            0.981746             -9.163183
| 68>   H                      -9.071317            1.805013             -11.142384
| 69>   H                      -8.218732            3.056978             -10.178995
| 70>   H                      -7.623207            1.354793             -10.046904
| 71> *
| 72>
| 73>                          ****END OF INPUT****
 Total Charge           Charge          ....    0
 Multiplicity           Mult            ....    1
 Number of Electrons    NEL             ....   36
Dispersion correction           -0.001506898
FINAL SINGLE POINT ENERGY      -231.472217424904
Dispersion correction           -0.000228634
FINAL SINGLE POINT ENERGY      -115.734144267358

CARTESIAN COORDINATES (ANGSTROEM)
---------------------------------
  C    -11.039653   -0.863043   -7.009951
  O     -9.846374   -0.423377   -7.613633
  H     -9.078687   -0.729567   -7.139579
  H    -10.911681   -0.614363   -5.982342
  H    -11.876190   -0.281241   -7.407889
  H    -11.245498   -1.931224   -7.171333
  C     -8.553679    1.998471  -10.210150
  O     -9.406339    1.833040   -9.120833
  H     -9.828810    0.981746   -9.163183
  H     -9.071317    1.805013  -11.142384
  H     -8.218732    3.056978  -10.178995
  H     -7.623207    1.354793  -10.046904

 Multiplicity           Mult            ....    1
 Number of Electrons    NEL             ....   18
 Basis Dimension        Dim             ....  172

ORBITAL ENERGIES
----------------

  NO   OCC          E(Eh)            E(eV)
   0   2.0000     -19.227419      -523.2047
   1   2.0000     -10.316880      -280.7366
   2   2.0000      -1.143216       -31.1085
   3   2.0000      -0.791620       -21.5411
   4   2.0000      -0.612260       -16.6605
   5   2.0000      -0.546853       -14.8806
   6   2.0000      -0.527273       -14.3478
   7   2.0000      -0.428023       -11.6471
   8   2.0000      -0.371925       -10.1206
   9   0.0000       0.078386         2.1330
  10   0.0000       0.127860         3.4793
  11   0.0000       0.156939         4.2705
  12   0.0000       0.164708         4.4819
  13   0.0000       0.199361         5.4249

MULLIKEN ATOMIC CHARGES
-----------------------
   0 C :   -0.002360
   1 O :   -0.004587
   2 H :   -0.001189
   3 H :    0.000157
   4 H :   -0.000154
   5 H :    0.000075
   6 C :   -0.157320
   7 O :   -0.462552
   8 H :    0.312447
   9 H :    0.104603
  10 H :    0.116467
  11 H :    0.094413
Sum of atomic charges:    0.0000000

LOEWDIN ATOMIC CHARGES
----------------------
   0 C :   -0.002530
   1 O :   -0.018795
   2 H :   -0.001907
   3 H :   -0.000063
   4 H :   -0.000333
   5 H :   -0.000040
   6 C :   -0.401907
   7 O :   -0.048992
   8 H :    0.167931
   9 H :    0.091746
  10 H :    0.112851
  11 H :    0.102039

  Mayer bond orders larger than 0.1
B(  6-C ,  7-O ) :   1.0044 B(  6-C ,  9-H ) :   0.9782 B(  6-C , 10-H ) :   0.9726
B(  6-C , 11-H ) :   0.9737 B(  7-O ,  8-H ) :   0.8991

Dispersion correction           -0.000232008
FINAL SINGLE POINT ENERGY      -115.735053572560

DIPOLE MOMENT
-------------
                                X             Y             Z
Electronic contribution:     -1.11498      -0.10532       1.32507
Nuclear contribution   :      1.15913      -0.34316      -1.77969
                        -----------------------------------------
Total Dipole Moment    :      0.04416      -0.44848      -0.45462
                        -----------------------------------------
Magnitude (a.u.)       :      0.64013
Magnitude (Debye)      :      1.62707

Rotational constants in cm-1:     4.124262     0.851394     0.828052
Rotational constants in MHz : 123642.256676 25524.155072 24824.377218

                             ****ORCA TERMINATED NORMALLY****
TOTAL RUN TIME: 0 days 0 hours 5 minutes 58 seconds 982 msec
