                         Program Version 4.1.2  - RELEASE  -
|  1> #Run DFT-D3 single point of the dimer
|  2> ! wB97X-D3 def2-TZVP TIGHTSCF CHELPG PMODEL PAL8
|  3>
|  4> %base "15-106_DFT_AB"
|  5>
|  6> %scf
|  7> MaxIter 1000
|  8> end
|  9>
| 10> * xyz 0 1
| 11>   C                      5.769253             2.723060             -5.358341
| 12>   O                      4.814784             3.262569             -6.303090
| 13>   H                      4.560570             4.189452             -6.048641
| 14>   H                      5.512399             1.716891             -5.023752
| 15>   H                      6.764949             2.673232             -5.826764
| 16>   H                      5.846086             3.305604             -4.359895
| 17>   C                      6.835082             3.846317             -8.826568
| 18>   O                      7.782450             3.576878             -9.885194
| 19>   H                      8.552816             3.207707             -9.439110
| 20>   H                      6.576839             2.941924             -8.234913
| 21>   H                      7.180840             4.703544             -8.205151
| 22>   H                      5.885759             4.173400             -9.286453
| 23> *
| 24>
| 25> #Run DFT-D3 single point of the molecule with dimer basis set
| 26> $new_job
| 27> %base "15-106_DFT_A"
| 28> ! wB97X-D3 def2-TZVP TIGHTSCF CHELPG PMODEL
| 29>
| 30> %scf
| 31> MaxIter 1000
| 32> end
| 33>
| 34> * xyz 0 1
| 35>   C                      5.769253             2.723060             -5.358341
| 36>   O                      4.814784             3.262569             -6.303090
| 37>   H                      4.560570             4.189452             -6.048641
| 38>   H                      5.512399             1.716891             -5.023752
| 39>   H                      6.764949             2.673232             -5.826764
| 40>   H                      5.846086             3.305604             -4.359895
| 41>   C                    : 6.835082             3.846317             -8.826568
| 42>   O                    : 7.782450             3.576878             -9.885194
| 43>   H                    : 8.552816             3.207707             -9.439110
| 44>   H                    : 6.576839             2.941924             -8.234913
| 45>   H                    : 7.180840             4.703544             -8.205151
| 46>   H                    : 5.885759             4.173400             -9.286453
| 47> *
| 48>
| 49> #Run DFT-D3 single point of the particle with dimer basis set
| 50> $new_job
| 51> %base "15-106_DFT_B"
| 52> ! wB97X-D3 def2-TZVP TIGHTSCF CHELPG PMODEL
| 53>
| 54> %scf
| 55> MaxIter 1000
| 56> end
| 57>
| 58> * xyz 0 1
| 59>   C                    : 5.769253             2.723060             -5.358341
| 60>   O                    : 4.814784             3.262569             -6.303090
| 61>   H                    : 4.560570             4.189452             -6.048641
| 62>   H                    : 5.512399             1.716891             -5.023752
| 63>   H                    : 6.764949             2.673232             -5.826764
| 64>   H                    : 5.846086             3.305604             -4.359895
| 65>   C                      6.835082             3.846317             -8.826568
| 66>   O                      7.782450             3.576878             -9.885194
| 67>   H                      8.552816             3.207707             -9.439110
| 68>   H                      6.576839             2.941924             -8.234913
| 69>   H                      7.180840             4.703544             -8.205151
| 70>   H                      5.885759             4.173400             -9.286453
| 71> *
| 72>
| 73>                          ****END OF INPUT****
 Total Charge           Charge          ....    0
 Multiplicity           Mult            ....    1
 Number of Electrons    NEL             ....   36
Dispersion correction           -0.001931365
FINAL SINGLE POINT ENERGY      -231.467648894301
Dispersion correction           -0.000291893
FINAL SINGLE POINT ENERGY      -115.730682245823

CARTESIAN COORDINATES (ANGSTROEM)
---------------------------------
  C      5.769253    2.723060   -5.358341
  O      4.814784    3.262569   -6.303090
  H      4.560570    4.189452   -6.048641
  H      5.512399    1.716891   -5.023752
  H      6.764949    2.673232   -5.826764
  H      5.846086    3.305604   -4.359895
  C      6.835082    3.846317   -8.826568
  O      7.782450    3.576878   -9.885194
  H      8.552816    3.207707   -9.439110
  H      6.576839    2.941924   -8.234913
  H      7.180840    4.703544   -8.205151
  H      5.885759    4.173400   -9.286453

 Multiplicity           Mult            ....    1
 Number of Electrons    NEL             ....   18
 Basis Dimension        Dim             ....  172

ORBITAL ENERGIES
----------------

  NO   OCC          E(Eh)            E(eV)
   0   2.0000     -19.232221      -523.3353
   1   2.0000     -10.320496      -280.8350
   2   2.0000      -1.128178       -30.6993
   3   2.0000      -0.791714       -21.5436
   4   2.0000      -0.600219       -16.3328
   5   2.0000      -0.542321       -14.7573
   6   2.0000      -0.519478       -14.1357
   7   2.0000      -0.435105       -11.8398
   8   2.0000      -0.377115       -10.2618
   9   0.0000       0.080517         2.1910
  10   0.0000       0.115289         3.1372
  11   0.0000       0.146669         3.9911
  12   0.0000       0.172380         4.6907
  13   0.0000       0.183881         5.0037

MULLIKEN ATOMIC CHARGES
-----------------------
   0 C :   -0.001712
   1 O :    0.000234
   2 H :    0.000068
   3 H :   -0.000030
   4 H :   -0.001061
   5 H :   -0.000066
   6 C :   -0.179954
   7 O :   -0.472766
   8 H :    0.313030
   9 H :    0.111924
  10 H :    0.109468
  11 H :    0.120865
Sum of atomic charges:    0.0000000

LOEWDIN ATOMIC CHARGES
----------------------
   0 C :   -0.006277
   1 O :   -0.003528
   2 H :   -0.000336
   3 H :   -0.000075
   4 H :   -0.003810
   5 H :   -0.000057
   6 C :   -0.371469
   7 O :   -0.099609
   8 H :    0.168542
   9 H :    0.104345
  10 H :    0.101333
  11 H :    0.110941

  Mayer bond orders larger than 0.1
B(  6-C ,  7-O ) :   0.9988 B(  6-C ,  9-H ) :   0.9722 B(  6-C , 10-H ) :   0.9729
B(  6-C , 11-H ) :   0.9704 B(  7-O ,  8-H ) :   0.9020

Dispersion correction           -0.000256523
FINAL SINGLE POINT ENERGY      -115.735369723334

DIPOLE MOMENT
-------------
                                X             Y             Z
Electronic contribution:      1.14599      -0.32891      -1.40468
Nuclear contribution   :     -1.06658       0.20887       2.09107
                        -----------------------------------------
Total Dipole Moment    :      0.07941      -0.12004       0.68639
                        -----------------------------------------
Magnitude (a.u.)       :      0.70132
Magnitude (Debye)      :      1.78262

Rotational constants in cm-1:     4.153563     0.797729     0.776898
Rotational constants in MHz : 124520.682035 23915.307767 23290.824030

                             ****ORCA TERMINATED NORMALLY****
TOTAL RUN TIME: 0 days 0 hours 0 minutes 53 seconds 914 msec
