                         Program Version 4.1.2  - RELEASE  -
|  1> #Run DFT-D3 single point of the dimer
|  2> ! wB97X-D3 def2-TZVP TIGHTSCF CHELPG PMODEL PAL8
|  3>
|  4> %base "4-176_DFT_AB"
|  5>
|  6> %scf
|  7> MaxIter 1000
|  8> end
|  9>
| 10> * xyz 0 1
| 11>   C                      9.897088             -6.106647            -1.344404
| 12>   O                      8.894205             -6.210218            -0.357511
| 13>   H                      8.365926             -5.424265            -0.546781
| 14>   H                      9.837343             -6.958201            -2.012444
| 15>   H                      9.795360             -5.159881            -1.911323
| 16>   H                      10.927268            -6.047717            -0.936030
| 17>   C                      8.781810             -2.907840            1.108210
| 18>   O                      8.441871             -2.974294            -0.306185
| 19>   H                      7.565023             -3.371196            -0.310385
| 20>   H                      8.668325             -3.878862            1.667925
| 21>   H                      9.851191             -2.708176            1.214549
| 22>   H                      8.151343             -2.172420            1.656720
| 23> *
| 24>
| 25> #Run DFT-D3 single point of the molecule with dimer basis set
| 26> $new_job
| 27> %base "4-176_DFT_A"
| 28> ! wB97X-D3 def2-TZVP TIGHTSCF CHELPG PMODEL
| 29>
| 30> %scf
| 31> MaxIter 1000
| 32> end
| 33>
| 34> * xyz 0 1
| 35>   C                      9.897088             -6.106647            -1.344404
| 36>   O                      8.894205             -6.210218            -0.357511
| 37>   H                      8.365926             -5.424265            -0.546781
| 38>   H                      9.837343             -6.958201            -2.012444
| 39>   H                      9.795360             -5.159881            -1.911323
| 40>   H                      10.927268            -6.047717            -0.936030
| 41>   C                    : 8.781810             -2.907840            1.108210
| 42>   O                    : 8.441871             -2.974294            -0.306185
| 43>   H                    : 7.565023             -3.371196            -0.310385
| 44>   H                    : 8.668325             -3.878862            1.667925
| 45>   H                    : 9.851191             -2.708176            1.214549
| 46>   H                    : 8.151343             -2.172420            1.656720
| 47> *
| 48>
| 49> #Run DFT-D3 single point of the particle with dimer basis set
| 50> $new_job
| 51> %base "4-176_DFT_B"
| 52> ! wB97X-D3 def2-TZVP TIGHTSCF CHELPG PMODEL
| 53>
| 54> %scf
| 55> MaxIter 1000
| 56> end
| 57>
| 58> * xyz 0 1
| 59>   C                    : 9.897088             -6.106647            -1.344404
| 60>   O                    : 8.894205             -6.210218            -0.357511
| 61>   H                    : 8.365926             -5.424265            -0.546781
| 62>   H                    : 9.837343             -6.958201            -2.012444
| 63>   H                    : 9.795360             -5.159881            -1.911323
| 64>   H                    : 10.927268            -6.047717            -0.936030
| 65>   C                      8.781810             -2.907840            1.108210
| 66>   O                      8.441871             -2.974294            -0.306185
| 67>   H                      7.565023             -3.371196            -0.310385
| 68>   H                      8.668325             -3.878862            1.667925
| 69>   H                      9.851191             -2.708176            1.214549
| 70>   H                      8.151343             -2.172420            1.656720
| 71> *
| 72>
| 73>                          ****END OF INPUT****
 Total Charge           Charge          ....    0
 Multiplicity           Mult            ....    1
 Number of Electrons    NEL             ....   36
Dispersion correction           -0.002098379
FINAL SINGLE POINT ENERGY      -231.470640902822
Dispersion correction           -0.000237367
FINAL SINGLE POINT ENERGY      -115.733234863596

CARTESIAN COORDINATES (ANGSTROEM)
---------------------------------
  C      9.897088   -6.106647   -1.344404
  O      8.894205   -6.210218   -0.357511
  H      8.365926   -5.424265   -0.546781
  H      9.837343   -6.958201   -2.012444
  H      9.795360   -5.159881   -1.911323
  H     10.927268   -6.047717   -0.936030
  C      8.781810   -2.907840    1.108210
  O      8.441871   -2.974294   -0.306185
  H      7.565023   -3.371196   -0.310385
  H      8.668325   -3.878862    1.667925
  H      9.851191   -2.708176    1.214549
  H      8.151343   -2.172420    1.656720

 Multiplicity           Mult            ....    1
 Number of Electrons    NEL             ....   18
 Basis Dimension        Dim             ....  172

ORBITAL ENERGIES
----------------

  NO   OCC          E(Eh)            E(eV)
   0   2.0000     -19.236721      -523.4578
   1   2.0000     -10.322966      -280.9022
   2   2.0000      -1.128577       -30.7101
   3   2.0000      -0.793454       -21.5910
   4   2.0000      -0.604021       -16.4362
   5   2.0000      -0.538539       -14.6544
   6   2.0000      -0.515816       -14.0361
   7   2.0000      -0.442953       -12.0534
   8   2.0000      -0.378092       -10.2884
   9   0.0000       0.090541         2.4637
  10   0.0000       0.127616         3.4726
  11   0.0000       0.145046         3.9469
  12   0.0000       0.173767         4.7285
  13   0.0000       0.196423         5.3449

MULLIKEN ATOMIC CHARGES
-----------------------
   0 C :    0.008139
   1 O :    0.002960
   2 H :   -0.019660
   3 H :   -0.000426
   4 H :   -0.005746
   5 H :   -0.000559
   6 C :   -0.193748
   7 O :   -0.456472
   8 H :    0.315099
   9 H :    0.109427
  10 H :    0.127112
  11 H :    0.113874
Sum of atomic charges:   -0.0000000

LOEWDIN ATOMIC CHARGES
----------------------
   0 C :   -0.004261
   1 O :   -0.001871
   2 H :   -0.013892
   3 H :   -0.000054
   4 H :   -0.003892
   5 H :   -0.000085
   6 C :   -0.369061
   7 O :   -0.086654
   8 H :    0.169998
   9 H :    0.101094
  10 H :    0.108992
  11 H :    0.099687

  Mayer bond orders larger than 0.1
B(  6-C ,  7-O ) :   0.9962 B(  6-C ,  9-H ) :   0.9696 B(  6-C , 10-H ) :   0.9750
B(  6-C , 11-H ) :   0.9707 B(  7-O ,  8-H ) :   0.9013

Dispersion correction           -0.000267175
FINAL SINGLE POINT ENERGY      -115.733995768317

DIPOLE MOMENT
-------------
                                X             Y             Z
Electronic contribution:     -0.29352       0.07248      -1.89331
Nuclear contribution   :     -0.09615      -0.28522       2.47255
                        -----------------------------------------
Total Dipole Moment    :     -0.38967      -0.21274       0.57924
                        -----------------------------------------
Magnitude (a.u.)       :      0.72981
Magnitude (Debye)      :      1.85502

Rotational constants in cm-1:     4.199146     0.787480     0.760590
Rotational constants in MHz : 125887.240616 23608.046389 22801.909048

                             ****ORCA TERMINATED NORMALLY****
TOTAL RUN TIME: 0 days 0 hours 1 minutes 35 seconds 345 msec
