                         Program Version 4.1.2  - RELEASE  -
|  1> #Run DFT-D3 single point of the dimer
|  2> ! wB97X-D3 def2-TZVP TIGHTSCF CHELPG PMODEL PAL8
|  3>
|  4> %base "18-99_DFT_AB"
|  5>
|  6> %scf
|  7> MaxIter 1000
|  8> end
|  9>
| 10> * xyz 0 1
| 11>   C                      6.430916             -8.552411            -1.489255
| 12>   O                      6.868516             -9.819716            -2.040261
| 13>   H                      7.680427             -9.616635            -2.544591
| 14>   H                      5.535664             -8.670275            -0.881404
| 15>   H                      7.250177             -8.131062            -0.814206
| 16>   H                      6.147152             -7.774020            -2.250141
| 17>   C                      5.145212             -11.023255           -6.473144
| 18>   O                      6.165765             -10.033122           -6.475074
| 19>   H                      6.160345             -9.606264            -7.317652
| 20>   H                      4.241159             -10.711664           -5.988630
| 21>   H                      4.936577             -11.255154           -7.514384
| 22>   H                      5.558417             -11.941200           -6.064285
| 23> *
| 24>
| 25> #Run DFT-D3 single point of the molecule with dimer basis set
| 26> $new_job
| 27> %base "18-99_DFT_A"
| 28> ! wB97X-D3 def2-TZVP TIGHTSCF CHELPG PMODEL
| 29>
| 30> %scf
| 31> MaxIter 1000
| 32> end
| 33>
| 34> * xyz 0 1
| 35>   C                      6.430916             -8.552411            -1.489255
| 36>   O                      6.868516             -9.819716            -2.040261
| 37>   H                      7.680427             -9.616635            -2.544591
| 38>   H                      5.535664             -8.670275            -0.881404
| 39>   H                      7.250177             -8.131062            -0.814206
| 40>   H                      6.147152             -7.774020            -2.250141
| 41>   C                    : 5.145212             -11.023255           -6.473144
| 42>   O                    : 6.165765             -10.033122           -6.475074
| 43>   H                    : 6.160345             -9.606264            -7.317652
| 44>   H                    : 4.241159             -10.711664           -5.988630
| 45>   H                    : 4.936577             -11.255154           -7.514384
| 46>   H                    : 5.558417             -11.941200           -6.064285
| 47> *
| 48>
| 49> #Run DFT-D3 single point of the particle with dimer basis set
| 50> $new_job
| 51> %base "18-99_DFT_B"
| 52> ! wB97X-D3 def2-TZVP TIGHTSCF CHELPG PMODEL
| 53>
| 54> %scf
| 55> MaxIter 1000
| 56> end
| 57>
| 58> * xyz 0 1
| 59>   C                    : 6.430916             -8.552411            -1.489255
| 60>   O                    : 6.868516             -9.819716            -2.040261
| 61>   H                    : 7.680427             -9.616635            -2.544591
| 62>   H                    : 5.535664             -8.670275            -0.881404
| 63>   H                    : 7.250177             -8.131062            -0.814206
| 64>   H                    : 6.147152             -7.774020            -2.250141
| 65>   C                      5.145212             -11.023255           -6.473144
| 66>   O                      6.165765             -10.033122           -6.475074
| 67>   H                      6.160345             -9.606264            -7.317652
| 68>   H                      4.241159             -10.711664           -5.988630
| 69>   H                      4.936577             -11.255154           -7.514384
| 70>   H                      5.558417             -11.941200           -6.064285
| 71> *
| 72>
| 73>                          ****END OF INPUT****
 Total Charge           Charge          ....    0
 Multiplicity           Mult            ....    1
 Number of Electrons    NEL             ....   36
Dispersion correction           -0.000758462
FINAL SINGLE POINT ENERGY      -231.467673438205
Dispersion correction           -0.000270722
FINAL SINGLE POINT ENERGY      -115.733255639756

CARTESIAN COORDINATES (ANGSTROEM)
---------------------------------
  C      6.430916   -8.552411   -1.489255
  O      6.868516   -9.819716   -2.040261
  H      7.680427   -9.616635   -2.544591
  H      5.535664   -8.670275   -0.881404
  H      7.250177   -8.131062   -0.814206
  H      6.147152   -7.774020   -2.250141
  C      5.145212  -11.023255   -6.473144
  O      6.165765  -10.033122   -6.475074
  H      6.160345   -9.606264   -7.317652
  H      4.241159  -10.711664   -5.988630
  H      4.936577  -11.255154   -7.514384
  H      5.558417  -11.941200   -6.064285

 Multiplicity           Mult            ....    1
 Number of Electrons    NEL             ....   18
 Basis Dimension        Dim             ....  172

ORBITAL ENERGIES
----------------

  NO   OCC          E(Eh)            E(eV)
   0   2.0000     -19.225288      -523.1467
   1   2.0000     -10.309475      -280.5351
   2   2.0000      -1.135450       -30.8972
   3   2.0000      -0.798555       -21.7298
   4   2.0000      -0.610732       -16.6189
   5   2.0000      -0.550149       -14.9703
   6   2.0000      -0.525982       -14.3127
   7   2.0000      -0.428062       -11.6482
   8   2.0000      -0.376183       -10.2365
   9   0.0000       0.093630         2.5478
  10   0.0000       0.114921         3.1272
  11   0.0000       0.158183         4.3044
  12   0.0000       0.172464         4.6930
  13   0.0000       0.197842         5.3836

MULLIKEN ATOMIC CHARGES
-----------------------
   0 C :    0.000092
   1 O :   -0.000035
   2 H :   -0.000330
   3 H :    0.000003
   4 H :   -0.000005
   5 H :   -0.000152
   6 C :   -0.153146
   7 O :   -0.474840
   8 H :    0.313456
   9 H :    0.106084
  10 H :    0.096620
  11 H :    0.112254
Sum of atomic charges:   -0.0000000

LOEWDIN ATOMIC CHARGES
----------------------
   0 C :   -0.000043
   1 O :   -0.000037
   2 H :   -0.000188
   3 H :   -0.000000
   4 H :   -0.000001
   5 H :   -0.000043
   6 C :   -0.369432
   7 O :   -0.079682
   8 H :    0.157485
   9 H :    0.092039
  10 H :    0.096259
  11 H :    0.103641

  Mayer bond orders larger than 0.1
B(  6-C ,  7-O ) :   1.0042 B(  6-C ,  9-H ) :   0.9695 B(  6-C , 10-H ) :   0.9937
B(  6-C , 11-H ) :   0.9770 B(  7-O ,  8-H ) :   0.9048

Dispersion correction           -0.000233327
FINAL SINGLE POINT ENERGY      -115.733907992213

DIPOLE MOMENT
-------------
                                X             Y             Z
Electronic contribution:      1.23001       1.23509       0.23467
Nuclear contribution   :     -1.64601      -1.37359      -0.80980
                        -----------------------------------------
Total Dipole Moment    :     -0.41599      -0.13850      -0.57514
                        -----------------------------------------
Magnitude (a.u.)       :      0.72320
Magnitude (Debye)      :      1.83823

Rotational constants in cm-1:     4.353277     0.828478     0.805885
Rotational constants in MHz : 130507.970429 24837.143111 24159.810198

                             ****ORCA TERMINATED NORMALLY****
TOTAL RUN TIME: 0 days 0 hours 0 minutes 44 seconds 476 msec
