                         Program Version 4.1.2  - RELEASE  -
|  1> #Run DFT-D3 single point of the dimer
|  2> ! wB97X-D3 def2-TZVP TIGHTSCF CHELPG PMODEL PAL8
|  3>
|  4> %base "9-36_DFT_AB"
|  5>
|  6> %scf
|  7> MaxIter 1000
|  8> end
|  9>
| 10> * xyz 0 1
| 11>   C                      9.668153             -8.802298            3.443174
| 12>   O                      9.283030             -9.279826            2.182614
| 13>   H                      8.535800             -9.932465            2.235001
| 14>   H                      10.301862            -9.574787            3.917111
| 15>   H                      10.289359            -7.879110            3.349851
| 16>   H                      8.819729             -8.629750            4.115209
| 17>   C                      6.643819             -5.073961            2.193083
| 18>   O                      6.713602             -3.959975            1.388510
| 19>   H                      7.603339             -3.876061            1.129665
| 20>   H                      5.676125             -5.296266            2.692927
| 21>   H                      7.024868             -5.958597            1.775256
| 22>   H                      7.375252             -4.882919            3.008673
| 23> *
| 24>
| 25> #Run DFT-D3 single point of the molecule with dimer basis set
| 26> $new_job
| 27> %base "9-36_DFT_A"
| 28> ! wB97X-D3 def2-TZVP TIGHTSCF CHELPG PMODEL
| 29>
| 30> %scf
| 31> MaxIter 1000
| 32> end
| 33>
| 34> * xyz 0 1
| 35>   C                      9.668153             -8.802298            3.443174
| 36>   O                      9.283030             -9.279826            2.182614
| 37>   H                      8.535800             -9.932465            2.235001
| 38>   H                      10.301862            -9.574787            3.917111
| 39>   H                      10.289359            -7.879110            3.349851
| 40>   H                      8.819729             -8.629750            4.115209
| 41>   C                    : 6.643819             -5.073961            2.193083
| 42>   O                    : 6.713602             -3.959975            1.388510
| 43>   H                    : 7.603339             -3.876061            1.129665
| 44>   H                    : 5.676125             -5.296266            2.692927
| 45>   H                    : 7.024868             -5.958597            1.775256
| 46>   H                    : 7.375252             -4.882919            3.008673
| 47> *
| 48>
| 49> #Run DFT-D3 single point of the particle with dimer basis set
| 50> $new_job
| 51> %base "9-36_DFT_B"
| 52> ! wB97X-D3 def2-TZVP TIGHTSCF CHELPG PMODEL
| 53>
| 54> %scf
| 55> MaxIter 1000
| 56> end
| 57>
| 58> * xyz 0 1
| 59>   C                    : 9.668153             -8.802298            3.443174
| 60>   O                    : 9.283030             -9.279826            2.182614
| 61>   H                    : 8.535800             -9.932465            2.235001
| 62>   H                    : 10.301862            -9.574787            3.917111
| 63>   H                    : 10.289359            -7.879110            3.349851
| 64>   H                    : 8.819729             -8.629750            4.115209
| 65>   C                      6.643819             -5.073961            2.193083
| 66>   O                      6.713602             -3.959975            1.388510
| 67>   H                      7.603339             -3.876061            1.129665
| 68>   H                      5.676125             -5.296266            2.692927
| 69>   H                      7.024868             -5.958597            1.775256
| 70>   H                      7.375252             -4.882919            3.008673
| 71> *
| 72>
| 73>                          ****END OF INPUT****
 Total Charge           Charge          ....    0
 Multiplicity           Mult            ....    1
 Number of Electrons    NEL             ....   36
Dispersion correction           -0.000826820
FINAL SINGLE POINT ENERGY      -231.461649816584
Dispersion correction           -0.000248151
FINAL SINGLE POINT ENERGY      -115.733895927119

CARTESIAN COORDINATES (ANGSTROEM)
---------------------------------
  C      9.668153   -8.802298    3.443174
  O      9.283030   -9.279826    2.182614
  H      8.535800   -9.932465    2.235001
  H     10.301862   -9.574787    3.917111
  H     10.289359   -7.879110    3.349851
  H      8.819729   -8.629750    4.115209
  C      6.643819   -5.073961    2.193083
  O      6.713602   -3.959975    1.388510
  H      7.603339   -3.876061    1.129665
  H      5.676125   -5.296266    2.692927
  H      7.024868   -5.958597    1.775256
  H      7.375252   -4.882919    3.008673

 Multiplicity           Mult            ....    1
 Number of Electrons    NEL             ....   18
 Basis Dimension        Dim             ....  172

ORBITAL ENERGIES
----------------

  NO   OCC          E(Eh)            E(eV)
   0   2.0000     -19.228166      -523.2250
   1   2.0000     -10.309426      -280.5337
   2   2.0000      -1.156460       -31.4689
   3   2.0000      -0.797791       -21.7090
   4   2.0000      -0.626792       -17.0559
   5   2.0000      -0.541919       -14.7464
   6   2.0000      -0.538457       -14.6522
   7   2.0000      -0.435024       -11.8376
   8   2.0000      -0.367320        -9.9953
   9   0.0000       0.078261         2.1296
  10   0.0000       0.117360         3.1935
  11   0.0000       0.152723         4.1558
  12   0.0000       0.157737         4.2922
  13   0.0000       0.190558         5.1853

MULLIKEN ATOMIC CHARGES
-----------------------
   0 C :   -0.000179
   1 O :    0.000018
   2 H :   -0.000015
   3 H :   -0.000010
   4 H :   -0.000033
   5 H :   -0.000005
   6 C :   -0.165573
   7 O :   -0.457151
   8 H :    0.312632
   9 H :    0.119832
  10 H :    0.099929
  11 H :    0.090555
Sum of atomic charges:    0.0000000

LOEWDIN ATOMIC CHARGES
----------------------
   0 C :   -0.000260
   1 O :   -0.000042
   2 H :   -0.000025
   3 H :   -0.000005
   4 H :   -0.000039
   5 H :   -0.000051
   6 C :   -0.414484
   7 O :   -0.034592
   8 H :    0.156693
   9 H :    0.113280
  10 H :    0.082145
  11 H :    0.097379

  Mayer bond orders larger than 0.1
B(  6-C ,  7-O ) :   0.9969 B(  6-C ,  9-H ) :   0.9684 B(  6-C , 10-H ) :   0.9730
B(  6-C , 11-H ) :   0.9968 B(  7-O ,  8-H ) :   0.9030

Dispersion correction           -0.000209873
FINAL SINGLE POINT ENERGY      -115.727028269576

DIPOLE MOMENT
-------------
                                X             Y             Z
Electronic contribution:     -0.22295       1.47230      -1.23154
Nuclear contribution   :      0.77491      -1.84797       1.36572
                        -----------------------------------------
Total Dipole Moment    :      0.55196      -0.37567       0.13418
                        -----------------------------------------
Magnitude (a.u.)       :      0.68102
Magnitude (Debye)      :      1.73101

Rotational constants in cm-1:     4.481096     0.870603     0.830406
Rotational constants in MHz : 134339.892801 26100.026876 24894.955986

                             ****ORCA TERMINATED NORMALLY****
TOTAL RUN TIME: 0 days 0 hours 0 minutes 40 seconds 833 msec
