                         Program Version 4.1.2  - RELEASE  -
|  1> #Run DFT-D3 single point of the dimer
|  2> ! wB97X-D3 def2-TZVP TIGHTSCF CHELPG PMODEL PAL8
|  3>
|  4> %base "13-108_DFT_AB"
|  5>
|  6> %scf
|  7> MaxIter 1000
|  8> end
|  9>
| 10> * xyz 0 1
| 11>   C                      -6.030512            6.655904             1.816928
| 12>   O                      -5.728468            6.776601             3.218112
| 13>   H                      -4.798940            6.874311             3.255842
| 14>   H                      -7.104650            6.813739             1.601745
| 15>   H                      -5.444522            7.352368             1.185617
| 16>   H                      -5.877691            5.637061             1.551672
| 17>   C                      -10.204970           7.615686             2.738602
| 18>   O                      -9.690328            8.291197             3.957859
| 19>   H                      -8.772755            8.499973             3.921221
| 20>   H                      -9.407760            7.280991             2.087798
| 21>   H                      -10.925905           6.792328             2.886304
| 22>   H                      -10.817833           8.344414             2.173466
| 23> *
| 24>
| 25> #Run DFT-D3 single point of the molecule with dimer basis set
| 26> $new_job
| 27> %base "13-108_DFT_A"
| 28> ! wB97X-D3 def2-TZVP TIGHTSCF CHELPG PMODEL
| 29>
| 30> %scf
| 31> MaxIter 1000
| 32> end
| 33>
| 34> * xyz 0 1
| 35>   C                      -6.030512            6.655904             1.816928
| 36>   O                      -5.728468            6.776601             3.218112
| 37>   H                      -4.798940            6.874311             3.255842
| 38>   H                      -7.104650            6.813739             1.601745
| 39>   H                      -5.444522            7.352368             1.185617
| 40>   H                      -5.877691            5.637061             1.551672
| 41>   C                    : -10.204970           7.615686             2.738602
| 42>   O                    : -9.690328            8.291197             3.957859
| 43>   H                    : -8.772755            8.499973             3.921221
| 44>   H                    : -9.407760            7.280991             2.087798
| 45>   H                    : -10.925905           6.792328             2.886304
| 46>   H                    : -10.817833           8.344414             2.173466
| 47> *
| 48>
| 49> #Run DFT-D3 single point of the particle with dimer basis set
| 50> $new_job
| 51> %base "13-108_DFT_B"
| 52> ! wB97X-D3 def2-TZVP TIGHTSCF CHELPG PMODEL
| 53>
| 54> %scf
| 55> MaxIter 1000
| 56> end
| 57>
| 58> * xyz 0 1
| 59>   C                    : -6.030512            6.655904             1.816928
| 60>   O                    : -5.728468            6.776601             3.218112
| 61>   H                    : -4.798940            6.874311             3.255842
| 62>   H                    : -7.104650            6.813739             1.601745
| 63>   H                    : -5.444522            7.352368             1.185617
| 64>   H                    : -5.877691            5.637061             1.551672
| 65>   C                      -10.204970           7.615686             2.738602
| 66>   O                      -9.690328            8.291197             3.957859
| 67>   H                      -8.772755            8.499973             3.921221
| 68>   H                      -9.407760            7.280991             2.087798
| 69>   H                      -10.925905           6.792328             2.886304
| 70>   H                      -10.817833           8.344414             2.173466
| 71> *
| 72>
| 73>                          ****END OF INPUT****
 Total Charge           Charge          ....    0
 Multiplicity           Mult            ....    1
 Number of Electrons    NEL             ....   36
Dispersion correction           -0.001391460
FINAL SINGLE POINT ENERGY      -231.462146204834
Dispersion correction           -0.000238998
FINAL SINGLE POINT ENERGY      -115.733069768878

CARTESIAN COORDINATES (ANGSTROEM)
---------------------------------
  C     -6.030512    6.655904    1.816928
  O     -5.728468    6.776601    3.218112
  H     -4.798940    6.874311    3.255842
  H     -7.104650    6.813739    1.601745
  H     -5.444522    7.352368    1.185617
  H     -5.877691    5.637061    1.551672
  C    -10.204970    7.615686    2.738602
  O     -9.690328    8.291197    3.957859
  H     -8.772755    8.499973    3.921221
  H     -9.407760    7.280991    2.087798
  H    -10.925905    6.792328    2.886304
  H    -10.817833    8.344414    2.173466

 Multiplicity           Mult            ....    1
 Number of Electrons    NEL             ....   18
 Basis Dimension        Dim             ....  172

ORBITAL ENERGIES
----------------

  NO   OCC          E(Eh)            E(eV)
   0   2.0000     -19.226964      -523.1923
   1   2.0000     -10.322737      -280.8960
   2   2.0000      -1.116091       -30.3704
   3   2.0000      -0.802756       -21.8441
   4   2.0000      -0.603848       -16.4315
   5   2.0000      -0.531559       -14.4645
   6   2.0000      -0.521450       -14.1894
   7   2.0000      -0.432431       -11.7670
   8   2.0000      -0.373274       -10.1573
   9   0.0000       0.075205         2.0464
  10   0.0000       0.123683         3.3656
  11   0.0000       0.140271         3.8170
  12   0.0000       0.165346         4.4993
  13   0.0000       0.191464         5.2100

MULLIKEN ATOMIC CHARGES
-----------------------
   0 C :   -0.002220
   1 O :   -0.000002
   2 H :    0.000003
   3 H :    0.003731
   4 H :    0.000032
   5 H :    0.000017
   6 C :   -0.175456
   7 O :   -0.494096
   8 H :    0.314845
   9 H :    0.111726
  10 H :    0.124460
  11 H :    0.116961
Sum of atomic charges:    0.0000000

LOEWDIN ATOMIC CHARGES
----------------------
   0 C :   -0.001272
   1 O :   -0.000208
   2 H :   -0.000010
   3 H :   -0.003432
   4 H :   -0.000004
   5 H :   -0.000010
   6 C :   -0.333832
   7 O :   -0.118517
   8 H :    0.149611
   9 H :    0.097152
  10 H :    0.107449
  11 H :    0.103072

  Mayer bond orders larger than 0.1
B(  6-C ,  7-O ) :   0.9938 B(  6-C ,  9-H ) :   0.9742 B(  6-C , 10-H ) :   0.9711
B(  6-C , 11-H ) :   0.9812 B(  7-O ,  8-H ) :   0.9014

Dispersion correction           -0.000297422
FINAL SINGLE POINT ENERGY      -115.727665568530

DIPOLE MOMENT
-------------
                                X             Y             Z
Electronic contribution:      0.60768       0.72005       1.59609
Nuclear contribution   :     -0.22641      -0.88784      -2.18183
                        -----------------------------------------
Total Dipole Moment    :      0.38127      -0.16779      -0.58575
                        -----------------------------------------
Magnitude (a.u.)       :      0.71876
Magnitude (Debye)      :      1.82694

Rotational constants in cm-1:     4.480799     0.753856     0.727361
Rotational constants in MHz : 134330.978287 22600.022105 21805.728624

                             ****ORCA TERMINATED NORMALLY****
TOTAL RUN TIME: 0 days 0 hours 1 minutes 9 seconds 73 msec
