                         Program Version 4.1.2  - RELEASE  -
|  1> #Run DFT-D3 single point of the dimer
|  2> ! wB97X-D3 def2-TZVP TIGHTSCF CHELPG PMODEL PAL8
|  3>
|  4> %base "6-34_DFT_AB"
|  5>
|  6> %scf
|  7> MaxIter 1000
|  8> end
|  9>
| 10> * xyz 0 1
| 11>   C                      5.317093             -1.389465            9.829214
| 12>   O                      4.191214             -1.778297            9.136215
| 13>   H                      3.445085             -1.583899            9.711773
| 14>   H                      5.210921             -0.435185            10.318451
| 15>   H                      5.554928             -2.009631            10.720505
| 16>   H                      6.232359             -1.237325            9.223944
| 17>   C                      3.347516             2.510579             7.905746
| 18>   O                      2.922121             1.520003             7.053050
| 19>   H                      3.423921             0.693581             7.132739
| 20>   H                      4.440464             2.763975             7.918784
| 21>   H                      2.761968             3.416181             7.826046
| 22>   H                      3.109263             2.132877             8.914459
| 23> *
| 24>
| 25> #Run DFT-D3 single point of the molecule with dimer basis set
| 26> $new_job
| 27> %base "6-34_DFT_A"
| 28> ! wB97X-D3 def2-TZVP TIGHTSCF CHELPG PMODEL
| 29>
| 30> %scf
| 31> MaxIter 1000
| 32> end
| 33>
| 34> * xyz 0 1
| 35>   C                      5.317093             -1.389465            9.829214
| 36>   O                      4.191214             -1.778297            9.136215
| 37>   H                      3.445085             -1.583899            9.711773
| 38>   H                      5.210921             -0.435185            10.318451
| 39>   H                      5.554928             -2.009631            10.720505
| 40>   H                      6.232359             -1.237325            9.223944
| 41>   C                    : 3.347516             2.510579             7.905746
| 42>   O                    : 2.922121             1.520003             7.053050
| 43>   H                    : 3.423921             0.693581             7.132739
| 44>   H                    : 4.440464             2.763975             7.918784
| 45>   H                    : 2.761968             3.416181             7.826046
| 46>   H                    : 3.109263             2.132877             8.914459
| 47> *
| 48>
| 49> #Run DFT-D3 single point of the particle with dimer basis set
| 50> $new_job
| 51> %base "6-34_DFT_B"
| 52> ! wB97X-D3 def2-TZVP TIGHTSCF CHELPG PMODEL
| 53>
| 54> %scf
| 55> MaxIter 1000
| 56> end
| 57>
| 58> * xyz 0 1
| 59>   C                    : 5.317093             -1.389465            9.829214
| 60>   O                    : 4.191214             -1.778297            9.136215
| 61>   H                    : 3.445085             -1.583899            9.711773
| 62>   H                    : 5.210921             -0.435185            10.318451
| 63>   H                    : 5.554928             -2.009631            10.720505
| 64>   H                    : 6.232359             -1.237325            9.223944
| 65>   C                      3.347516             2.510579             7.905746
| 66>   O                      2.922121             1.520003             7.053050
| 67>   H                      3.423921             0.693581             7.132739
| 68>   H                      4.440464             2.763975             7.918784
| 69>   H                      2.761968             3.416181             7.826046
| 70>   H                      3.109263             2.132877             8.914459
| 71> *
| 72>
| 73>                          ****END OF INPUT****
 Total Charge           Charge          ....    0
 Multiplicity           Mult            ....    1
 Number of Electrons    NEL             ....   36
Dispersion correction           -0.001262355
FINAL SINGLE POINT ENERGY      -231.464779994447
Dispersion correction           -0.000234213
FINAL SINGLE POINT ENERGY      -115.731224345425

CARTESIAN COORDINATES (ANGSTROEM)
---------------------------------
  C      5.317093   -1.389465    9.829214
  O      4.191214   -1.778297    9.136215
  H      3.445085   -1.583899    9.711773
  H      5.210921   -0.435185   10.318451
  H      5.554928   -2.009631   10.720505
  H      6.232359   -1.237325    9.223944
  C      3.347516    2.510579    7.905746
  O      2.922121    1.520003    7.053050
  H      3.423921    0.693581    7.132739
  H      4.440464    2.763975    7.918784
  H      2.761968    3.416181    7.826046
  H      3.109263    2.132877    8.914459

 Multiplicity           Mult            ....    1
 Number of Electrons    NEL             ....   18
 Basis Dimension        Dim             ....  172

ORBITAL ENERGIES
----------------

  NO   OCC          E(Eh)            E(eV)
   0   2.0000     -19.229530      -523.2621
   1   2.0000     -10.312500      -280.6174
   2   2.0000      -1.144118       -31.1330
   3   2.0000      -0.794870       -21.6295
   4   2.0000      -0.617695       -16.8083
   5   2.0000      -0.539520       -14.6811
   6   2.0000      -0.537889       -14.6367
   7   2.0000      -0.425159       -11.5692
   8   2.0000      -0.366100        -9.9621
   9   0.0000       0.069009         1.8778
  10   0.0000       0.124874         3.3980
  11   0.0000       0.147392         4.0107
  12   0.0000       0.161122         4.3843
  13   0.0000       0.190257         5.1772

MULLIKEN ATOMIC CHARGES
-----------------------
   0 C :   -0.000209
   1 O :   -0.000100
   2 H :   -0.000148
   3 H :   -0.000254
   4 H :    0.000001
   5 H :    0.000012
   6 C :   -0.149709
   7 O :   -0.478757
   8 H :    0.322016
   9 H :    0.094785
  10 H :    0.120951
  11 H :    0.091412
Sum of atomic charges:    0.0000000

LOEWDIN ATOMIC CHARGES
----------------------
   0 C :   -0.000481
   1 O :   -0.000445
   2 H :   -0.000205
   3 H :   -0.000160
   4 H :   -0.000016
   5 H :   -0.000015
   6 C :   -0.419701
   7 O :   -0.054022
   8 H :    0.177446
   9 H :    0.096631
  10 H :    0.106313
  11 H :    0.094656

  Mayer bond orders larger than 0.1
B(  6-C ,  7-O ) :   0.9992 B(  6-C ,  9-H ) :   0.9674 B(  6-C , 10-H ) :   0.9693
B(  6-C , 11-H ) :   0.9921 B(  7-O ,  8-H ) :   0.8898

Dispersion correction           -0.000242431
FINAL SINGLE POINT ENERGY      -115.730939396807

DIPOLE MOMENT
-------------
                                X             Y             Z
Electronic contribution:     -0.61181      -1.15594      -1.35151
Nuclear contribution   :      1.07718       0.99986       1.73001
                        -----------------------------------------
Total Dipole Moment    :      0.46537      -0.15607       0.37850
                        -----------------------------------------
Magnitude (a.u.)       :      0.61983
Magnitude (Debye)      :      1.57548

Rotational constants in cm-1:     4.379919     0.856989     0.825838
Rotational constants in MHz : 131306.681390 25691.873368 24757.996974

                             ****ORCA TERMINATED NORMALLY****
TOTAL RUN TIME: 0 days 0 hours 1 minutes 7 seconds 821 msec
