                         Program Version 4.1.2  - RELEASE  -
|  1> #Run DFT-D3 single point of the dimer
|  2> ! wB97X-D3 def2-TZVP TIGHTSCF CHELPG PMODEL PAL8
|  3>
|  4> %base "13-93_DFT_AB"
|  5>
|  6> %scf
|  7> MaxIter 1000
|  8> end
|  9>
| 10> * xyz 0 1
| 11>   C                      8.560098             -2.673546            8.422270
| 12>   O                      8.250090             -2.701109            9.788705
| 13>   H                      8.844717             -3.285811            10.224851
| 14>   H                      9.658630             -2.494390            8.335668
| 15>   H                      8.219889             -3.530177            7.895463
| 16>   H                      8.112362             -1.780007            7.980744
| 17>   C                      9.438769             1.972816             6.617335
| 18>   O                      8.623969             3.030773             6.251968
| 19>   H                      8.260408             3.600270             7.019287
| 20>   H                      9.315507             1.715100             7.682329
| 21>   H                      9.288691             1.007495             6.008580
| 22>   H                      10.478213            2.223850             6.555681
| 23> *
| 24>
| 25> #Run DFT-D3 single point of the molecule with dimer basis set
| 26> $new_job
| 27> %base "13-93_DFT_A"
| 28> ! wB97X-D3 def2-TZVP TIGHTSCF CHELPG PMODEL
| 29>
| 30> %scf
| 31> MaxIter 1000
| 32> end
| 33>
| 34> * xyz 0 1
| 35>   C                      8.560098             -2.673546            8.422270
| 36>   O                      8.250090             -2.701109            9.788705
| 37>   H                      8.844717             -3.285811            10.224851
| 38>   H                      9.658630             -2.494390            8.335668
| 39>   H                      8.219889             -3.530177            7.895463
| 40>   H                      8.112362             -1.780007            7.980744
| 41>   C                    : 9.438769             1.972816             6.617335
| 42>   O                    : 8.623969             3.030773             6.251968
| 43>   H                    : 8.260408             3.600270             7.019287
| 44>   H                    : 9.315507             1.715100             7.682329
| 45>   H                    : 9.288691             1.007495             6.008580
| 46>   H                    : 10.478213            2.223850             6.555681
| 47> *
| 48>
| 49> #Run DFT-D3 single point of the particle with dimer basis set
| 50> $new_job
| 51> %base "13-93_DFT_B"
| 52> ! wB97X-D3 def2-TZVP TIGHTSCF CHELPG PMODEL
| 53>
| 54> %scf
| 55> MaxIter 1000
| 56> end
| 57>
| 58> * xyz 0 1
| 59>   C                    : 8.560098             -2.673546            8.422270
| 60>   O                    : 8.250090             -2.701109            9.788705
| 61>   H                    : 8.844717             -3.285811            10.224851
| 62>   H                    : 9.658630             -2.494390            8.335668
| 63>   H                    : 8.219889             -3.530177            7.895463
| 64>   H                    : 8.112362             -1.780007            7.980744
| 65>   C                      9.438769             1.972816             6.617335
| 66>   O                      8.623969             3.030773             6.251968
| 67>   H                      8.260408             3.600270             7.019287
| 68>   H                      9.315507             1.715100             7.682329
| 69>   H                      9.288691             1.007495             6.008580
| 70>   H                      10.478213            2.223850             6.555681
| 71> *
| 72>
| 73>                          ****END OF INPUT****
 Total Charge           Charge          ....    0
 Multiplicity           Mult            ....    1
 Number of Electrons    NEL             ....   36
Dispersion correction           -0.000806356
FINAL SINGLE POINT ENERGY      -231.461287984387
Dispersion correction           -0.000226227
FINAL SINGLE POINT ENERGY      -115.734448720436

CARTESIAN COORDINATES (ANGSTROEM)
---------------------------------
  C      8.560098   -2.673546    8.422270
  O      8.250090   -2.701109    9.788705
  H      8.844717   -3.285811   10.224851
  H      9.658630   -2.494390    8.335668
  H      8.219889   -3.530177    7.895463
  H      8.112362   -1.780007    7.980744
  C      9.438769    1.972816    6.617335
  O      8.623969    3.030773    6.251968
  H      8.260408    3.600270    7.019287
  H      9.315507    1.715100    7.682329
  H      9.288691    1.007495    6.008580
  H     10.478213    2.223850    6.555681

 Multiplicity           Mult            ....    1
 Number of Electrons    NEL             ....   18
 Basis Dimension        Dim             ....  172

ORBITAL ENERGIES
----------------

  NO   OCC          E(Eh)            E(eV)
   0   2.0000     -19.233155      -523.3608
   1   2.0000     -10.314866      -280.6818
   2   2.0000      -1.130656       -30.7667
   3   2.0000      -0.789488       -21.4831
   4   2.0000      -0.613647       -16.6982
   5   2.0000      -0.537215       -14.6184
   6   2.0000      -0.529048       -14.3961
   7   2.0000      -0.417747       -11.3675
   8   2.0000      -0.368650       -10.0315
   9   0.0000       0.084184         2.2908
  10   0.0000       0.105227         2.8634
  11   0.0000       0.138000         3.7552
  12   0.0000       0.173196         4.7129
  13   0.0000       0.190346         5.1796

MULLIKEN ATOMIC CHARGES
-----------------------
   0 C :    0.000228
   1 O :    0.000000
   2 H :   -0.000000
   3 H :   -0.000049
   4 H :   -0.000026
   5 H :   -0.000632
   6 C :   -0.151766
   7 O :   -0.489064
   8 H :    0.328640
   9 H :    0.097625
  10 H :    0.110457
  11 H :    0.104587
Sum of atomic charges:   -0.0000000

LOEWDIN ATOMIC CHARGES
----------------------
   0 C :   -0.000203
   1 O :   -0.000003
   2 H :   -0.000000
   3 H :   -0.000033
   4 H :   -0.000002
   5 H :   -0.000317
   6 C :   -0.418585
   7 O :   -0.086106
   8 H :    0.207181
   9 H :    0.095150
  10 H :    0.114111
  11 H :    0.088808

  Mayer bond orders larger than 0.1
B(  6-C ,  7-O ) :   1.0086 B(  6-C ,  9-H ) :   0.9859 B(  6-C , 10-H ) :   0.9674
B(  6-C , 11-H ) :   0.9731 B(  7-O ,  8-H ) :   0.8782

Dispersion correction           -0.000263145
FINAL SINGLE POINT ENERGY      -115.726367484676

DIPOLE MOMENT
-------------
                                X             Y             Z
Electronic contribution:     -1.10005       1.40986      -0.66838
Nuclear contribution   :      1.18281      -1.43730       1.33480
                        -----------------------------------------
Total Dipole Moment    :      0.08276      -0.02744       0.66641
                        -----------------------------------------
Magnitude (a.u.)       :      0.67209
Magnitude (Debye)      :      1.70833

Rotational constants in cm-1:     4.321051     0.837723     0.802081
Rotational constants in MHz : 129541.860183 25114.313452 24045.774968

                             ****ORCA TERMINATED NORMALLY****
TOTAL RUN TIME: 0 days 0 hours 0 minutes 59 seconds 418 msec
