                         Program Version 4.1.2  - RELEASE  -
|  1> #Run DFT-D3 single point of the dimer
|  2> ! wB97X-D3 def2-TZVP TIGHTSCF CHELPG PMODEL PAL8
|  3>
|  4> %base "19-144_DFT_AB"
|  5>
|  6> %scf
|  7> MaxIter 1000
|  8> end
|  9>
| 10> * xyz 0 1
| 11>   C                      6.381632             -1.870875            3.659416
| 12>   O                      6.865294             -2.428046            2.462627
| 13>   H                      7.177478             -3.339419            2.607261
| 14>   H                      5.847585             -2.577557            4.305369
| 15>   H                      7.275320             -1.535234            4.225810
| 16>   H                      5.685898             -1.053315            3.452593
| 17>   C                      5.315387             -0.297143            0.426428
| 18>   O                      5.717560             -1.458479            -0.103729
| 19>   H                      5.962384             -1.971798            0.628430
| 20>   H                      4.974802             0.396697             -0.343488
| 21>   H                      4.468870             -0.382213            1.072119
| 22>   H                      6.177868             0.154605             0.892551
| 23> *
| 24>
| 25> #Run DFT-D3 single point of the molecule with dimer basis set
| 26> $new_job
| 27> %base "19-144_DFT_A"
| 28> ! wB97X-D3 def2-TZVP TIGHTSCF CHELPG PMODEL
| 29>
| 30> %scf
| 31> MaxIter 1000
| 32> end
| 33>
| 34> * xyz 0 1
| 35>   C                      6.381632             -1.870875            3.659416
| 36>   O                      6.865294             -2.428046            2.462627
| 37>   H                      7.177478             -3.339419            2.607261
| 38>   H                      5.847585             -2.577557            4.305369
| 39>   H                      7.275320             -1.535234            4.225810
| 40>   H                      5.685898             -1.053315            3.452593
| 41>   C                    : 5.315387             -0.297143            0.426428
| 42>   O                    : 5.717560             -1.458479            -0.103729
| 43>   H                    : 5.962384             -1.971798            0.628430
| 44>   H                    : 4.974802             0.396697             -0.343488
| 45>   H                    : 4.468870             -0.382213            1.072119
| 46>   H                    : 6.177868             0.154605             0.892551
| 47> *
| 48>
| 49> #Run DFT-D3 single point of the particle with dimer basis set
| 50> $new_job
| 51> %base "19-144_DFT_B"
| 52> ! wB97X-D3 def2-TZVP TIGHTSCF CHELPG PMODEL
| 53>
| 54> %scf
| 55> MaxIter 1000
| 56> end
| 57>
| 58> * xyz 0 1
| 59>   C                    : 6.381632             -1.870875            3.659416
| 60>   O                    : 6.865294             -2.428046            2.462627
| 61>   H                    : 7.177478             -3.339419            2.607261
| 62>   H                    : 5.847585             -2.577557            4.305369
| 63>   H                    : 7.275320             -1.535234            4.225810
| 64>   H                    : 5.685898             -1.053315            3.452593
| 65>   C                      5.315387             -0.297143            0.426428
| 66>   O                      5.717560             -1.458479            -0.103729
| 67>   H                      5.962384             -1.971798            0.628430
| 68>   H                      4.974802             0.396697             -0.343488
| 69>   H                      4.468870             -0.382213            1.072119
| 70>   H                      6.177868             0.154605             0.892551
| 71> *
| 72>
| 73>                          ****END OF INPUT****
 Total Charge           Charge          ....    0
 Multiplicity           Mult            ....    1
 Number of Electrons    NEL             ....   36
Dispersion correction           -0.002090705
FINAL SINGLE POINT ENERGY      -231.472184324756
Dispersion correction           -0.000241501
FINAL SINGLE POINT ENERGY      -115.735038114006

CARTESIAN COORDINATES (ANGSTROEM)
---------------------------------
  C      6.381632   -1.870875    3.659416
  O      6.865294   -2.428046    2.462627
  H      7.177478   -3.339419    2.607261
  H      5.847585   -2.577557    4.305369
  H      7.275320   -1.535234    4.225810
  H      5.685898   -1.053315    3.452593
  C      5.315387   -0.297143    0.426428
  O      5.717560   -1.458479   -0.103729
  H      5.962384   -1.971798    0.628430
  H      4.974802    0.396697   -0.343488
  H      4.468870   -0.382213    1.072119
  H      6.177868    0.154605    0.892551

 Multiplicity           Mult            ....    1
 Number of Electrons    NEL             ....   18
 Basis Dimension        Dim             ....  172

ORBITAL ENERGIES
----------------

  NO   OCC          E(Eh)            E(eV)
   0   2.0000     -19.226684      -523.1847
   1   2.0000     -10.300664      -280.2953
   2   2.0000      -1.171288       -31.8724
   3   2.0000      -0.796800       -21.6820
   4   2.0000      -0.626440       -17.0463
   5   2.0000      -0.564527       -15.3616
   6   2.0000      -0.538583       -14.6556
   7   2.0000      -0.426959       -11.6181
   8   2.0000      -0.372520       -10.1368
   9   0.0000       0.069673         1.8959
  10   0.0000       0.138946         3.7809
  11   0.0000       0.144234         3.9248
  12   0.0000       0.177745         4.8367
  13   0.0000       0.191060         5.1990

MULLIKEN ATOMIC CHARGES
-----------------------
   0 C :    0.000183
   1 O :   -0.002842
   2 H :   -0.000346
   3 H :   -0.000000
   4 H :   -0.000116
   5 H :   -0.001270
   6 C :   -0.163395
   7 O :   -0.441958
   8 H :    0.308504
   9 H :    0.112250
  10 H :    0.094899
  11 H :    0.094091
Sum of atomic charges:    0.0000000

LOEWDIN ATOMIC CHARGES
----------------------
   0 C :   -0.004106
   1 O :   -0.012886
   2 H :   -0.000845
   3 H :   -0.000026
   4 H :   -0.000059
   5 H :   -0.002518
   6 C :   -0.438061
   7 O :    0.006308
   8 H :    0.160301
   9 H :    0.108931
  10 H :    0.088855
  11 H :    0.094106

  Mayer bond orders larger than 0.1
B(  6-C ,  7-O ) :   1.0013 B(  6-C ,  9-H ) :   0.9722 B(  6-C , 10-H ) :   0.9778
B(  6-C , 11-H ) :   0.9898 B(  7-O ,  8-H ) :   0.9161

Dispersion correction           -0.000186933
FINAL SINGLE POINT ENERGY      -115.728668797646

DIPOLE MOMENT
-------------
                                X             Y             Z
Electronic contribution:      0.49061      -1.58045      -0.80544
Nuclear contribution   :     -0.48637       1.66410       1.43528
                        -----------------------------------------
Total Dipole Moment    :      0.00425       0.08365       0.62984
                        -----------------------------------------
Magnitude (a.u.)       :      0.63539
Magnitude (Debye)      :      1.61502

Rotational constants in cm-1:     4.434631     0.915798     0.889335
Rotational constants in MHz : 132946.892384 27454.929673 26661.584814

                             ****ORCA TERMINATED NORMALLY****
TOTAL RUN TIME: 0 days 0 hours 1 minutes 45 seconds 206 msec
