                         Program Version 4.1.2  - RELEASE  -
|  1> #Run DFT-D3 single point of the dimer
|  2> ! wB97X-D3 def2-TZVP TIGHTSCF CHELPG PMODEL PAL8
|  3>
|  4> %base "5-108_DFT_AB"
|  5>
|  6> %scf
|  7> MaxIter 1000
|  8> end
|  9>
| 10> * xyz 0 1
| 11>   C                      5.879248             6.066946             0.264854
| 12>   O                      4.644750             5.484827             0.033709
| 13>   H                      3.940731             6.087676             0.317555
| 14>   H                      5.948655             7.172369             0.120098
| 15>   H                      6.144315             5.944105             1.290748
| 16>   H                      6.708963             5.622361             -0.348714
| 17>   C                      1.586198             3.064769             1.258012
| 18>   O                      2.942958             3.362784             1.580281
| 19>   H                      3.444564             3.670223             0.817226
| 20>   H                      1.019516             3.962641             1.026956
| 21>   H                      1.526199             2.411293             0.366586
| 22>   H                      0.905983             2.694856             2.019195
| 23> *
| 24>
| 25> #Run DFT-D3 single point of the molecule with dimer basis set
| 26> $new_job
| 27> %base "5-108_DFT_A"
| 28> ! wB97X-D3 def2-TZVP TIGHTSCF CHELPG PMODEL
| 29>
| 30> %scf
| 31> MaxIter 1000
| 32> end
| 33>
| 34> * xyz 0 1
| 35>   C                      5.879248             6.066946             0.264854
| 36>   O                      4.644750             5.484827             0.033709
| 37>   H                      3.940731             6.087676             0.317555
| 38>   H                      5.948655             7.172369             0.120098
| 39>   H                      6.144315             5.944105             1.290748
| 40>   H                      6.708963             5.622361             -0.348714
| 41>   C                    : 1.586198             3.064769             1.258012
| 42>   O                    : 2.942958             3.362784             1.580281
| 43>   H                    : 3.444564             3.670223             0.817226
| 44>   H                    : 1.019516             3.962641             1.026956
| 45>   H                    : 1.526199             2.411293             0.366586
| 46>   H                    : 0.905983             2.694856             2.019195
| 47> *
| 48>
| 49> #Run DFT-D3 single point of the particle with dimer basis set
| 50> $new_job
| 51> %base "5-108_DFT_B"
| 52> ! wB97X-D3 def2-TZVP TIGHTSCF CHELPG PMODEL
| 53>
| 54> %scf
| 55> MaxIter 1000
| 56> end
| 57>
| 58> * xyz 0 1
| 59>   C                    : 5.879248             6.066946             0.264854
| 60>   O                    : 4.644750             5.484827             0.033709
| 61>   H                    : 3.940731             6.087676             0.317555
| 62>   H                    : 5.948655             7.172369             0.120098
| 63>   H                    : 6.144315             5.944105             1.290748
| 64>   H                    : 6.708963             5.622361             -0.348714
| 65>   C                      1.586198             3.064769             1.258012
| 66>   O                      2.942958             3.362784             1.580281
| 67>   H                      3.444564             3.670223             0.817226
| 68>   H                      1.019516             3.962641             1.026956
| 69>   H                      1.526199             2.411293             0.366586
| 70>   H                      0.905983             2.694856             2.019195
| 71> *
| 72>
| 73>                          ****END OF INPUT****
 Total Charge           Charge          ....    0
 Multiplicity           Mult            ....    1
 Number of Electrons    NEL             ....   36
Dispersion correction           -0.001415326
FINAL SINGLE POINT ENERGY      -231.466880688059
Dispersion correction           -0.000244969
FINAL SINGLE POINT ENERGY      -115.732964358262

CARTESIAN COORDINATES (ANGSTROEM)
---------------------------------
  C      5.879248    6.066946    0.264854
  O      4.644750    5.484827    0.033709
  H      3.940731    6.087676    0.317555
  H      5.948655    7.172369    0.120098
  H      6.144315    5.944105    1.290748
  H      6.708963    5.622361   -0.348714
  C      1.586198    3.064769    1.258012
  O      2.942958    3.362784    1.580281
  H      3.444564    3.670223    0.817226
  H      1.019516    3.962641    1.026956
  H      1.526199    2.411293    0.366586
  H      0.905983    2.694856    2.019195

 Multiplicity           Mult            ....    1
 Number of Electrons    NEL             ....   18
 Basis Dimension        Dim             ....  172

ORBITAL ENERGIES
----------------

  NO   OCC          E(Eh)            E(eV)
   0   2.0000     -19.232041      -523.3304
   1   2.0000     -10.315280      -280.6930
   2   2.0000      -1.130202       -30.7544
   3   2.0000      -0.801788       -21.8178
   4   2.0000      -0.611562       -16.6415
   5   2.0000      -0.545476       -14.8431
   6   2.0000      -0.524281       -14.2664
   7   2.0000      -0.425114       -11.5679
   8   2.0000      -0.373026       -10.1506
   9   0.0000       0.076839         2.0909
  10   0.0000       0.123780         3.3682
  11   0.0000       0.145801         3.9675
  12   0.0000       0.171699         4.6722
  13   0.0000       0.196147         5.3374

MULLIKEN ATOMIC CHARGES
-----------------------
   0 C :   -0.000030
   1 O :   -0.002067
   2 H :   -0.002557
   3 H :   -0.000001
   4 H :   -0.000336
   5 H :    0.000028
   6 C :   -0.173829
   7 O :   -0.480998
   8 H :    0.322292
   9 H :    0.102274
  10 H :    0.105536
  11 H :    0.129687
Sum of atomic charges:   -0.0000000

LOEWDIN ATOMIC CHARGES
----------------------
   0 C :   -0.000776
   1 O :   -0.007831
   2 H :   -0.002861
   3 H :   -0.000012
   4 H :   -0.000100
   5 H :   -0.000015
   6 C :   -0.382881
   7 O :   -0.081533
   8 H :    0.173881
   9 H :    0.093989
  10 H :    0.098527
  11 H :    0.109610

  Mayer bond orders larger than 0.1
B(  6-C ,  7-O ) :   0.9969 B(  6-C ,  9-H ) :   0.9741 B(  6-C , 10-H ) :   0.9845
B(  6-C , 11-H ) :   0.9685 B(  7-O ,  8-H ) :   0.8922

Dispersion correction           -0.000267075
FINAL SINGLE POINT ENERGY      -115.728119033136

DIPOLE MOMENT
-------------
                                X             Y             Z
Electronic contribution:      1.81380       0.24852       0.64919
Nuclear contribution   :     -2.08020      -0.16282      -1.25891
                        -----------------------------------------
Total Dipole Moment    :     -0.26640       0.08570      -0.60972
                        -----------------------------------------
Magnitude (a.u.)       :      0.67087
Magnitude (Debye)      :      1.70523

Rotational constants in cm-1:     4.565972     0.800397     0.773425
Rotational constants in MHz : 136884.400373 23995.305398 23186.710060

                             ****ORCA TERMINATED NORMALLY****
TOTAL RUN TIME: 0 days 0 hours 0 minutes 59 seconds 609 msec
