                         Program Version 4.1.2  - RELEASE  -
|  1> #Run DFT-D3 single point of the dimer
|  2> ! wB97X-D3 def2-TZVP TIGHTSCF CHELPG PMODEL PAL8
|  3>
|  4> %base "14-185_DFT_AB"
|  5>
|  6> %scf
|  7> MaxIter 1000
|  8> end
|  9>
| 10> * xyz 0 1
| 11>   C                      3.680498             2.335612             0.190636
| 12>   O                      4.893785             1.958004             0.847665
| 13>   H                      5.476696             1.627880             0.132417
| 14>   H                      3.773636             2.993821             -0.671878
| 15>   H                      3.025651             1.475557             -0.033071
| 16>   H                      3.056318             2.917527             0.823814
| 17>   C                      6.986506             2.047789             -2.200333
| 18>   O                      6.307595             0.991818             -1.559872
| 19>   H                      6.518807             0.152621             -1.956444
| 20>   H                      6.572234             2.347307             -3.163301
| 21>   H                      7.039332             2.945016             -1.502398
| 22>   H                      8.056236             1.852572             -2.339109
| 23> *
| 24>
| 25> #Run DFT-D3 single point of the molecule with dimer basis set
| 26> $new_job
| 27> %base "14-185_DFT_A"
| 28> ! wB97X-D3 def2-TZVP TIGHTSCF CHELPG PMODEL
| 29>
| 30> %scf
| 31> MaxIter 1000
| 32> end
| 33>
| 34> * xyz 0 1
| 35>   C                      3.680498             2.335612             0.190636
| 36>   O                      4.893785             1.958004             0.847665
| 37>   H                      5.476696             1.627880             0.132417
| 38>   H                      3.773636             2.993821             -0.671878
| 39>   H                      3.025651             1.475557             -0.033071
| 40>   H                      3.056318             2.917527             0.823814
| 41>   C                    : 6.986506             2.047789             -2.200333
| 42>   O                    : 6.307595             0.991818             -1.559872
| 43>   H                    : 6.518807             0.152621             -1.956444
| 44>   H                    : 6.572234             2.347307             -3.163301
| 45>   H                    : 7.039332             2.945016             -1.502398
| 46>   H                    : 8.056236             1.852572             -2.339109
| 47> *
| 48>
| 49> #Run DFT-D3 single point of the particle with dimer basis set
| 50> $new_job
| 51> %base "14-185_DFT_B"
| 52> ! wB97X-D3 def2-TZVP TIGHTSCF CHELPG PMODEL
| 53>
| 54> %scf
| 55> MaxIter 1000
| 56> end
| 57>
| 58> * xyz 0 1
| 59>   C                    : 3.680498             2.335612             0.190636
| 60>   O                    : 4.893785             1.958004             0.847665
| 61>   H                    : 5.476696             1.627880             0.132417
| 62>   H                    : 3.773636             2.993821             -0.671878
| 63>   H                    : 3.025651             1.475557             -0.033071
| 64>   H                    : 3.056318             2.917527             0.823814
| 65>   C                      6.986506             2.047789             -2.200333
| 66>   O                      6.307595             0.991818             -1.559872
| 67>   H                      6.518807             0.152621             -1.956444
| 68>   H                      6.572234             2.347307             -3.163301
| 69>   H                      7.039332             2.945016             -1.502398
| 70>   H                      8.056236             1.852572             -2.339109
| 71> *
| 72>
| 73>                          ****END OF INPUT****
 Total Charge           Charge          ....    0
 Multiplicity           Mult            ....    1
 Number of Electrons    NEL             ....   36
Dispersion correction           -0.001951463
FINAL SINGLE POINT ENERGY      -231.475868428167
Dispersion correction           -0.000263365
FINAL SINGLE POINT ENERGY      -115.732806033335

CARTESIAN COORDINATES (ANGSTROEM)
---------------------------------
  C      3.680498    2.335612    0.190636
  O      4.893785    1.958004    0.847665
  H      5.476696    1.627880    0.132417
  H      3.773636    2.993821   -0.671878
  H      3.025651    1.475557   -0.033071
  H      3.056318    2.917527    0.823814
  C      6.986506    2.047789   -2.200333
  O      6.307595    0.991818   -1.559872
  H      6.518807    0.152621   -1.956444
  H      6.572234    2.347307   -3.163301
  H      7.039332    2.945016   -1.502398
  H      8.056236    1.852572   -2.339109

 Multiplicity           Mult            ....    1
 Number of Electrons    NEL             ....   18
 Basis Dimension        Dim             ....  172

ORBITAL ENERGIES
----------------

  NO   OCC          E(Eh)            E(eV)
   0   2.0000     -19.231885      -523.3262
   1   2.0000     -10.317834      -280.7625
   2   2.0000      -1.138576       -30.9822
   3   2.0000      -0.796118       -21.6635
   4   2.0000      -0.615902       -16.7596
   5   2.0000      -0.544996       -14.8301
   6   2.0000      -0.520824       -14.1723
   7   2.0000      -0.425249       -11.5716
   8   2.0000      -0.377779       -10.2799
   9   0.0000       0.099334         2.7030
  10   0.0000       0.127600         3.4722
  11   0.0000       0.148415         4.0386
  12   0.0000       0.182324         4.9613
  13   0.0000       0.203770         5.5449

MULLIKEN ATOMIC CHARGES
-----------------------
   0 C :    0.000344
   1 O :    0.000735
   2 H :   -0.008287
   3 H :   -0.000700
   4 H :   -0.000956
   5 H :   -0.000222
   6 C :   -0.155952
   7 O :   -0.468323
   8 H :    0.312016
   9 H :    0.100590
  10 H :    0.117027
  11 H :    0.103728
Sum of atomic charges:    0.0000000

LOEWDIN ATOMIC CHARGES
----------------------
   0 C :   -0.005501
   1 O :   -0.003268
   2 H :   -0.034214
   3 H :   -0.000569
   4 H :   -0.000403
   5 H :   -0.000078
   6 C :   -0.391746
   7 O :   -0.033592
   8 H :    0.162814
   9 H :    0.092657
  10 H :    0.118575
  11 H :    0.095326

  Mayer bond orders larger than 0.1
B(  6-C ,  7-O ) :   0.9956 B(  6-C ,  9-H ) :   0.9693 B(  6-C , 10-H ) :   0.9760
B(  6-C , 11-H ) :   0.9742 B(  7-O ,  8-H ) :   0.8966

Dispersion correction           -0.000263327
FINAL SINGLE POINT ENERGY      -115.734437866790

DIPOLE MOMENT
-------------
                                X             Y             Z
Electronic contribution:     -1.02602      -1.37235       0.81511
Nuclear contribution   :      1.46430       1.23836      -1.32642
                        -----------------------------------------
Total Dipole Moment    :      0.43827      -0.13399      -0.51131
                        -----------------------------------------
Magnitude (a.u.)       :      0.68664
Magnitude (Debye)      :      1.74530

Rotational constants in cm-1:     4.348365     0.819534     0.795754
Rotational constants in MHz : 130360.689642 24569.011563 23856.110206

                             ****ORCA TERMINATED NORMALLY****
TOTAL RUN TIME: 0 days 0 hours 1 minutes 10 seconds 408 msec
