                         Program Version 4.1.2  - RELEASE  -
|  1> #Run DFT-D3 single point of the dimer
|  2> ! wB97X-D3 def2-TZVP TIGHTSCF CHELPG PMODEL PAL8
|  3>
|  4> %base "21-69_DFT_AB"
|  5>
|  6> %scf
|  7> MaxIter 1000
|  8> end
|  9>
| 10> * xyz 0 1
| 11>   C                      3.842016             6.695679             2.250202
| 12>   O                      2.873278             7.246164             1.343030
| 13>   H                      3.031708             6.919436             0.425400
| 14>   H                      3.817862             5.565453             2.173094
| 15>   H                      4.822762             6.953849             1.878522
| 16>   H                      3.663193             7.138407             3.241986
| 17>   C                      1.420045             7.380939             7.427169
| 18>   O                      0.939324             8.125929             8.537015
| 19>   H                      0.306786             7.546973             8.938717
| 20>   H                      1.921516             8.051383             6.629556
| 21>   H                      2.251655             6.753293             7.666494
| 22>   H                      0.698540             6.672245             6.938021
| 23> *
| 24>
| 25> #Run DFT-D3 single point of the molecule with dimer basis set
| 26> $new_job
| 27> %base "21-69_DFT_A"
| 28> ! wB97X-D3 def2-TZVP TIGHTSCF CHELPG PMODEL
| 29>
| 30> %scf
| 31> MaxIter 1000
| 32> end
| 33>
| 34> * xyz 0 1
| 35>   C                      3.842016             6.695679             2.250202
| 36>   O                      2.873278             7.246164             1.343030
| 37>   H                      3.031708             6.919436             0.425400
| 38>   H                      3.817862             5.565453             2.173094
| 39>   H                      4.822762             6.953849             1.878522
| 40>   H                      3.663193             7.138407             3.241986
| 41>   C                    : 1.420045             7.380939             7.427169
| 42>   O                    : 0.939324             8.125929             8.537015
| 43>   H                    : 0.306786             7.546973             8.938717
| 44>   H                    : 1.921516             8.051383             6.629556
| 45>   H                    : 2.251655             6.753293             7.666494
| 46>   H                    : 0.698540             6.672245             6.938021
| 47> *
| 48>
| 49> #Run DFT-D3 single point of the particle with dimer basis set
| 50> $new_job
| 51> %base "21-69_DFT_B"
| 52> ! wB97X-D3 def2-TZVP TIGHTSCF CHELPG PMODEL
| 53>
| 54> %scf
| 55> MaxIter 1000
| 56> end
| 57>
| 58> * xyz 0 1
| 59>   C                    : 3.842016             6.695679             2.250202
| 60>   O                    : 2.873278             7.246164             1.343030
| 61>   H                    : 3.031708             6.919436             0.425400
| 62>   H                    : 3.817862             5.565453             2.173094
| 63>   H                    : 4.822762             6.953849             1.878522
| 64>   H                    : 3.663193             7.138407             3.241986
| 65>   C                      1.420045             7.380939             7.427169
| 66>   O                      0.939324             8.125929             8.537015
| 67>   H                      0.306786             7.546973             8.938717
| 68>   H                      1.921516             8.051383             6.629556
| 69>   H                      2.251655             6.753293             7.666494
| 70>   H                      0.698540             6.672245             6.938021
| 71> *
| 72>
| 73>                          ****END OF INPUT****
 Total Charge           Charge          ....    0
 Multiplicity           Mult            ....    1
 Number of Electrons    NEL             ....   36
Dispersion correction           -0.000643029
FINAL SINGLE POINT ENERGY      -231.460883120105
Dispersion correction           -0.000238932
FINAL SINGLE POINT ENERGY      -115.731946379013

CARTESIAN COORDINATES (ANGSTROEM)
---------------------------------
  C      3.842016    6.695679    2.250202
  O      2.873278    7.246164    1.343030
  H      3.031708    6.919436    0.425400
  H      3.817862    5.565453    2.173094
  H      4.822762    6.953849    1.878522
  H      3.663193    7.138407    3.241986
  C      1.420045    7.380939    7.427169
  O      0.939324    8.125929    8.537015
  H      0.306786    7.546973    8.938717
  H      1.921516    8.051383    6.629556
  H      2.251655    6.753293    7.666494
  H      0.698540    6.672245    6.938021

 Multiplicity           Mult            ....    1
 Number of Electrons    NEL             ....   18
 Basis Dimension        Dim             ....  172

ORBITAL ENERGIES
----------------

  NO   OCC          E(Eh)            E(eV)
   0   2.0000     -19.236014      -523.4386
   1   2.0000     -10.320765      -280.8423
   2   2.0000      -1.142545       -31.0902
   3   2.0000      -0.793502       -21.5923
   4   2.0000      -0.615036       -16.7360
   5   2.0000      -0.535469       -14.5709
   6   2.0000      -0.520796       -14.1716
   7   2.0000      -0.442219       -12.0334
   8   2.0000      -0.373900       -10.1743
   9   0.0000       0.084379         2.2961
  10   0.0000       0.114881         3.1261
  11   0.0000       0.136062         3.7024
  12   0.0000       0.169754         4.6192
  13   0.0000       0.185718         5.0536

MULLIKEN ATOMIC CHARGES
-----------------------
   0 C :    0.000014
   1 O :    0.000001
   2 H :    0.000000
   3 H :   -0.000000
   4 H :   -0.000001
   5 H :   -0.000083
   6 C :   -0.190778
   7 O :   -0.456415
   8 H :    0.314241
   9 H :    0.116501
  10 H :    0.109819
  11 H :    0.106701
Sum of atomic charges:    0.0000000

LOEWDIN ATOMIC CHARGES
----------------------
   0 C :   -0.000016
   1 O :   -0.000001
   2 H :   -0.000000
   3 H :   -0.000000
   4 H :   -0.000000
   5 H :   -0.000087
   6 C :   -0.400918
   7 O :   -0.069803
   8 H :    0.164035
   9 H :    0.118489
  10 H :    0.087813
  11 H :    0.100487

  Mayer bond orders larger than 0.1
B(  6-C ,  7-O ) :   1.0089 B(  6-C ,  9-H ) :   0.9750 B(  6-C , 10-H ) :   0.9708
B(  6-C , 11-H ) :   0.9747 B(  7-O ,  8-H ) :   0.9030

Dispersion correction           -0.000263731
FINAL SINGLE POINT ENERGY      -115.728830129593

DIPOLE MOMENT
-------------
                                X             Y             Z
Electronic contribution:     -0.68394       1.12965       1.53288
Nuclear contribution   :      0.48600      -1.80014      -1.69097
                        -----------------------------------------
Total Dipole Moment    :     -0.19794      -0.67049      -0.15809
                        -----------------------------------------
Magnitude (a.u.)       :      0.71675
Magnitude (Debye)      :      1.82183

Rotational constants in cm-1:     4.309715     0.819599     0.775626
Rotational constants in MHz : 129202.017342 24570.969900 23252.688739

                             ****ORCA TERMINATED NORMALLY****
TOTAL RUN TIME: 0 days 0 hours 0 minutes 57 seconds 322 msec
