                         Program Version 4.1.2  - RELEASE  -
|  1> #Run DFT-D3 single point of the dimer
|  2> ! wB97X-D3 def2-TZVP TIGHTSCF CHELPG PMODEL PAL8
|  3>
|  4> %base "22-51_DFT_AB"
|  5>
|  6> %scf
|  7> MaxIter 1000
|  8> end
|  9>
| 10> * xyz 0 1
| 11>   C                      5.509219             -5.286384            -2.629828
| 12>   O                      6.356411             -4.322206            -3.312786
| 13>   H                      5.806492             -3.659072            -3.753185
| 14>   H                      4.710320             -5.785805            -3.279945
| 15>   H                      6.199272             -6.152955            -2.356879
| 16>   H                      4.910016             -4.863904            -1.771712
| 17>   C                      4.649273             -8.771702            -1.809642
| 18>   O                      5.599852             -9.432618            -1.090244
| 19>   H                      6.419929             -9.530828            -1.622168
| 20>   H                      3.634172             -9.134948            -1.499055
| 21>   H                      4.546664             -7.648826            -1.646771
| 22>   H                      4.814372             -8.933160            -2.873571
| 23> *
| 24>
| 25> #Run DFT-D3 single point of the molecule with dimer basis set
| 26> $new_job
| 27> %base "22-51_DFT_A"
| 28> ! wB97X-D3 def2-TZVP TIGHTSCF CHELPG PMODEL
| 29>
| 30> %scf
| 31> MaxIter 1000
| 32> end
| 33>
| 34> * xyz 0 1
| 35>   C                      5.509219             -5.286384            -2.629828
| 36>   O                      6.356411             -4.322206            -3.312786
| 37>   H                      5.806492             -3.659072            -3.753185
| 38>   H                      4.710320             -5.785805            -3.279945
| 39>   H                      6.199272             -6.152955            -2.356879
| 40>   H                      4.910016             -4.863904            -1.771712
| 41>   C                    : 4.649273             -8.771702            -1.809642
| 42>   O                    : 5.599852             -9.432618            -1.090244
| 43>   H                    : 6.419929             -9.530828            -1.622168
| 44>   H                    : 3.634172             -9.134948            -1.499055
| 45>   H                    : 4.546664             -7.648826            -1.646771
| 46>   H                    : 4.814372             -8.933160            -2.873571
| 47> *
| 48>
| 49> #Run DFT-D3 single point of the particle with dimer basis set
| 50> $new_job
| 51> %base "22-51_DFT_B"
| 52> ! wB97X-D3 def2-TZVP TIGHTSCF CHELPG PMODEL
| 53>
| 54> %scf
| 55> MaxIter 1000
| 56> end
| 57>
| 58> * xyz 0 1
| 59>   C                    : 5.509219             -5.286384            -2.629828
| 60>   O                    : 6.356411             -4.322206            -3.312786
| 61>   H                    : 5.806492             -3.659072            -3.753185
| 62>   H                    : 4.710320             -5.785805            -3.279945
| 63>   H                    : 6.199272             -6.152955            -2.356879
| 64>   H                    : 4.910016             -4.863904            -1.771712
| 65>   C                      4.649273             -8.771702            -1.809642
| 66>   O                      5.599852             -9.432618            -1.090244
| 67>   H                      6.419929             -9.530828            -1.622168
| 68>   H                      3.634172             -9.134948            -1.499055
| 69>   H                      4.546664             -7.648826            -1.646771
| 70>   H                      4.814372             -8.933160            -2.873571
| 71> *
| 72>
| 73>                          ****END OF INPUT****
 Total Charge           Charge          ....    0
 Multiplicity           Mult            ....    1
 Number of Electrons    NEL             ....   36
Dispersion correction           -0.001651002
FINAL SINGLE POINT ENERGY      -231.461417865455
Dispersion correction           -0.000300120
FINAL SINGLE POINT ENERGY      -115.730031883312

CARTESIAN COORDINATES (ANGSTROEM)
---------------------------------
  C      5.509219   -5.286384   -2.629828
  O      6.356411   -4.322206   -3.312786
  H      5.806492   -3.659072   -3.753185
  H      4.710320   -5.785805   -3.279945
  H      6.199272   -6.152955   -2.356879
  H      4.910016   -4.863904   -1.771712
  C      4.649273   -8.771702   -1.809642
  O      5.599852   -9.432618   -1.090244
  H      6.419929   -9.530828   -1.622168
  H      3.634172   -9.134948   -1.499055
  H      4.546664   -7.648826   -1.646771
  H      4.814372   -8.933160   -2.873571

 Multiplicity           Mult            ....    1
 Number of Electrons    NEL             ....   18
 Basis Dimension        Dim             ....  172

ORBITAL ENERGIES
----------------

  NO   OCC          E(Eh)            E(eV)
   0   2.0000     -19.234562      -523.3990
   1   2.0000     -10.316108      -280.7156
   2   2.0000      -1.150120       -31.2964
   3   2.0000      -0.788090       -21.4450
   4   2.0000      -0.621987       -16.9251
   5   2.0000      -0.544052       -14.8044
   6   2.0000      -0.528967       -14.3939
   7   2.0000      -0.428588       -11.6625
   8   2.0000      -0.367462        -9.9991
   9   0.0000       0.082210         2.2371
  10   0.0000       0.111134         3.0241
  11   0.0000       0.149368         4.0645
  12   0.0000       0.175988         4.7889
  13   0.0000       0.187652         5.1063

MULLIKEN ATOMIC CHARGES
-----------------------
   0 C :   -0.002891
   1 O :    0.000136
   2 H :    0.000001
   3 H :   -0.001557
   4 H :    0.005014
   5 H :   -0.000845
   6 C :   -0.159044
   7 O :   -0.460884
   8 H :    0.321923
   9 H :    0.106832
  10 H :    0.088648
  11 H :    0.102665
Sum of atomic charges:    0.0000000

LOEWDIN ATOMIC CHARGES
----------------------
   0 C :   -0.013835
   1 O :   -0.000037
   2 H :   -0.000029
   3 H :   -0.003240
   4 H :   -0.003676
   5 H :   -0.001206
   6 C :   -0.431983
   7 O :   -0.044974
   8 H :    0.187966
   9 H :    0.109006
  10 H :    0.107448
  11 H :    0.094562

  Mayer bond orders larger than 0.1
B(  6-C ,  7-O ) :   1.0223 B(  6-C ,  9-H ) :   0.9733 B(  6-C , 10-H ) :   0.9689
B(  6-C , 11-H ) :   0.9889 B(  7-O ,  8-H ) :   0.8910

Dispersion correction           -0.000247010
FINAL SINGLE POINT ENERGY      -115.731019438105

DIPOLE MOMENT
-------------
                                X             Y             Z
Electronic contribution:      1.29908      -0.96309       1.06354
Nuclear contribution   :     -1.10362       1.10159      -1.67298
                        -----------------------------------------
Total Dipole Moment    :      0.19547       0.13849      -0.60944
                        -----------------------------------------
Magnitude (a.u.)       :      0.65483
Magnitude (Debye)      :      1.66445

Rotational constants in cm-1:     4.239964     0.870730     0.831386
Rotational constants in MHz : 127110.922061 26103.840231 24924.322276

                             ****ORCA TERMINATED NORMALLY****
TOTAL RUN TIME: 0 days 0 hours 0 minutes 59 seconds 161 msec
