                         Program Version 4.1.2  - RELEASE  -
|  1> #Run DFT-D3 single point of the dimer
|  2> ! wB97X-D3 def2-TZVP TIGHTSCF CHELPG PMODEL PAL8
|  3>
|  4> %base "8-41_DFT_AB"
|  5>
|  6> %scf
|  7> MaxIter 1000
|  8> end
|  9>
| 10> * xyz 0 1
| 11>   C                      -5.732268            -10.125279           -1.351968
| 12>   O                      -6.836174            -9.413016            -0.708576
| 13>   H                      -7.613012            -9.982425            -0.455737
| 14>   H                      -4.905482            -9.401689            -1.548393
| 15>   H                      -5.473831            -11.022509           -0.746062
| 16>   H                      -6.049753            -10.514197           -2.342592
| 17>   C                      -2.777689            -7.211392            -3.956291
| 18>   O                      -3.585356            -6.113868            -4.081193
| 19>   H                      -4.096781            -6.082679            -3.274285
| 20>   H                      -2.257111            -7.294132            -2.998504
| 21>   H                      -3.385381            -8.071290            -4.182716
| 22>   H                      -2.046691            -7.163911            -4.738484
| 23> *
| 24>
| 25> #Run DFT-D3 single point of the molecule with dimer basis set
| 26> $new_job
| 27> %base "8-41_DFT_A"
| 28> ! wB97X-D3 def2-TZVP TIGHTSCF CHELPG PMODEL
| 29>
| 30> %scf
| 31> MaxIter 1000
| 32> end
| 33>
| 34> * xyz 0 1
| 35>   C                      -5.732268            -10.125279           -1.351968
| 36>   O                      -6.836174            -9.413016            -0.708576
| 37>   H                      -7.613012            -9.982425            -0.455737
| 38>   H                      -4.905482            -9.401689            -1.548393
| 39>   H                      -5.473831            -11.022509           -0.746062
| 40>   H                      -6.049753            -10.514197           -2.342592
| 41>   C                    : -2.777689            -7.211392            -3.956291
| 42>   O                    : -3.585356            -6.113868            -4.081193
| 43>   H                    : -4.096781            -6.082679            -3.274285
| 44>   H                    : -2.257111            -7.294132            -2.998504
| 45>   H                    : -3.385381            -8.071290            -4.182716
| 46>   H                    : -2.046691            -7.163911            -4.738484
| 47> *
| 48>
| 49> #Run DFT-D3 single point of the particle with dimer basis set
| 50> $new_job
| 51> %base "8-41_DFT_B"
| 52> ! wB97X-D3 def2-TZVP TIGHTSCF CHELPG PMODEL
| 53>
| 54> %scf
| 55> MaxIter 1000
| 56> end
| 57>
| 58> * xyz 0 1
| 59>   C                    : -5.732268            -10.125279           -1.351968
| 60>   O                    : -6.836174            -9.413016            -0.708576
| 61>   H                    : -7.613012            -9.982425            -0.455737
| 62>   H                    : -4.905482            -9.401689            -1.548393
| 63>   H                    : -5.473831            -11.022509           -0.746062
| 64>   H                    : -6.049753            -10.514197           -2.342592
| 65>   C                      -2.777689            -7.211392            -3.956291
| 66>   O                      -3.585356            -6.113868            -4.081193
| 67>   H                      -4.096781            -6.082679            -3.274285
| 68>   H                      -2.257111            -7.294132            -2.998504
| 69>   H                      -3.385381            -8.071290            -4.182716
| 70>   H                      -2.046691            -7.163911            -4.738484
| 71> *
| 72>
| 73>                          ****END OF INPUT****
 Total Charge           Charge          ....    0
 Multiplicity           Mult            ....    1
 Number of Electrons    NEL             ....   36
Dispersion correction           -0.000912875
FINAL SINGLE POINT ENERGY      -231.464060310400
Dispersion correction           -0.000279408
FINAL SINGLE POINT ENERGY      -115.730324671895

CARTESIAN COORDINATES (ANGSTROEM)
---------------------------------
  C     -5.732268  -10.125279   -1.351968
  O     -6.836174   -9.413016   -0.708576
  H     -7.613012   -9.982425   -0.455737
  H     -4.905482   -9.401689   -1.548393
  H     -5.473831  -11.022509   -0.746062
  H     -6.049753  -10.514197   -2.342592
  C     -2.777689   -7.211392   -3.956291
  O     -3.585356   -6.113868   -4.081193
  H     -4.096781   -6.082679   -3.274285
  H     -2.257111   -7.294132   -2.998504
  H     -3.385381   -8.071290   -4.182716
  H     -2.046691   -7.163911   -4.738484

 Multiplicity           Mult            ....    1
 Number of Electrons    NEL             ....   18
 Basis Dimension        Dim             ....  172

ORBITAL ENERGIES
----------------

  NO   OCC          E(Eh)            E(eV)
   0   2.0000     -19.227649      -523.2109
   1   2.0000     -10.303262      -280.3660
   2   2.0000      -1.153070       -31.3766
   3   2.0000      -0.794897       -21.6303
   4   2.0000      -0.617206       -16.7950
   5   2.0000      -0.553935       -15.0733
   6   2.0000      -0.532672       -14.4947
   7   2.0000      -0.433173       -11.7872
   8   2.0000      -0.370266       -10.0755
   9   0.0000       0.078733         2.1424
  10   0.0000       0.114364         3.1120
  11   0.0000       0.152601         4.1525
  12   0.0000       0.172764         4.7011
  13   0.0000       0.186027         5.0620

MULLIKEN ATOMIC CHARGES
-----------------------
   0 C :   -0.000184
   1 O :   -0.000008
   2 H :   -0.000001
   3 H :    0.000392
   4 H :    0.000020
   5 H :   -0.000087
   6 C :   -0.158133
   7 O :   -0.461714
   8 H :    0.313133
   9 H :    0.097702
  10 H :    0.097458
  11 H :    0.111419
Sum of atomic charges:   -0.0000000

LOEWDIN ATOMIC CHARGES
----------------------
   0 C :   -0.000233
   1 O :   -0.000003
   2 H :   -0.000001
   3 H :   -0.000296
   4 H :   -0.000001
   5 H :   -0.000043
   6 C :   -0.417794
   7 O :   -0.042030
   8 H :    0.170574
   9 H :    0.094215
  10 H :    0.092142
  11 H :    0.103469

  Mayer bond orders larger than 0.1
B(  6-C ,  7-O ) :   1.0051 B(  6-C ,  9-H ) :   0.9752 B(  6-C , 10-H ) :   0.9853
B(  6-C , 11-H ) :   0.9755 B(  7-O ,  8-H ) :   0.9019

Dispersion correction           -0.000203514
FINAL SINGLE POINT ENERGY      -115.733024766711

DIPOLE MOMENT
-------------
                                X             Y             Z
Electronic contribution:     -0.96883       1.47907      -0.20732
Nuclear contribution   :      0.95397      -1.85695       0.75046
                        -----------------------------------------
Total Dipole Moment    :     -0.01486      -0.37788       0.54314
                        -----------------------------------------
Magnitude (a.u.)       :      0.66183
Magnitude (Debye)      :      1.68224

Rotational constants in cm-1:     4.324418     0.888005     0.856527
Rotational constants in MHz : 129642.792566 26621.712508 25678.028444

                             ****ORCA TERMINATED NORMALLY****
TOTAL RUN TIME: 0 days 0 hours 0 minutes 41 seconds 991 msec
