                         Program Version 4.1.2  - RELEASE  -
|  1> #Run DFT-D3 single point of the dimer
|  2> ! wB97X-D3 def2-TZVP TIGHTSCF CHELPG PMODEL PAL8
|  3>
|  4> %base "14-133_DFT_AB"
|  5>
|  6> %scf
|  7> MaxIter 1000
|  8> end
|  9>
| 10> * xyz 0 1
| 11>   C                      6.240257             -3.486396            0.328244
| 12>   O                      7.407682             -3.671008            -0.383972
| 13>   H                      7.952128             -4.335552            -0.003175
| 14>   H                      6.224370             -4.059562            1.284200
| 15>   H                      6.097100             -2.413471            0.559097
| 16>   H                      5.374843             -3.919506            -0.240133
| 17>   C                      8.923813             -0.098767            0.102245
| 18>   O                      9.582362             -1.326979            0.347016
| 19>   H                      9.023009             -2.103097            0.072596
| 20>   H                      8.093396             -0.021769            0.727830
| 21>   H                      9.461664             0.800306             0.080617
| 22>   H                      8.508285             -0.104171            -0.930753
| 23> *
| 24>
| 25> #Run DFT-D3 single point of the molecule with dimer basis set
| 26> $new_job
| 27> %base "14-133_DFT_A"
| 28> ! wB97X-D3 def2-TZVP TIGHTSCF CHELPG PMODEL
| 29>
| 30> %scf
| 31> MaxIter 1000
| 32> end
| 33>
| 34> * xyz 0 1
| 35>   C                      6.240257             -3.486396            0.328244
| 36>   O                      7.407682             -3.671008            -0.383972
| 37>   H                      7.952128             -4.335552            -0.003175
| 38>   H                      6.224370             -4.059562            1.284200
| 39>   H                      6.097100             -2.413471            0.559097
| 40>   H                      5.374843             -3.919506            -0.240133
| 41>   C                    : 8.923813             -0.098767            0.102245
| 42>   O                    : 9.582362             -1.326979            0.347016
| 43>   H                    : 9.023009             -2.103097            0.072596
| 44>   H                    : 8.093396             -0.021769            0.727830
| 45>   H                    : 9.461664             0.800306             0.080617
| 46>   H                    : 8.508285             -0.104171            -0.930753
| 47> *
| 48>
| 49> #Run DFT-D3 single point of the particle with dimer basis set
| 50> $new_job
| 51> %base "14-133_DFT_B"
| 52> ! wB97X-D3 def2-TZVP TIGHTSCF CHELPG PMODEL
| 53>
| 54> %scf
| 55> MaxIter 1000
| 56> end
| 57>
| 58> * xyz 0 1
| 59>   C                    : 6.240257             -3.486396            0.328244
| 60>   O                    : 7.407682             -3.671008            -0.383972
| 61>   H                    : 7.952128             -4.335552            -0.003175
| 62>   H                    : 6.224370             -4.059562            1.284200
| 63>   H                    : 6.097100             -2.413471            0.559097
| 64>   H                    : 5.374843             -3.919506            -0.240133
| 65>   C                      8.923813             -0.098767            0.102245
| 66>   O                      9.582362             -1.326979            0.347016
| 67>   H                      9.023009             -2.103097            0.072596
| 68>   H                      8.093396             -0.021769            0.727830
| 69>   H                      9.461664             0.800306             0.080617
| 70>   H                      8.508285             -0.104171            -0.930753
| 71> *
| 72>
| 73>                          ****END OF INPUT****
 Total Charge           Charge          ....    0
 Multiplicity           Mult            ....    1
 Number of Electrons    NEL             ....   36
Dispersion correction           -0.001771743
FINAL SINGLE POINT ENERGY      -231.465764625182
Dispersion correction           -0.000246373
FINAL SINGLE POINT ENERGY      -115.733788100291

CARTESIAN COORDINATES (ANGSTROEM)
---------------------------------
  C      6.240257   -3.486396    0.328244
  O      7.407682   -3.671008   -0.383972
  H      7.952128   -4.335552   -0.003175
  H      6.224370   -4.059562    1.284200
  H      6.097100   -2.413471    0.559097
  H      5.374843   -3.919506   -0.240133
  C      8.923813   -0.098767    0.102245
  O      9.582362   -1.326979    0.347016
  H      9.023009   -2.103097    0.072596
  H      8.093396   -0.021769    0.727830
  H      9.461664    0.800306    0.080617
  H      8.508285   -0.104171   -0.930753

 Multiplicity           Mult            ....    1
 Number of Electrons    NEL             ....   18
 Basis Dimension        Dim             ....  172

ORBITAL ENERGIES
----------------

  NO   OCC          E(Eh)            E(eV)
   0   2.0000     -19.231132      -523.3057
   1   2.0000     -10.305073      -280.4153
   2   2.0000      -1.126660       -30.6580
   3   2.0000      -0.802397       -21.8343
   4   2.0000      -0.607669       -16.5355
   5   2.0000      -0.552682       -15.0392
   6   2.0000      -0.528980       -14.3943
   7   2.0000      -0.423632       -11.5276
   8   2.0000      -0.370681       -10.0867
   9   0.0000       0.068171         1.8550
  10   0.0000       0.130310         3.5459
  11   0.0000       0.139706         3.8016
  12   0.0000       0.176860         4.8126
  13   0.0000       0.189167         5.1475

MULLIKEN ATOMIC CHARGES
-----------------------
   0 C :   -0.003668
   1 O :   -0.000038
   2 H :   -0.000158
   3 H :    0.000314
   4 H :    0.000415
   5 H :   -0.000077
   6 C :   -0.162304
   7 O :   -0.487006
   8 H :    0.320939
   9 H :    0.108804
  10 H :    0.130256
  11 H :    0.092522
Sum of atomic charges:    0.0000000

LOEWDIN ATOMIC CHARGES
----------------------
   0 C :   -0.002915
   1 O :   -0.007463
   2 H :   -0.001563
   3 H :   -0.000034
   4 H :   -0.000567
   5 H :   -0.000079
   6 C :   -0.376543
   7 O :   -0.091435
   8 H :    0.194851
   9 H :    0.085355
  10 H :    0.099491
  11 H :    0.100902

  Mayer bond orders larger than 0.1
B(  6-C ,  7-O ) :   0.9846 B(  6-C ,  9-H ) :   0.9814 B(  6-C , 10-H ) :   0.9690
B(  6-C , 11-H ) :   0.9872 B(  7-O ,  8-H ) :   0.8949

Dispersion correction           -0.000237773
FINAL SINGLE POINT ENERGY      -115.725300668815

DIPOLE MOMENT
-------------
                                X             Y             Z
Electronic contribution:      1.10353      -1.41207       0.54811
Nuclear contribution   :     -1.72818       1.44505      -0.83280
                        -----------------------------------------
Total Dipole Moment    :     -0.62466       0.03298      -0.28469
                        -----------------------------------------
Magnitude (a.u.)       :      0.68727
Magnitude (Debye)      :      1.74689

Rotational constants in cm-1:     4.580920     0.820042     0.793814
Rotational constants in MHz : 137332.531799 24584.254103 23797.942454

                             ****ORCA TERMINATED NORMALLY****
TOTAL RUN TIME: 0 days 0 hours 1 minutes 10 seconds 58 msec
