                         Program Version 4.1.2  - RELEASE  -
|  1> #Run DFT-D3 single point of the dimer
|  2> ! wB97X-D3 def2-TZVP TIGHTSCF CHELPG PMODEL PAL8
|  3>
|  4> %base "6-178_DFT_AB"
|  5>
|  6> %scf
|  7> MaxIter 1000
|  8> end
|  9>
| 10> * xyz 0 1
| 11>   C                      4.559409             5.480311             -10.429348
| 12>   O                      3.368761             5.006911             -11.016255
| 13>   H                      3.428585             5.512965             -11.821000
| 14>   H                      4.592686             6.588327             -10.335327
| 15>   H                      4.714845             5.163775             -9.447146
| 16>   H                      5.508661             5.286577             -10.865454
| 17>   C                      2.745550             2.209771             -8.981260
| 18>   O                      2.536531             2.289061             -10.311913
| 19>   H                      3.122315             3.024075             -10.499644
| 20>   H                      3.719632             2.620464             -8.643676
| 21>   H                      1.945000             2.780048             -8.393566
| 22>   H                      2.748858             1.171264             -8.664282
| 23> *
| 24>
| 25> #Run DFT-D3 single point of the molecule with dimer basis set
| 26> $new_job
| 27> %base "6-178_DFT_A"
| 28> ! wB97X-D3 def2-TZVP TIGHTSCF CHELPG PMODEL
| 29>
| 30> %scf
| 31> MaxIter 1000
| 32> end
| 33>
| 34> * xyz 0 1
| 35>   C                      4.559409             5.480311             -10.429348
| 36>   O                      3.368761             5.006911             -11.016255
| 37>   H                      3.428585             5.512965             -11.821000
| 38>   H                      4.592686             6.588327             -10.335327
| 39>   H                      4.714845             5.163775             -9.447146
| 40>   H                      5.508661             5.286577             -10.865454
| 41>   C                    : 2.745550             2.209771             -8.981260
| 42>   O                    : 2.536531             2.289061             -10.311913
| 43>   H                    : 3.122315             3.024075             -10.499644
| 44>   H                    : 3.719632             2.620464             -8.643676
| 45>   H                    : 1.945000             2.780048             -8.393566
| 46>   H                    : 2.748858             1.171264             -8.664282
| 47> *
| 48>
| 49> #Run DFT-D3 single point of the particle with dimer basis set
| 50> $new_job
| 51> %base "6-178_DFT_B"
| 52> ! wB97X-D3 def2-TZVP TIGHTSCF CHELPG PMODEL
| 53>
| 54> %scf
| 55> MaxIter 1000
| 56> end
| 57>
| 58> * xyz 0 1
| 59>   C                    : 4.559409             5.480311             -10.429348
| 60>   O                    : 3.368761             5.006911             -11.016255
| 61>   H                    : 3.428585             5.512965             -11.821000
| 62>   H                    : 4.592686             6.588327             -10.335327
| 63>   H                    : 4.714845             5.163775             -9.447146
| 64>   H                    : 5.508661             5.286577             -10.865454
| 65>   C                      2.745550             2.209771             -8.981260
| 66>   O                      2.536531             2.289061             -10.311913
| 67>   H                      3.122315             3.024075             -10.499644
| 68>   H                      3.719632             2.620464             -8.643676
| 69>   H                      1.945000             2.780048             -8.393566
| 70>   H                      2.748858             1.171264             -8.664282
| 71> *
| 72>
| 73>                          ****END OF INPUT****
 Total Charge           Charge          ....    0
 Multiplicity           Mult            ....    1
 Number of Electrons    NEL             ....   36
Dispersion correction           -0.001868762
FINAL SINGLE POINT ENERGY      -231.458944913234
Dispersion correction           -0.000230779
FINAL SINGLE POINT ENERGY      -115.725439459698

CARTESIAN COORDINATES (ANGSTROEM)
---------------------------------
  C      4.559409    5.480311  -10.429348
  O      3.368761    5.006911  -11.016255
  H      3.428585    5.512965  -11.821000
  H      4.592686    6.588327  -10.335327
  H      4.714845    5.163775   -9.447146
  H      5.508661    5.286577  -10.865454
  C      2.745550    2.209771   -8.981260
  O      2.536531    2.289061  -10.311913
  H      3.122315    3.024075  -10.499644
  H      3.719632    2.620464   -8.643676
  H      1.945000    2.780048   -8.393566
  H      2.748858    1.171264   -8.664282

 Multiplicity           Mult            ....    1
 Number of Electrons    NEL             ....   18
 Basis Dimension        Dim             ....  172

ORBITAL ENERGIES
----------------

  NO   OCC          E(Eh)            E(eV)
   0   2.0000     -19.236018      -523.4386
   1   2.0000     -10.314383      -280.6686
   2   2.0000      -1.168852       -31.8061
   3   2.0000      -0.784548       -21.3486
   4   2.0000      -0.627221       -17.0676
   5   2.0000      -0.548550       -14.9268
   6   2.0000      -0.533525       -14.5179
   7   2.0000      -0.437615       -11.9081
   8   2.0000      -0.371006       -10.0956
   9   0.0000       0.066078         1.7981
  10   0.0000       0.133099         3.6218
  11   0.0000       0.146090         3.9753
  12   0.0000       0.169814         4.6209
  13   0.0000       0.190160         5.1745

MULLIKEN ATOMIC CHARGES
-----------------------
   0 C :   -0.002707
   1 O :   -0.003603
   2 H :   -0.000439
   3 H :   -0.000011
   4 H :    0.000097
   5 H :    0.000159
   6 C :   -0.169983
   7 O :   -0.427963
   8 H :    0.315668
   9 H :    0.092404
  10 H :    0.085626
  11 H :    0.110752
Sum of atomic charges:    0.0000000

LOEWDIN ATOMIC CHARGES
----------------------
   0 C :   -0.004497
   1 O :   -0.015263
   2 H :   -0.000771
   3 H :   -0.000078
   4 H :   -0.001158
   5 H :   -0.000073
   6 C :   -0.449835
   7 O :   -0.011555
   8 H :    0.186843
   9 H :    0.095649
  10 H :    0.099816
  11 H :    0.100922

  Mayer bond orders larger than 0.1
B(  6-C ,  7-O ) :   1.0131 B(  6-C ,  9-H ) :   0.9857 B(  6-C , 10-H ) :   0.9705
B(  6-C , 11-H ) :   0.9773 B(  7-O ,  8-H ) :   0.9089

Dispersion correction           -0.000209808
FINAL SINGLE POINT ENERGY      -115.727873324670

DIPOLE MOMENT
-------------
                                X             Y             Z
Electronic contribution:     -0.37992      -0.06746      -1.95010
Nuclear contribution   :      0.84387       0.47230       2.25716
                        -----------------------------------------
Total Dipole Moment    :      0.46395       0.40484       0.30707
                        -----------------------------------------
Magnitude (a.u.)       :      0.68807
Magnitude (Debye)      :      1.74893

Rotational constants in cm-1:     4.148802     0.898873     0.867314
Rotational constants in MHz : 124377.967855 26947.525746 26001.415573

                             ****ORCA TERMINATED NORMALLY****
TOTAL RUN TIME: 0 days 0 hours 1 minutes 9 seconds 548 msec
