                         Program Version 4.1.2  - RELEASE  -
|  1> #Run DFT-D3 single point of the dimer
|  2> ! wB97X-D3 def2-TZVP TIGHTSCF CHELPG PMODEL PAL8
|  3>
|  4> %base "12-167_DFT_AB"
|  5>
|  6> %scf
|  7> MaxIter 1000
|  8> end
|  9>
| 10> * xyz 0 1
| 11>   C                      -10.925620           11.028684            5.607531
| 12>   O                      -9.934726            10.286416            6.302170
| 13>   H                      -10.283144           9.986644             7.197027
| 14>   H                      -10.519624           11.692370            4.792547
| 15>   H                      -11.713673           10.380244            5.160018
| 16>   H                      -11.410883           11.691452            6.391193
| 17>   C                      -9.041128            7.108343             4.678222
| 18>   O                      -8.063156            7.959100             5.297418
| 19>   H                      -8.602774            8.629575             5.673982
| 20>   H                      -8.511217            6.497852             4.034014
| 21>   H                      -9.565376            6.519665             5.399782
| 22>   H                      -9.755183            7.740047             4.094476
| 23> *
| 24>
| 25> #Run DFT-D3 single point of the molecule with dimer basis set
| 26> $new_job
| 27> %base "12-167_DFT_A"
| 28> ! wB97X-D3 def2-TZVP TIGHTSCF CHELPG PMODEL
| 29>
| 30> %scf
| 31> MaxIter 1000
| 32> end
| 33>
| 34> * xyz 0 1
| 35>   C                      -10.925620           11.028684            5.607531
| 36>   O                      -9.934726            10.286416            6.302170
| 37>   H                      -10.283144           9.986644             7.197027
| 38>   H                      -10.519624           11.692370            4.792547
| 39>   H                      -11.713673           10.380244            5.160018
| 40>   H                      -11.410883           11.691452            6.391193
| 41>   C                    : -9.041128            7.108343             4.678222
| 42>   O                    : -8.063156            7.959100             5.297418
| 43>   H                    : -8.602774            8.629575             5.673982
| 44>   H                    : -8.511217            6.497852             4.034014
| 45>   H                    : -9.565376            6.519665             5.399782
| 46>   H                    : -9.755183            7.740047             4.094476
| 47> *
| 48>
| 49> #Run DFT-D3 single point of the particle with dimer basis set
| 50> $new_job
| 51> %base "12-167_DFT_B"
| 52> ! wB97X-D3 def2-TZVP TIGHTSCF CHELPG PMODEL
| 53>
| 54> %scf
| 55> MaxIter 1000
| 56> end
| 57>
| 58> * xyz 0 1
| 59>   C                    : -10.925620           11.028684            5.607531
| 60>   O                    : -9.934726            10.286416            6.302170
| 61>   H                    : -10.283144           9.986644             7.197027
| 62>   H                    : -10.519624           11.692370            4.792547
| 63>   H                    : -11.713673           10.380244            5.160018
| 64>   H                    : -11.410883           11.691452            6.391193
| 65>   C                      -9.041128            7.108343             4.678222
| 66>   O                      -8.063156            7.959100             5.297418
| 67>   H                      -8.602774            8.629575             5.673982
| 68>   H                      -8.511217            6.497852             4.034014
| 69>   H                      -9.565376            6.519665             5.399782
| 70>   H                      -9.755183            7.740047             4.094476
| 71> *
| 72>
| 73>                          ****END OF INPUT****
 Total Charge           Charge          ....    0
 Multiplicity           Mult            ....    1
 Number of Electrons    NEL             ....   36
Dispersion correction           -0.001668225
FINAL SINGLE POINT ENERGY      -231.470174356059
Dispersion correction           -0.000257698
FINAL SINGLE POINT ENERGY      -115.730402456263

CARTESIAN COORDINATES (ANGSTROEM)
---------------------------------
  C    -10.925620   11.028684    5.607531
  O     -9.934726   10.286416    6.302170
  H    -10.283144    9.986644    7.197027
  H    -10.519624   11.692370    4.792547
  H    -11.713673   10.380244    5.160018
  H    -11.410883   11.691452    6.391193
  C     -9.041128    7.108343    4.678222
  O     -8.063156    7.959100    5.297418
  H     -8.602774    8.629575    5.673982
  H     -8.511217    6.497852    4.034014
  H     -9.565376    6.519665    5.399782
  H     -9.755183    7.740047    4.094476

 Multiplicity           Mult            ....    1
 Number of Electrons    NEL             ....   18
 Basis Dimension        Dim             ....  172

ORBITAL ENERGIES
----------------

  NO   OCC          E(Eh)            E(eV)
   0   2.0000     -19.227321      -523.2020
   1   2.0000     -10.308475      -280.5079
   2   2.0000      -1.136876       -30.9360
   3   2.0000      -0.800179       -21.7740
   4   2.0000      -0.607683       -16.5359
   5   2.0000      -0.545769       -14.8511
   6   2.0000      -0.526084       -14.3155
   7   2.0000      -0.445231       -12.1153
   8   2.0000      -0.375564       -10.2196
   9   0.0000       0.068130         1.8539
  10   0.0000       0.131555         3.5798
  11   0.0000       0.147286         4.0079
  12   0.0000       0.167353         4.5539
  13   0.0000       0.190667         5.1883

MULLIKEN ATOMIC CHARGES
-----------------------
   0 C :   -0.000679
   1 O :   -0.001603
   2 H :   -0.000446
   3 H :    0.000067
   4 H :   -0.000201
   5 H :   -0.000002
   6 C :   -0.160702
   7 O :   -0.466647
   8 H :    0.304204
   9 H :    0.122292
  10 H :    0.105297
  11 H :    0.098419
Sum of atomic charges:    0.0000000

LOEWDIN ATOMIC CHARGES
----------------------
   0 C :   -0.001362
   1 O :   -0.009673
   2 H :   -0.001164
   3 H :   -0.000034
   4 H :   -0.000187
   5 H :   -0.000030
   6 C :   -0.354275
   7 O :   -0.076903
   8 H :    0.156170
   9 H :    0.094177
  10 H :    0.091289
  11 H :    0.101992

  Mayer bond orders larger than 0.1
B(  6-C ,  7-O ) :   0.9884 B(  6-C ,  9-H ) :   0.9787 B(  6-C , 10-H ) :   0.9736
B(  6-C , 11-H ) :   0.9820 B(  7-O ,  8-H ) :   0.9211

Dispersion correction           -0.000213665
FINAL SINGLE POINT ENERGY      -115.732618323848

DIPOLE MOMENT
-------------
                                X             Y             Z
Electronic contribution:      1.32992       0.86662       0.72995
Nuclear contribution   :     -2.04660      -0.80607      -0.75454
                        -----------------------------------------
Total Dipole Moment    :     -0.71668       0.06055      -0.02459
                        -----------------------------------------
Magnitude (a.u.)       :      0.71965
Magnitude (Debye)      :      1.82921

Rotational constants in cm-1:     4.308918     0.828993     0.800769
Rotational constants in MHz : 129178.101323 24852.572048 24006.442596

                             ****ORCA TERMINATED NORMALLY****
TOTAL RUN TIME: 0 days 0 hours 1 minutes 16 seconds 320 msec
