                         Program Version 4.1.2  - RELEASE  -
|  1> #Run DFT-D3 single point of the dimer
|  2> ! wB97X-D3 def2-TZVP TIGHTSCF CHELPG PMODEL PAL8
|  3>
|  4> %base "9-41_DFT_AB"
|  5>
|  6> %scf
|  7> MaxIter 1000
|  8> end
|  9>
| 10> * xyz 0 1
| 11>   C                      9.668153             -8.802298            3.443174
| 12>   O                      9.283030             -9.279826            2.182614
| 13>   H                      8.535800             -9.932465            2.235001
| 14>   H                      10.301862            -9.574787            3.917111
| 15>   H                      10.289359            -7.879110            3.349851
| 16>   H                      8.819729             -8.629750            4.115209
| 17>   C                      10.347723            -9.588649            7.064256
| 18>   O                      11.185352            -9.710996            8.190778
| 19>   H                      12.087945            -9.882253            7.837127
| 20>   H                      10.589801            -10.185587           6.252994
| 21>   H                      9.303951             -9.795346            7.212084
| 22>   H                      10.456146            -8.569573            6.683795
| 23> *
| 24>
| 25> #Run DFT-D3 single point of the molecule with dimer basis set
| 26> $new_job
| 27> %base "9-41_DFT_A"
| 28> ! wB97X-D3 def2-TZVP TIGHTSCF CHELPG PMODEL
| 29>
| 30> %scf
| 31> MaxIter 1000
| 32> end
| 33>
| 34> * xyz 0 1
| 35>   C                      9.668153             -8.802298            3.443174
| 36>   O                      9.283030             -9.279826            2.182614
| 37>   H                      8.535800             -9.932465            2.235001
| 38>   H                      10.301862            -9.574787            3.917111
| 39>   H                      10.289359            -7.879110            3.349851
| 40>   H                      8.819729             -8.629750            4.115209
| 41>   C                    : 10.347723            -9.588649            7.064256
| 42>   O                    : 11.185352            -9.710996            8.190778
| 43>   H                    : 12.087945            -9.882253            7.837127
| 44>   H                    : 10.589801            -10.185587           6.252994
| 45>   H                    : 9.303951             -9.795346            7.212084
| 46>   H                    : 10.456146            -8.569573            6.683795
| 47> *
| 48>
| 49> #Run DFT-D3 single point of the particle with dimer basis set
| 50> $new_job
| 51> %base "9-41_DFT_B"
| 52> ! wB97X-D3 def2-TZVP TIGHTSCF CHELPG PMODEL
| 53>
| 54> %scf
| 55> MaxIter 1000
| 56> end
| 57>
| 58> * xyz 0 1
| 59>   C                    : 9.668153             -8.802298            3.443174
| 60>   O                    : 9.283030             -9.279826            2.182614
| 61>   H                    : 8.535800             -9.932465            2.235001
| 62>   H                    : 10.301862            -9.574787            3.917111
| 63>   H                    : 10.289359            -7.879110            3.349851
| 64>   H                    : 8.819729             -8.629750            4.115209
| 65>   C                      10.347723            -9.588649            7.064256
| 66>   O                      11.185352            -9.710996            8.190778
| 67>   H                      12.087945            -9.882253            7.837127
| 68>   H                      10.589801            -10.185587           6.252994
| 69>   H                      9.303951             -9.795346            7.212084
| 70>   H                      10.456146            -8.569573            6.683795
| 71> *
| 72>
| 73>                          ****END OF INPUT****
 Total Charge           Charge          ....    0
 Multiplicity           Mult            ....    1
 Number of Electrons    NEL             ....   36
Dispersion correction           -0.001560113
FINAL SINGLE POINT ENERGY      -231.463794711598
Dispersion correction           -0.000248151
FINAL SINGLE POINT ENERGY      -115.733823937435

CARTESIAN COORDINATES (ANGSTROEM)
---------------------------------
  C      9.668153   -8.802298    3.443174
  O      9.283030   -9.279826    2.182614
  H      8.535800   -9.932465    2.235001
  H     10.301862   -9.574787    3.917111
  H     10.289359   -7.879110    3.349851
  H      8.819729   -8.629750    4.115209
  C     10.347723   -9.588649    7.064256
  O     11.185352   -9.710996    8.190778
  H     12.087945   -9.882253    7.837127
  H     10.589801  -10.185587    6.252994
  H      9.303951   -9.795346    7.212084
  H     10.456146   -8.569573    6.683795

 Multiplicity           Mult            ....    1
 Number of Electrons    NEL             ....   18
 Basis Dimension        Dim             ....  172

ORBITAL ENERGIES
----------------

  NO   OCC          E(Eh)            E(eV)
   0   2.0000     -19.233485      -523.3697
   1   2.0000     -10.303177      -280.3637
   2   2.0000      -1.134546       -30.8726
   3   2.0000      -0.800919       -21.7941
   4   2.0000      -0.613889       -16.7048
   5   2.0000      -0.544359       -14.8128
   6   2.0000      -0.527145       -14.3443
   7   2.0000      -0.437538       -11.9060
   8   2.0000      -0.371459       -10.1079
   9   0.0000       0.080130         2.1805
  10   0.0000       0.113831         3.0975
  11   0.0000       0.147220         4.0061
  12   0.0000       0.169617         4.6155
  13   0.0000       0.186536         5.0759

MULLIKEN ATOMIC CHARGES
-----------------------
   0 C :   -0.000803
   1 O :   -0.000046
   2 H :   -0.000011
   3 H :   -0.001763
   4 H :    0.000137
   5 H :    0.000052
   6 C :   -0.170608
   7 O :   -0.473392
   8 H :    0.319112
   9 H :    0.108096
  10 H :    0.119936
  11 H :    0.099290
Sum of atomic charges:    0.0000000

LOEWDIN ATOMIC CHARGES
----------------------
   0 C :   -0.004324
   1 O :   -0.000025
   2 H :   -0.000004
   3 H :   -0.003825
   4 H :   -0.000204
   5 H :   -0.000598
   6 C :   -0.386933
   7 O :   -0.080697
   8 H :    0.187235
   9 H :    0.085270
  10 H :    0.105160
  11 H :    0.098946

  Mayer bond orders larger than 0.1
B(  6-C ,  7-O ) :   1.0030 B(  6-C ,  9-H ) :   0.9784 B(  6-C , 10-H ) :   0.9687
B(  6-C , 11-H ) :   0.9877 B(  7-O ,  8-H ) :   0.8950

Dispersion correction           -0.000230596
FINAL SINGLE POINT ENERGY      -115.729321815064

DIPOLE MOMENT
-------------
                                X             Y             Z
Electronic contribution:      0.94075      -0.25665       1.64098
Nuclear contribution   :     -0.70519       0.16428      -2.32465
                        -----------------------------------------
Total Dipole Moment    :      0.23556      -0.09237      -0.68367
                        -----------------------------------------
Magnitude (a.u.)       :      0.72899
Magnitude (Debye)      :      1.85295

Rotational constants in cm-1:     4.531512     0.832649     0.803372
Rotational constants in MHz : 135851.307967 24962.186779 24084.489335

                             ****ORCA TERMINATED NORMALLY****
TOTAL RUN TIME: 0 days 0 hours 0 minutes 42 seconds 285 msec
