                         Program Version 4.1.2  - RELEASE  -
|  1> #Run DFT-D3 single point of the dimer
|  2> ! wB97X-D3 def2-TZVP TIGHTSCF CHELPG PMODEL PAL8
|  3>
|  4> %base "6-148_DFT_AB"
|  5>
|  6> %scf
|  7> MaxIter 1000
|  8> end
|  9>
| 10> * xyz 0 1
| 11>   C                      8.189695             -3.280318            4.656080
| 12>   O                      8.707699             -3.551856            5.981906
| 13>   H                      9.065366             -2.754849            6.337936
| 14>   H                      8.093782             -2.275202            4.356234
| 15>   H                      8.937084             -3.749127            3.947132
| 16>   H                      7.235108             -3.741698            4.433493
| 17>   C                      9.705342             0.411539             3.221765
| 18>   O                      10.390401            -0.825732            3.217696
| 19>   H                      9.910130             -1.311990            2.517229
| 20>   H                      8.603460             0.070727             3.184463
| 21>   H                      9.931842             1.116046             4.018518
| 22>   H                      9.853176             0.875626             2.236560
| 23> *
| 24>
| 25> #Run DFT-D3 single point of the molecule with dimer basis set
| 26> $new_job
| 27> %base "6-148_DFT_A"
| 28> ! wB97X-D3 def2-TZVP TIGHTSCF CHELPG PMODEL
| 29>
| 30> %scf
| 31> MaxIter 1000
| 32> end
| 33>
| 34> * xyz 0 1
| 35>   C                      8.189695             -3.280318            4.656080
| 36>   O                      8.707699             -3.551856            5.981906
| 37>   H                      9.065366             -2.754849            6.337936
| 38>   H                      8.093782             -2.275202            4.356234
| 39>   H                      8.937084             -3.749127            3.947132
| 40>   H                      7.235108             -3.741698            4.433493
| 41>   C                    : 9.705342             0.411539             3.221765
| 42>   O                    : 10.390401            -0.825732            3.217696
| 43>   H                    : 9.910130             -1.311990            2.517229
| 44>   H                    : 8.603460             0.070727             3.184463
| 45>   H                    : 9.931842             1.116046             4.018518
| 46>   H                    : 9.853176             0.875626             2.236560
| 47> *
| 48>
| 49> #Run DFT-D3 single point of the particle with dimer basis set
| 50> $new_job
| 51> %base "6-148_DFT_B"
| 52> ! wB97X-D3 def2-TZVP TIGHTSCF CHELPG PMODEL
| 53>
| 54> %scf
| 55> MaxIter 1000
| 56> end
| 57>
| 58> * xyz 0 1
| 59>   C                    : 8.189695             -3.280318            4.656080
| 60>   O                    : 8.707699             -3.551856            5.981906
| 61>   H                    : 9.065366             -2.754849            6.337936
| 62>   H                    : 8.093782             -2.275202            4.356234
| 63>   H                    : 8.937084             -3.749127            3.947132
| 64>   H                    : 7.235108             -3.741698            4.433493
| 65>   C                      9.705342             0.411539             3.221765
| 66>   O                      10.390401            -0.825732            3.217696
| 67>   H                      9.910130             -1.311990            2.517229
| 68>   H                      8.603460             0.070727             3.184463
| 69>   H                      9.931842             1.116046             4.018518
| 70>   H                      9.853176             0.875626             2.236560
| 71> *
| 72>
| 73>                          ****END OF INPUT****
 Total Charge           Charge          ....    0
 Multiplicity           Mult            ....    1
 Number of Electrons    NEL             ....   36
Dispersion correction           -0.001704382
FINAL SINGLE POINT ENERGY      -231.456772817753
Dispersion correction           -0.000271708
FINAL SINGLE POINT ENERGY      -115.729852620780

CARTESIAN COORDINATES (ANGSTROEM)
---------------------------------
  C      8.189695   -3.280318    4.656080
  O      8.707699   -3.551856    5.981906
  H      9.065366   -2.754849    6.337936
  H      8.093782   -2.275202    4.356234
  H      8.937084   -3.749127    3.947132
  H      7.235108   -3.741698    4.433493
  C      9.705342    0.411539    3.221765
  O     10.390401   -0.825732    3.217696
  H      9.910130   -1.311990    2.517229
  H      8.603460    0.070727    3.184463
  H      9.931842    1.116046    4.018518
  H      9.853176    0.875626    2.236560

 Multiplicity           Mult            ....    1
 Number of Electrons    NEL             ....   18
 Basis Dimension        Dim             ....  172

ORBITAL ENERGIES
----------------

  NO   OCC          E(Eh)            E(eV)
   0   2.0000     -19.231822      -523.3245
   1   2.0000     -10.321183      -280.8537
   2   2.0000      -1.138369       -30.9766
   3   2.0000      -0.785843       -21.3839
   4   2.0000      -0.607486       -16.5305
   5   2.0000      -0.539930       -14.6923
   6   2.0000      -0.535293       -14.5661
   7   2.0000      -0.437886       -11.9155
   8   2.0000      -0.365193        -9.9374
   9   0.0000       0.082700         2.2504
  10   0.0000       0.123670         3.3652
  11   0.0000       0.152805         4.1580
  12   0.0000       0.167307         4.5527
  13   0.0000       0.186201         5.0668

MULLIKEN ATOMIC CHARGES
-----------------------
   0 C :   -0.001982
   1 O :    0.000169
   2 H :   -0.000534
   3 H :   -0.001777
   4 H :   -0.001112
   5 H :   -0.000334
   6 C :   -0.194067
   7 O :   -0.461374
   8 H :    0.320249
   9 H :    0.096088
  10 H :    0.134500
  11 H :    0.110174
Sum of atomic charges:   -0.0000000

LOEWDIN ATOMIC CHARGES
----------------------
   0 C :   -0.006475
   1 O :   -0.000036
   2 H :   -0.000347
   3 H :   -0.003611
   4 H :   -0.001285
   5 H :   -0.000091
   6 C :   -0.394143
   7 O :   -0.085682
   8 H :    0.185626
   9 H :    0.105544
  10 H :    0.105969
  11 H :    0.094530

  Mayer bond orders larger than 0.1
B(  6-C ,  7-O ) :   0.9809 B(  6-C ,  9-H ) :   0.9936 B(  6-C , 10-H ) :   0.9661
B(  6-C , 11-H ) :   0.9776 B(  7-O ,  8-H ) :   0.8955

Dispersion correction           -0.000205435
FINAL SINGLE POINT ENERGY      -115.725557906915

DIPOLE MOMENT
-------------
                                X             Y             Z
Electronic contribution:      1.17703      -1.37699       0.32486
Nuclear contribution   :     -1.70706       1.57500      -0.75492
                        -----------------------------------------
Total Dipole Moment    :     -0.53002       0.19802      -0.43007
                        -----------------------------------------
Magnitude (a.u.)       :      0.71070
Magnitude (Debye)      :      1.80645

Rotational constants in cm-1:     4.050196     0.848504     0.804611
Rotational constants in MHz : 121421.836300 25437.516321 24121.621767

                             ****ORCA TERMINATED NORMALLY****
TOTAL RUN TIME: 0 days 0 hours 1 minutes 2 seconds 197 msec
