                         Program Version 4.1.2  - RELEASE  -
|  1> #Run DFT-D3 single point of the dimer
|  2> ! wB97X-D3 def2-TZVP TIGHTSCF CHELPG PMODEL PAL8
|  3>
|  4> %base "21-178_DFT_AB"
|  5>
|  6> %scf
|  7> MaxIter 1000
|  8> end
|  9>
| 10> * xyz 0 1
| 11>   C                      3.778419             -6.836867            5.976768
| 12>   O                      3.260152             -7.910621            6.743378
| 13>   H                      2.329258             -7.973401            6.412275
| 14>   H                      4.083998             -7.327440            5.026746
| 15>   H                      3.114401             -6.098995            5.565235
| 16>   H                      4.744098             -6.458797            6.368110
| 17>   C                      3.860026             -6.475431            9.711932
| 18>   O                      2.678822             -7.244921            9.537675
| 19>   H                      2.678059             -7.521312            8.614185
| 20>   H                      3.803624             -5.439931            9.299957
| 21>   H                      4.100571             -6.367934            10.805068
| 22>   H                      4.776502             -6.869798            9.342097
| 23> *
| 24>
| 25> #Run DFT-D3 single point of the molecule with dimer basis set
| 26> $new_job
| 27> %base "21-178_DFT_A"
| 28> ! wB97X-D3 def2-TZVP TIGHTSCF CHELPG PMODEL
| 29>
| 30> %scf
| 31> MaxIter 1000
| 32> end
| 33>
| 34> * xyz 0 1
| 35>   C                      3.778419             -6.836867            5.976768
| 36>   O                      3.260152             -7.910621            6.743378
| 37>   H                      2.329258             -7.973401            6.412275
| 38>   H                      4.083998             -7.327440            5.026746
| 39>   H                      3.114401             -6.098995            5.565235
| 40>   H                      4.744098             -6.458797            6.368110
| 41>   C                    : 3.860026             -6.475431            9.711932
| 42>   O                    : 2.678822             -7.244921            9.537675
| 43>   H                    : 2.678059             -7.521312            8.614185
| 44>   H                    : 3.803624             -5.439931            9.299957
| 45>   H                    : 4.100571             -6.367934            10.805068
| 46>   H                    : 4.776502             -6.869798            9.342097
| 47> *
| 48>
| 49> #Run DFT-D3 single point of the particle with dimer basis set
| 50> $new_job
| 51> %base "21-178_DFT_B"
| 52> ! wB97X-D3 def2-TZVP TIGHTSCF CHELPG PMODEL
| 53>
| 54> %scf
| 55> MaxIter 1000
| 56> end
| 57>
| 58> * xyz 0 1
| 59>   C                    : 3.778419             -6.836867            5.976768
| 60>   O                    : 3.260152             -7.910621            6.743378
| 61>   H                    : 2.329258             -7.973401            6.412275
| 62>   H                    : 4.083998             -7.327440            5.026746
| 63>   H                    : 3.114401             -6.098995            5.565235
| 64>   H                    : 4.744098             -6.458797            6.368110
| 65>   C                      3.860026             -6.475431            9.711932
| 66>   O                      2.678822             -7.244921            9.537675
| 67>   H                      2.678059             -7.521312            8.614185
| 68>   H                      3.803624             -5.439931            9.299957
| 69>   H                      4.100571             -6.367934            10.805068
| 70>   H                      4.776502             -6.869798            9.342097
| 71> *
| 72>
| 73>                          ****END OF INPUT****
 Total Charge           Charge          ....    0
 Multiplicity           Mult            ....    1
 Number of Electrons    NEL             ....   36
Dispersion correction           -0.002107209
FINAL SINGLE POINT ENERGY      -231.465212116983
Dispersion correction           -0.000233079
FINAL SINGLE POINT ENERGY      -115.724423879256

CARTESIAN COORDINATES (ANGSTROEM)
---------------------------------
  C      3.778419   -6.836867    5.976768
  O      3.260152   -7.910621    6.743378
  H      2.329258   -7.973401    6.412275
  H      4.083998   -7.327440    5.026746
  H      3.114401   -6.098995    5.565235
  H      4.744098   -6.458797    6.368110
  C      3.860026   -6.475431    9.711932
  O      2.678822   -7.244921    9.537675
  H      2.678059   -7.521312    8.614185
  H      3.803624   -5.439931    9.299957
  H      4.100571   -6.367934   10.805068
  H      4.776502   -6.869798    9.342097

 Multiplicity           Mult            ....    1
 Number of Electrons    NEL             ....   18
 Basis Dimension        Dim             ....  172

ORBITAL ENERGIES
----------------

  NO   OCC          E(Eh)            E(eV)
   0   2.0000     -19.237559      -523.4806
   1   2.0000     -10.315569      -280.7009
   2   2.0000      -1.137505       -30.9531
   3   2.0000      -0.796241       -21.6668
   4   2.0000      -0.614662       -16.7258
   5   2.0000      -0.537512       -14.6265
   6   2.0000      -0.521216       -14.1830
   7   2.0000      -0.436327       -11.8731
   8   2.0000      -0.378207       -10.2915
   9   0.0000       0.068530         1.8648
  10   0.0000       0.133291         3.6270
  11   0.0000       0.139448         3.7946
  12   0.0000       0.177421         4.8279
  13   0.0000       0.187238         5.0950

MULLIKEN ATOMIC CHARGES
-----------------------
   0 C :    0.000441
   1 O :   -0.004414
   2 H :   -0.000611
   3 H :   -0.000004
   4 H :   -0.000045
   5 H :   -0.000977
   6 C :   -0.180956
   7 O :   -0.462761
   8 H :    0.316895
   9 H :    0.101522
  10 H :    0.122155
  11 H :    0.108755
Sum of atomic charges:    0.0000000

LOEWDIN ATOMIC CHARGES
----------------------
   0 C :   -0.004780
   1 O :   -0.016970
   2 H :   -0.002589
   3 H :   -0.000078
   4 H :   -0.000090
   5 H :   -0.000925
   6 C :   -0.392400
   7 O :   -0.065871
   8 H :    0.180613
   9 H :    0.098981
  10 H :    0.115547
  11 H :    0.088562

  Mayer bond orders larger than 0.1
B(  6-C ,  7-O ) :   0.9997 B(  6-C ,  9-H ) :   0.9754 B(  6-C , 10-H ) :   0.9748
B(  6-C , 11-H ) :   0.9708 B(  7-O ,  8-H ) :   0.9059

Dispersion correction           -0.000266445
FINAL SINGLE POINT ENERGY      -115.733156697489

DIPOLE MOMENT
-------------
                                X             Y             Z
Electronic contribution:     -1.65673      -1.08824      -0.18650
Nuclear contribution   :      2.13789       1.19251      -0.31937
                        -----------------------------------------
Total Dipole Moment    :      0.48116       0.10427      -0.50586
                        -----------------------------------------
Magnitude (a.u.)       :      0.70589
Magnitude (Debye)      :      1.79424

Rotational constants in cm-1:     4.396324     0.810932     0.783305
Rotational constants in MHz : 131798.492765 24311.124414 23482.894981

                             ****ORCA TERMINATED NORMALLY****
TOTAL RUN TIME: 0 days 0 hours 1 minutes 8 seconds 459 msec
