                         Program Version 4.1.2  - RELEASE  -
|  1> #Run DFT-D3 single point of the dimer
|  2> ! wB97X-D3 def2-TZVP TIGHTSCF CHELPG PMODEL PAL8
|  3>
|  4> %base "22-45_DFT_AB"
|  5>
|  6> %scf
|  7> MaxIter 1000
|  8> end
|  9>
| 10> * xyz 0 1
| 11>   C                      3.346385             5.166609             -0.324777
| 12>   O                      4.605433             4.856927             -0.851271
| 13>   H                      4.735588             5.658297             -1.389277
| 14>   H                      2.939554             4.225934             -0.016089
| 15>   H                      3.411675             5.727115             0.579502
| 16>   H                      2.613158             5.716876             -1.000328
| 17>   C                      -1.574959            5.552687             0.052939
| 18>   O                      -0.213049            5.315815             -0.311016
| 19>   H                      0.156390             6.059538             -0.790680
| 20>   H                      -2.149226            5.731861             -0.873116
| 21>   H                      -1.975648            4.632163             0.646193
| 22>   H                      -1.674990            6.385533             0.750422
| 23> *
| 24>
| 25> #Run DFT-D3 single point of the molecule with dimer basis set
| 26> $new_job
| 27> %base "22-45_DFT_A"
| 28> ! wB97X-D3 def2-TZVP TIGHTSCF CHELPG PMODEL
| 29>
| 30> %scf
| 31> MaxIter 1000
| 32> end
| 33>
| 34> * xyz 0 1
| 35>   C                      3.346385             5.166609             -0.324777
| 36>   O                      4.605433             4.856927             -0.851271
| 37>   H                      4.735588             5.658297             -1.389277
| 38>   H                      2.939554             4.225934             -0.016089
| 39>   H                      3.411675             5.727115             0.579502
| 40>   H                      2.613158             5.716876             -1.000328
| 41>   C                    : -1.574959            5.552687             0.052939
| 42>   O                    : -0.213049            5.315815             -0.311016
| 43>   H                    : 0.156390             6.059538             -0.790680
| 44>   H                    : -2.149226            5.731861             -0.873116
| 45>   H                    : -1.975648            4.632163             0.646193
| 46>   H                    : -1.674990            6.385533             0.750422
| 47> *
| 48>
| 49> #Run DFT-D3 single point of the particle with dimer basis set
| 50> $new_job
| 51> %base "22-45_DFT_B"
| 52> ! wB97X-D3 def2-TZVP TIGHTSCF CHELPG PMODEL
| 53>
| 54> %scf
| 55> MaxIter 1000
| 56> end
| 57>
| 58> * xyz 0 1
| 59>   C                    : 3.346385             5.166609             -0.324777
| 60>   O                    : 4.605433             4.856927             -0.851271
| 61>   H                    : 4.735588             5.658297             -1.389277
| 62>   H                    : 2.939554             4.225934             -0.016089
| 63>   H                    : 3.411675             5.727115             0.579502
| 64>   H                    : 2.613158             5.716876             -1.000328
| 65>   C                      -1.574959            5.552687             0.052939
| 66>   O                      -0.213049            5.315815             -0.311016
| 67>   H                      0.156390             6.059538             -0.790680
| 68>   H                      -2.149226            5.731861             -0.873116
| 69>   H                      -1.975648            4.632163             0.646193
| 70>   H                      -1.674990            6.385533             0.750422
| 71> *
| 72>
| 73>                          ****END OF INPUT****
 Total Charge           Charge          ....    0
 Multiplicity           Mult            ....    1
 Number of Electrons    NEL             ....   36
Dispersion correction           -0.001298843
FINAL SINGLE POINT ENERGY      -231.462352057052
Dispersion correction           -0.000224358
FINAL SINGLE POINT ENERGY      -115.729280863571

CARTESIAN COORDINATES (ANGSTROEM)
---------------------------------
  C      3.346385    5.166609   -0.324777
  O      4.605433    4.856927   -0.851271
  H      4.735588    5.658297   -1.389277
  H      2.939554    4.225934   -0.016089
  H      3.411675    5.727115    0.579502
  H      2.613158    5.716876   -1.000328
  C     -1.574959    5.552687    0.052939
  O     -0.213049    5.315815   -0.311016
  H      0.156390    6.059538   -0.790680
  H     -2.149226    5.731861   -0.873116
  H     -1.975648    4.632163    0.646193
  H     -1.674990    6.385533    0.750422

 Multiplicity           Mult            ....    1
 Number of Electrons    NEL             ....   18
 Basis Dimension        Dim             ....  172

ORBITAL ENERGIES
----------------

  NO   OCC          E(Eh)            E(eV)
   0   2.0000     -19.227960      -523.2194
   1   2.0000     -10.323434      -280.9149
   2   2.0000      -1.129396       -30.7324
   3   2.0000      -0.791081       -21.5264
   4   2.0000      -0.606317       -16.4987
   5   2.0000      -0.545627       -14.8473
   6   2.0000      -0.516915       -14.0660
   7   2.0000      -0.426012       -11.5924
   8   2.0000      -0.373990       -10.1768
   9   0.0000       0.088619         2.4114
  10   0.0000       0.123140         3.3508
  11   0.0000       0.149741         4.0747
  12   0.0000       0.181732         4.9452
  13   0.0000       0.194174         5.2838

MULLIKEN ATOMIC CHARGES
-----------------------
   0 C :   -0.000506
   1 O :   -0.000106
   2 H :   -0.000023
   3 H :   -0.001746
   4 H :   -0.000494
   5 H :   -0.001495
   6 C :   -0.164473
   7 O :   -0.481648
   8 H :    0.316787
   9 H :    0.106744
  10 H :    0.120581
  11 H :    0.106379
Sum of atomic charges:   -0.0000000

LOEWDIN ATOMIC CHARGES
----------------------
   0 C :   -0.005438
   1 O :   -0.000035
   2 H :   -0.000016
   3 H :   -0.001236
   4 H :   -0.000321
   5 H :   -0.002354
   6 C :   -0.379927
   7 O :   -0.088877
   8 H :    0.165937
   9 H :    0.097431
  10 H :    0.123161
  11 H :    0.091676

  Mayer bond orders larger than 0.1
B(  6-C ,  7-O ) :   0.9880 B(  6-C ,  9-H ) :   0.9777 B(  6-C , 10-H ) :   0.9702
B(  6-C , 11-H ) :   0.9715 B(  7-O ,  8-H ) :   0.8938

Dispersion correction           -0.000255907
FINAL SINGLE POINT ENERGY      -115.732794434952

DIPOLE MOMENT
-------------
                                X             Y             Z
Electronic contribution:      1.67638      -0.34675      -0.44025
Nuclear contribution   :     -2.00384       0.93253       0.28671
                        -----------------------------------------
Total Dipole Moment    :     -0.32746       0.58578      -0.15354
                        -----------------------------------------
Magnitude (a.u.)       :      0.68843
Magnitude (Debye)      :      1.74986

Rotational constants in cm-1:     4.132605     0.812116     0.781709
Rotational constants in MHz : 123892.380590 24346.639599 23435.049138

                             ****ORCA TERMINATED NORMALLY****
TOTAL RUN TIME: 0 days 0 hours 0 minutes 55 seconds 717 msec
