                         Program Version 4.1.2  - RELEASE  -
|  1> #Run DFT-D3 single point of the dimer
|  2> ! wB97X-D3 def2-TZVP TIGHTSCF CHELPG PMODEL PAL8
|  3>
|  4> %base "15-161_DFT_AB"
|  5>
|  6> %scf
|  7> MaxIter 1000
|  8> end
|  9>
| 10> * xyz 0 1
| 11>   C                      -11.035410           5.416340             2.897314
| 12>   O                      -11.338595           4.150427             3.519232
| 13>   H                      -11.422726           4.333641             4.462642
| 14>   H                      -10.013838           5.561956             3.186044
| 15>   H                      -11.174903           5.385946             1.837457
| 16>   H                      -11.582966           6.313979             3.313232
| 17>   C                      -9.809337            4.625064             8.066705
| 18>   O                      -10.372612           4.382840             6.748951
| 19>   H                      -11.292812           4.100494             6.801585
| 20>   H                      -9.570127            3.753823             8.548412
| 21>   H                      -8.941450            5.281015             8.024271
| 22>   H                      -10.560343           5.100254             8.710756
| 23> *
| 24>
| 25> #Run DFT-D3 single point of the molecule with dimer basis set
| 26> $new_job
| 27> %base "15-161_DFT_A"
| 28> ! wB97X-D3 def2-TZVP TIGHTSCF CHELPG PMODEL
| 29>
| 30> %scf
| 31> MaxIter 1000
| 32> end
| 33>
| 34> * xyz 0 1
| 35>   C                      -11.035410           5.416340             2.897314
| 36>   O                      -11.338595           4.150427             3.519232
| 37>   H                      -11.422726           4.333641             4.462642
| 38>   H                      -10.013838           5.561956             3.186044
| 39>   H                      -11.174903           5.385946             1.837457
| 40>   H                      -11.582966           6.313979             3.313232
| 41>   C                    : -9.809337            4.625064             8.066705
| 42>   O                    : -10.372612           4.382840             6.748951
| 43>   H                    : -11.292812           4.100494             6.801585
| 44>   H                    : -9.570127            3.753823             8.548412
| 45>   H                    : -8.941450            5.281015             8.024271
| 46>   H                    : -10.560343           5.100254             8.710756
| 47> *
| 48>
| 49> #Run DFT-D3 single point of the particle with dimer basis set
| 50> $new_job
| 51> %base "15-161_DFT_B"
| 52> ! wB97X-D3 def2-TZVP TIGHTSCF CHELPG PMODEL
| 53>
| 54> %scf
| 55> MaxIter 1000
| 56> end
| 57>
| 58> * xyz 0 1
| 59>   C                    : -11.035410           5.416340             2.897314
| 60>   O                    : -11.338595           4.150427             3.519232
| 61>   H                    : -11.422726           4.333641             4.462642
| 62>   H                    : -10.013838           5.561956             3.186044
| 63>   H                    : -11.174903           5.385946             1.837457
| 64>   H                    : -11.582966           6.313979             3.313232
| 65>   C                      -9.809337            4.625064             8.066705
| 66>   O                      -10.372612           4.382840             6.748951
| 67>   H                      -11.292812           4.100494             6.801585
| 68>   H                      -9.570127            3.753823             8.548412
| 69>   H                      -8.941450            5.281015             8.024271
| 70>   H                      -10.560343           5.100254             8.710756
| 71> *
| 72>
| 73>                          ****END OF INPUT****
 Total Charge           Charge          ....    0
 Multiplicity           Mult            ....    1
 Number of Electrons    NEL             ....   36
Dispersion correction           -0.001289070
FINAL SINGLE POINT ENERGY      -231.463457067116
Dispersion correction           -0.000235780
FINAL SINGLE POINT ENERGY      -115.730633135696

CARTESIAN COORDINATES (ANGSTROEM)
---------------------------------
  C    -11.035410    5.416340    2.897314
  O    -11.338595    4.150427    3.519232
  H    -11.422726    4.333641    4.462642
  H    -10.013838    5.561956    3.186044
  H    -11.174903    5.385946    1.837457
  H    -11.582966    6.313979    3.313232
  C     -9.809337    4.625064    8.066705
  O    -10.372612    4.382840    6.748951
  H    -11.292812    4.100494    6.801585
  H     -9.570127    3.753823    8.548412
  H     -8.941450    5.281015    8.024271
  H    -10.560343    5.100254    8.710756

 Multiplicity           Mult            ....    1
 Number of Electrons    NEL             ....   18
 Basis Dimension        Dim             ....  172

ORBITAL ENERGIES
----------------

  NO   OCC          E(Eh)            E(eV)
   0   2.0000     -19.227774      -523.2143
   1   2.0000     -10.309781      -280.5434
   2   2.0000      -1.120459       -30.4892
   3   2.0000      -0.805097       -21.9078
   4   2.0000      -0.606355       -16.4998
   5   2.0000      -0.541871       -14.7451
   6   2.0000      -0.526592       -14.3293
   7   2.0000      -0.431654       -11.7459
   8   2.0000      -0.374728       -10.1969
   9   0.0000       0.095575         2.6007
  10   0.0000       0.121746         3.3129
  11   0.0000       0.150581         4.0975
  12   0.0000       0.195535         5.3208
  13   0.0000       0.198226         5.3940

MULLIKEN ATOMIC CHARGES
-----------------------
   0 C :    0.001005
   1 O :    0.000824
   2 H :   -0.006402
   3 H :   -0.001292
   4 H :   -0.000146
   5 H :   -0.000298
   6 C :   -0.165133
   7 O :   -0.487069
   8 H :    0.317772
   9 H :    0.112553
  10 H :    0.123781
  11 H :    0.104407
Sum of atomic charges:   -0.0000000

LOEWDIN ATOMIC CHARGES
----------------------
   0 C :   -0.001334
   1 O :   -0.000943
   2 H :   -0.009250
   3 H :   -0.000419
   4 H :   -0.000027
   5 H :   -0.000115
   6 C :   -0.341899
   7 O :   -0.102686
   8 H :    0.168643
   9 H :    0.079965
  10 H :    0.108966
  11 H :    0.099100

  Mayer bond orders larger than 0.1
B(  6-C ,  7-O ) :   0.9885 B(  6-C ,  9-H ) :   0.9729 B(  6-C , 10-H ) :   0.9745
B(  6-C , 11-H ) :   0.9843 B(  7-O ,  8-H ) :   0.8947

Dispersion correction           -0.000253131
FINAL SINGLE POINT ENERGY      -115.731090931726

DIPOLE MOMENT
-------------
                                X             Y             Z
Electronic contribution:     -0.47325      -0.31866      -1.67712
Nuclear contribution   :      0.12721       0.23514       2.31041
                        -----------------------------------------
Total Dipole Moment    :     -0.34603      -0.08352       0.63329
                        -----------------------------------------
Magnitude (a.u.)       :      0.72648
Magnitude (Debye)      :      1.84656

Rotational constants in cm-1:     4.505663     0.795723     0.763172
Rotational constants in MHz : 135076.384187 23855.171635 22879.317707

                             ****ORCA TERMINATED NORMALLY****
TOTAL RUN TIME: 0 days 0 hours 1 minutes 1 seconds 240 msec
