                         Program Version 4.1.2  - RELEASE  -
|  1> #Run DFT-D3 single point of the dimer
|  2> ! wB97X-D3 def2-TZVP TIGHTSCF CHELPG PMODEL PAL8
|  3>
|  4> %base "8-105_DFT_AB"
|  5>
|  6> %scf
|  7> MaxIter 1000
|  8> end
|  9>
| 10> * xyz 0 1
| 11>   C                      -5.195719            -0.427144            9.365506
| 12>   O                      -6.124433            -1.080566            10.163934
| 13>   H                      -6.539004            -1.747450            9.631112
| 14>   H                      -5.596017            -0.049719            8.423426
| 15>   H                      -4.831508            0.366167             9.977338
| 16>   H                      -4.342301            -1.112926            9.156067
| 17>   C                      -3.344770            -3.847323            8.213863
| 18>   O                      -2.864211            -4.271480            9.437341
| 19>   H                      -2.253268            -3.623229            9.808167
| 20>   H                      -2.556921            -3.812804            7.449268
| 21>   H                      -4.130952            -4.533478            7.770131
| 22>   H                      -3.644031            -2.798656            8.229549
| 23> *
| 24>
| 25> #Run DFT-D3 single point of the molecule with dimer basis set
| 26> $new_job
| 27> %base "8-105_DFT_A"
| 28> ! wB97X-D3 def2-TZVP TIGHTSCF CHELPG PMODEL
| 29>
| 30> %scf
| 31> MaxIter 1000
| 32> end
| 33>
| 34> * xyz 0 1
| 35>   C                      -5.195719            -0.427144            9.365506
| 36>   O                      -6.124433            -1.080566            10.163934
| 37>   H                      -6.539004            -1.747450            9.631112
| 38>   H                      -5.596017            -0.049719            8.423426
| 39>   H                      -4.831508            0.366167             9.977338
| 40>   H                      -4.342301            -1.112926            9.156067
| 41>   C                    : -3.344770            -3.847323            8.213863
| 42>   O                    : -2.864211            -4.271480            9.437341
| 43>   H                    : -2.253268            -3.623229            9.808167
| 44>   H                    : -2.556921            -3.812804            7.449268
| 45>   H                    : -4.130952            -4.533478            7.770131
| 46>   H                    : -3.644031            -2.798656            8.229549
| 47> *
| 48>
| 49> #Run DFT-D3 single point of the particle with dimer basis set
| 50> $new_job
| 51> %base "8-105_DFT_B"
| 52> ! wB97X-D3 def2-TZVP TIGHTSCF CHELPG PMODEL
| 53>
| 54> %scf
| 55> MaxIter 1000
| 56> end
| 57>
| 58> * xyz 0 1
| 59>   C                    : -5.195719            -0.427144            9.365506
| 60>   O                    : -6.124433            -1.080566            10.163934
| 61>   H                    : -6.539004            -1.747450            9.631112
| 62>   H                    : -5.596017            -0.049719            8.423426
| 63>   H                    : -4.831508            0.366167             9.977338
| 64>   H                    : -4.342301            -1.112926            9.156067
| 65>   C                      -3.344770            -3.847323            8.213863
| 66>   O                      -2.864211            -4.271480            9.437341
| 67>   H                      -2.253268            -3.623229            9.808167
| 68>   H                      -2.556921            -3.812804            7.449268
| 69>   H                      -4.130952            -4.533478            7.770131
| 70>   H                      -3.644031            -2.798656            8.229549
| 71> *
| 72>
| 73>                          ****END OF INPUT****
 Total Charge           Charge          ....    0
 Multiplicity           Mult            ....    1
 Number of Electrons    NEL             ....   36
Dispersion correction           -0.001491836
FINAL SINGLE POINT ENERGY      -231.467677039931
Dispersion correction           -0.000220311
FINAL SINGLE POINT ENERGY      -115.735621292853

CARTESIAN COORDINATES (ANGSTROEM)
---------------------------------
  C     -5.195719   -0.427144    9.365506
  O     -6.124433   -1.080566   10.163934
  H     -6.539004   -1.747450    9.631112
  H     -5.596017   -0.049719    8.423426
  H     -4.831508    0.366167    9.977338
  H     -4.342301   -1.112926    9.156067
  C     -3.344770   -3.847323    8.213863
  O     -2.864211   -4.271480    9.437341
  H     -2.253268   -3.623229    9.808167
  H     -2.556921   -3.812804    7.449268
  H     -4.130952   -4.533478    7.770131
  H     -3.644031   -2.798656    8.229549

 Multiplicity           Mult            ....    1
 Number of Electrons    NEL             ....   18
 Basis Dimension        Dim             ....  172

ORBITAL ENERGIES
----------------

  NO   OCC          E(Eh)            E(eV)
   0   2.0000     -19.231715      -523.3216
   1   2.0000     -10.314700      -280.6773
   2   2.0000      -1.145305       -31.1653
   3   2.0000      -0.792927       -21.5767
   4   2.0000      -0.622803       -16.9473
   5   2.0000      -0.539414       -14.6782
   6   2.0000      -0.527807       -14.3624
   7   2.0000      -0.432388       -11.7659
   8   2.0000      -0.367129        -9.9901
   9   0.0000       0.083957         2.2846
  10   0.0000       0.121494         3.3060
  11   0.0000       0.152412         4.1473
  12   0.0000       0.163526         4.4498
  13   0.0000       0.190984         5.1969

MULLIKEN ATOMIC CHARGES
-----------------------
   0 C :   -0.006522
   1 O :    0.000028
   2 H :   -0.000009
   3 H :    0.000167
   4 H :    0.000229
   5 H :    0.012084
   6 C :   -0.152020
   7 O :   -0.467571
   8 H :    0.318384
   9 H :    0.093672
  10 H :    0.122110
  11 H :    0.079446
Sum of atomic charges:    0.0000000

LOEWDIN ATOMIC CHARGES
----------------------
   0 C :   -0.004484
   1 O :   -0.000012
   2 H :   -0.000122
   3 H :   -0.000114
   4 H :   -0.000032
   5 H :   -0.008546
   6 C :   -0.414563
   7 O :   -0.053507
   8 H :    0.175934
   9 H :    0.090420
  10 H :    0.118128
  11 H :    0.096897

  Mayer bond orders larger than 0.1
B(  6-C ,  7-O ) :   1.0046 B(  6-C ,  9-H ) :   0.9800 B(  6-C , 10-H ) :   0.9725
B(  6-C , 11-H ) :   0.9758 B(  7-O ,  8-H ) :   0.8926

Dispersion correction           -0.000237337
FINAL SINGLE POINT ENERGY      -115.731936952284

DIPOLE MOMENT
-------------
                                X             Y             Z
Electronic contribution:      0.47001      -0.71721       1.73223
Nuclear contribution   :     -0.24617       1.30074      -1.95424
                        -----------------------------------------
Total Dipole Moment    :      0.22384       0.58354      -0.22201
                        -----------------------------------------
Magnitude (a.u.)       :      0.66325
Magnitude (Debye)      :      1.68586

Rotational constants in cm-1:     4.326653     0.857504     0.812149
Rotational constants in MHz : 129709.793176 25707.322371 24347.618201

                             ****ORCA TERMINATED NORMALLY****
TOTAL RUN TIME: 0 days 0 hours 0 minutes 44 seconds 111 msec
