                         Program Version 4.1.2  - RELEASE  -
|  1> #Run DFT-D3 single point of the dimer
|  2> ! wB97X-D3 def2-TZVP TIGHTSCF CHELPG PMODEL PAL8
|  3>
|  4> %base "15-9_DFT_AB"
|  5>
|  6> %scf
|  7> MaxIter 1000
|  8> end
|  9>
| 10> * xyz 0 1
| 11>   C                      -6.481891            -7.877271            7.250222
| 12>   O                      -6.198547            -6.565036            6.837370
| 13>   H                      -6.806889            -6.005382            7.336781
| 14>   H                      -7.552956            -8.073217            7.112625
| 15>   H                      -5.784904            -8.580147            6.772301
| 16>   H                      -6.373916            -7.930089            8.316778
| 17>   C                      -8.742703            -3.996906            6.645358
| 18>   O                      -7.432453            -4.228092            7.296616
| 19>   H                      -6.872880            -3.550490            6.954172
| 20>   H                      -8.755564            -4.171545            5.556517
| 21>   H                      -9.437313            -4.625854            7.035804
| 22>   H                      -9.172607            -3.013105            6.807960
| 23> *
| 24>
| 25> #Run DFT-D3 single point of the molecule with dimer basis set
| 26> $new_job
| 27> %base "15-9_DFT_A"
| 28> ! wB97X-D3 def2-TZVP TIGHTSCF CHELPG PMODEL
| 29>
| 30> %scf
| 31> MaxIter 1000
| 32> end
| 33>
| 34> * xyz 0 1
| 35>   C                      -6.481891            -7.877271            7.250222
| 36>   O                      -6.198547            -6.565036            6.837370
| 37>   H                      -6.806889            -6.005382            7.336781
| 38>   H                      -7.552956            -8.073217            7.112625
| 39>   H                      -5.784904            -8.580147            6.772301
| 40>   H                      -6.373916            -7.930089            8.316778
| 41>   C                    : -8.742703            -3.996906            6.645358
| 42>   O                    : -7.432453            -4.228092            7.296616
| 43>   H                    : -6.872880            -3.550490            6.954172
| 44>   H                    : -8.755564            -4.171545            5.556517
| 45>   H                    : -9.437313            -4.625854            7.035804
| 46>   H                    : -9.172607            -3.013105            6.807960
| 47> *
| 48>
| 49> #Run DFT-D3 single point of the particle with dimer basis set
| 50> $new_job
| 51> %base "15-9_DFT_B"
| 52> ! wB97X-D3 def2-TZVP TIGHTSCF CHELPG PMODEL
| 53>
| 54> %scf
| 55> MaxIter 1000
| 56> end
| 57>
| 58> * xyz 0 1
| 59>   C                    : -6.481891            -7.877271            7.250222
| 60>   O                    : -6.198547            -6.565036            6.837370
| 61>   H                    : -6.806889            -6.005382            7.336781
| 62>   H                    : -7.552956            -8.073217            7.112625
| 63>   H                    : -5.784904            -8.580147            6.772301
| 64>   H                    : -6.373916            -7.930089            8.316778
| 65>   C                      -8.742703            -3.996906            6.645358
| 66>   O                      -7.432453            -4.228092            7.296616
| 67>   H                      -6.872880            -3.550490            6.954172
| 68>   H                      -8.755564            -4.171545            5.556517
| 69>   H                      -9.437313            -4.625854            7.035804
| 70>   H                      -9.172607            -3.013105            6.807960
| 71> *
| 72>
| 73>                          ****END OF INPUT****
 Total Charge           Charge          ....    0
 Multiplicity           Mult            ....    1
 Number of Electrons    NEL             ....   36
Dispersion correction           -0.001631350
FINAL SINGLE POINT ENERGY      -231.467667514279
Dispersion correction           -0.000206335
FINAL SINGLE POINT ENERGY      -115.733537760330

CARTESIAN COORDINATES (ANGSTROEM)
---------------------------------
  C     -6.481891   -7.877271    7.250222
  O     -6.198547   -6.565036    6.837370
  H     -6.806889   -6.005382    7.336781
  H     -7.552956   -8.073217    7.112625
  H     -5.784904   -8.580147    6.772301
  H     -6.373916   -7.930089    8.316778
  C     -8.742703   -3.996906    6.645358
  O     -7.432453   -4.228092    7.296616
  H     -6.872880   -3.550490    6.954172
  H     -8.755564   -4.171545    5.556517
  H     -9.437313   -4.625854    7.035804
  H     -9.172607   -3.013105    6.807960

 Multiplicity           Mult            ....    1
 Number of Electrons    NEL             ....   18
 Basis Dimension        Dim             ....  172

ORBITAL ENERGIES
----------------

  NO   OCC          E(Eh)            E(eV)
   0   2.0000     -19.233894      -523.3809
   1   2.0000     -10.310860      -280.5728
   2   2.0000      -1.124166       -30.5901
   3   2.0000      -0.809609       -22.0306
   4   2.0000      -0.602533       -16.3957
   5   2.0000      -0.533998       -14.5308
   6   2.0000      -0.525678       -14.3044
   7   2.0000      -0.447527       -12.1778
   8   2.0000      -0.380550       -10.3553
   9   0.0000       0.099284         2.7017
  10   0.0000       0.124973         3.4007
  11   0.0000       0.145601         3.9620
  12   0.0000       0.192190         5.2298
  13   0.0000       0.200331         5.4513

MULLIKEN ATOMIC CHARGES
-----------------------
   0 C :   -0.001647
   1 O :   -0.001583
   2 H :   -0.005371
   3 H :    0.000125
   4 H :   -0.000023
   5 H :    0.000001
   6 C :   -0.184057
   7 O :   -0.470332
   8 H :    0.309216
   9 H :    0.109699
  10 H :    0.132430
  11 H :    0.111541
Sum of atomic charges:    0.0000000

LOEWDIN ATOMIC CHARGES
----------------------
   0 C :   -0.001371
   1 O :   -0.013876
   2 H :   -0.047174
   3 H :   -0.000073
   4 H :   -0.000034
   5 H :   -0.000051
   6 C :   -0.329981
   7 O :   -0.052852
   8 H :    0.154496
   9 H :    0.101136
  10 H :    0.090604
  11 H :    0.099176

  Mayer bond orders larger than 0.1
B(  6-C ,  7-O ) :   0.9867 B(  6-C ,  9-H ) :   0.9728 B(  6-C , 10-H ) :   0.9796
B(  6-C , 11-H ) :   0.9688 B(  7-O ,  8-H ) :   0.9069

Dispersion correction           -0.000274994
FINAL SINGLE POINT ENERGY      -115.728815282177

DIPOLE MOMENT
-------------
                                X             Y             Z
Electronic contribution:      1.60545      -0.42303       0.92782
Nuclear contribution   :     -1.84506       0.94510      -1.40153
                        -----------------------------------------
Total Dipole Moment    :     -0.23961       0.52207      -0.47371
                        -----------------------------------------
Magnitude (a.u.)       :      0.74457
Magnitude (Debye)      :      1.89254

Rotational constants in cm-1:     4.580007     0.765316     0.746189
Rotational constants in MHz : 137305.157087 22943.604569 22370.168925

                             ****ORCA TERMINATED NORMALLY****
TOTAL RUN TIME: 0 days 0 hours 1 minutes 6 seconds 474 msec
