                         Program Version 4.1.2  - RELEASE  -
|  1> #Run DFT-D3 single point of the dimer
|  2> ! wB97X-D3 def2-TZVP TIGHTSCF CHELPG PMODEL PAL8
|  3>
|  4> %base "22-107_DFT_AB"
|  5>
|  6> %scf
|  7> MaxIter 1000
|  8> end
|  9>
| 10> * xyz 0 1
| 11>   C                      -3.235452            7.974834             -3.610997
| 12>   O                      -2.335744            9.037216             -3.968717
| 13>   H                      -2.699700            9.576640             -4.691973
| 14>   H                      -3.591304            8.059104             -2.564382
| 15>   H                      -4.201722            8.035616             -4.246307
| 16>   H                      -2.818901            6.977032             -3.763111
| 17>   C                      1.095944             8.166273             0.776603
| 18>   O                      0.517582             8.047650             -0.461068
| 19>   H                      0.706959             8.852177             -0.975110
| 20>   H                      0.550971             9.003790             1.328476
| 21>   H                      1.245504             7.247085             1.380575
| 22>   H                      2.087410             8.582038             0.714807
| 23> *
| 24>
| 25> #Run DFT-D3 single point of the molecule with dimer basis set
| 26> $new_job
| 27> %base "22-107_DFT_A"
| 28> ! wB97X-D3 def2-TZVP TIGHTSCF CHELPG PMODEL
| 29>
| 30> %scf
| 31> MaxIter 1000
| 32> end
| 33>
| 34> * xyz 0 1
| 35>   C                      -3.235452            7.974834             -3.610997
| 36>   O                      -2.335744            9.037216             -3.968717
| 37>   H                      -2.699700            9.576640             -4.691973
| 38>   H                      -3.591304            8.059104             -2.564382
| 39>   H                      -4.201722            8.035616             -4.246307
| 40>   H                      -2.818901            6.977032             -3.763111
| 41>   C                    : 1.095944             8.166273             0.776603
| 42>   O                    : 0.517582             8.047650             -0.461068
| 43>   H                    : 0.706959             8.852177             -0.975110
| 44>   H                    : 0.550971             9.003790             1.328476
| 45>   H                    : 1.245504             7.247085             1.380575
| 46>   H                    : 2.087410             8.582038             0.714807
| 47> *
| 48>
| 49> #Run DFT-D3 single point of the particle with dimer basis set
| 50> $new_job
| 51> %base "22-107_DFT_B"
| 52> ! wB97X-D3 def2-TZVP TIGHTSCF CHELPG PMODEL
| 53>
| 54> %scf
| 55> MaxIter 1000
| 56> end
| 57>
| 58> * xyz 0 1
| 59>   C                    : -3.235452            7.974834             -3.610997
| 60>   O                    : -2.335744            9.037216             -3.968717
| 61>   H                    : -2.699700            9.576640             -4.691973
| 62>   H                    : -3.591304            8.059104             -2.564382
| 63>   H                    : -4.201722            8.035616             -4.246307
| 64>   H                    : -2.818901            6.977032             -3.763111
| 65>   C                      1.095944             8.166273             0.776603
| 66>   O                      0.517582             8.047650             -0.461068
| 67>   H                      0.706959             8.852177             -0.975110
| 68>   H                      0.550971             9.003790             1.328476
| 69>   H                      1.245504             7.247085             1.380575
| 70>   H                      2.087410             8.582038             0.714807
| 71> *
| 72>
| 73>                          ****END OF INPUT****
 Total Charge           Charge          ....    0
 Multiplicity           Mult            ....    1
 Number of Electrons    NEL             ....   36
Dispersion correction           -0.000702581
FINAL SINGLE POINT ENERGY      -231.459806518265
Dispersion correction           -0.000279436
FINAL SINGLE POINT ENERGY      -115.731671442863

CARTESIAN COORDINATES (ANGSTROEM)
---------------------------------
  C     -3.235452    7.974834   -3.610997
  O     -2.335744    9.037216   -3.968717
  H     -2.699700    9.576640   -4.691973
  H     -3.591304    8.059104   -2.564382
  H     -4.201722    8.035616   -4.246307
  H     -2.818901    6.977032   -3.763111
  C      1.095944    8.166273    0.776603
  O      0.517582    8.047650   -0.461068
  H      0.706959    8.852177   -0.975110
  H      0.550971    9.003790    1.328476
  H      1.245504    7.247085    1.380575
  H      2.087410    8.582038    0.714807

 Multiplicity           Mult            ....    1
 Number of Electrons    NEL             ....   18
 Basis Dimension        Dim             ....  172

ORBITAL ENERGIES
----------------

  NO   OCC          E(Eh)            E(eV)
   0   2.0000     -19.231737      -523.3222
   1   2.0000     -10.314719      -280.6778
   2   2.0000      -1.148425       -31.2502
   3   2.0000      -0.790467       -21.5097
   4   2.0000      -0.621703       -16.9174
   5   2.0000      -0.546925       -14.8826
   6   2.0000      -0.527937       -14.3659
   7   2.0000      -0.429277       -11.6812
   8   2.0000      -0.365158        -9.9365
   9   0.0000       0.089280         2.4294
  10   0.0000       0.112005         3.0478
  11   0.0000       0.151734         4.1289
  12   0.0000       0.167484         4.5575
  13   0.0000       0.198286         5.3956

MULLIKEN ATOMIC CHARGES
-----------------------
   0 C :   -0.000473
   1 O :    0.000052
   2 H :    0.000002
   3 H :   -0.000062
   4 H :   -0.000016
   5 H :    0.000054
   6 C :   -0.170657
   7 O :   -0.466977
   8 H :    0.323229
   9 H :    0.089643
  10 H :    0.124980
  11 H :    0.100225
Sum of atomic charges:   -0.0000000

LOEWDIN ATOMIC CHARGES
----------------------
   0 C :   -0.000221
   1 O :   -0.000015
   2 H :   -0.000001
   3 H :   -0.000059
   4 H :   -0.000010
   5 H :   -0.000011
   6 C :   -0.429683
   7 O :   -0.054020
   8 H :    0.184154
   9 H :    0.099709
  10 H :    0.112186
  11 H :    0.087970

  Mayer bond orders larger than 0.1
B(  6-C ,  7-O ) :   0.9986 B(  6-C ,  9-H ) :   0.9834 B(  6-C , 10-H ) :   0.9655
B(  6-C , 11-H ) :   0.9795 B(  7-O ,  8-H ) :   0.8890

Dispersion correction           -0.000223215
FINAL SINGLE POINT ENERGY      -115.727509160792

DIPOLE MOMENT
-------------
                                X             Y             Z
Electronic contribution:     -0.86449      -0.50980      -1.66126
Nuclear contribution   :      1.24916       1.05744       1.77090
                        -----------------------------------------
Total Dipole Moment    :      0.38468       0.54764       0.10963
                        -----------------------------------------
Magnitude (a.u.)       :      0.67816
Magnitude (Debye)      :      1.72375

Rotational constants in cm-1:     4.282473     0.866295     0.827653
Rotational constants in MHz : 128385.302173 25970.884971 24812.398838

                             ****ORCA TERMINATED NORMALLY****
TOTAL RUN TIME: 0 days 0 hours 0 minutes 53 seconds 573 msec
