                         Program Version 4.1.2  - RELEASE  -
|  1> #Run DFT-D3 single point of the dimer
|  2> ! wB97X-D3 def2-TZVP TIGHTSCF CHELPG PMODEL PAL8
|  3>
|  4> %base "6-110_DFT_AB"
|  5>
|  6> %scf
|  7> MaxIter 1000
|  8> end
|  9>
| 10> * xyz 0 1
| 11>   C                      3.504074             3.083173             -2.831861
| 12>   O                      3.784711             1.868062             -3.447040
| 13>   H                      3.080860             1.253483             -3.553574
| 14>   H                      3.183347             3.778387             -3.555988
| 15>   H                      2.754322             2.961550             -2.060546
| 16>   H                      4.439116             3.440261             -2.383345
| 17>   C                      6.094091             0.726046             -5.242991
| 18>   O                      5.219906             1.376994             -6.143549
| 19>   H                      4.414912             1.679390             -5.631745
| 20>   H                      5.560661             -0.029180            -4.642918
| 21>   H                      6.926876             0.284015             -5.895944
| 22>   H                      6.557174             1.440424             -4.573561
| 23> *
| 24>
| 25> #Run DFT-D3 single point of the molecule with dimer basis set
| 26> $new_job
| 27> %base "6-110_DFT_A"
| 28> ! wB97X-D3 def2-TZVP TIGHTSCF CHELPG PMODEL
| 29>
| 30> %scf
| 31> MaxIter 1000
| 32> end
| 33>
| 34> * xyz 0 1
| 35>   C                      3.504074             3.083173             -2.831861
| 36>   O                      3.784711             1.868062             -3.447040
| 37>   H                      3.080860             1.253483             -3.553574
| 38>   H                      3.183347             3.778387             -3.555988
| 39>   H                      2.754322             2.961550             -2.060546
| 40>   H                      4.439116             3.440261             -2.383345
| 41>   C                    : 6.094091             0.726046             -5.242991
| 42>   O                    : 5.219906             1.376994             -6.143549
| 43>   H                    : 4.414912             1.679390             -5.631745
| 44>   H                    : 5.560661             -0.029180            -4.642918
| 45>   H                    : 6.926876             0.284015             -5.895944
| 46>   H                    : 6.557174             1.440424             -4.573561
| 47> *
| 48>
| 49> #Run DFT-D3 single point of the particle with dimer basis set
| 50> $new_job
| 51> %base "6-110_DFT_B"
| 52> ! wB97X-D3 def2-TZVP TIGHTSCF CHELPG PMODEL
| 53>
| 54> %scf
| 55> MaxIter 1000
| 56> end
| 57>
| 58> * xyz 0 1
| 59>   C                    : 3.504074             3.083173             -2.831861
| 60>   O                    : 3.784711             1.868062             -3.447040
| 61>   H                    : 3.080860             1.253483             -3.553574
| 62>   H                    : 3.183347             3.778387             -3.555988
| 63>   H                    : 2.754322             2.961550             -2.060546
| 64>   H                    : 4.439116             3.440261             -2.383345
| 65>   C                      6.094091             0.726046             -5.242991
| 66>   O                      5.219906             1.376994             -6.143549
| 67>   H                      4.414912             1.679390             -5.631745
| 68>   H                      5.560661             -0.029180            -4.642918
| 69>   H                      6.926876             0.284015             -5.895944
| 70>   H                      6.557174             1.440424             -4.573561
| 71> *
| 72>
| 73>                          ****END OF INPUT****
 Total Charge           Charge          ....    0
 Multiplicity           Mult            ....    1
 Number of Electrons    NEL             ....   36
Dispersion correction           -0.002005558
FINAL SINGLE POINT ENERGY      -231.472843300830
Dispersion correction           -0.000235868
FINAL SINGLE POINT ENERGY      -115.733558257237

CARTESIAN COORDINATES (ANGSTROEM)
---------------------------------
  C      3.504074    3.083173   -2.831861
  O      3.784711    1.868062   -3.447040
  H      3.080860    1.253483   -3.553574
  H      3.183347    3.778387   -3.555988
  H      2.754322    2.961550   -2.060546
  H      4.439116    3.440261   -2.383345
  C      6.094091    0.726046   -5.242991
  O      5.219906    1.376994   -6.143549
  H      4.414912    1.679390   -5.631745
  H      5.560661   -0.029180   -4.642918
  H      6.926876    0.284015   -5.895944
  H      6.557174    1.440424   -4.573561

 Multiplicity           Mult            ....    1
 Number of Electrons    NEL             ....   18
 Basis Dimension        Dim             ....  172

ORBITAL ENERGIES
----------------

  NO   OCC          E(Eh)            E(eV)
   0   2.0000     -19.232667      -523.3475
   1   2.0000     -10.317466      -280.7525
   2   2.0000      -1.128781       -30.7157
   3   2.0000      -0.786671       -21.4064
   4   2.0000      -0.607057       -16.5189
   5   2.0000      -0.542380       -14.7589
   6   2.0000      -0.518171       -14.1002
   7   2.0000      -0.432228       -11.7615
   8   2.0000      -0.371516       -10.1095
   9   0.0000       0.066225         1.8021
  10   0.0000       0.128820         3.5054
  11   0.0000       0.147379         4.0104
  12   0.0000       0.160400         4.3647
  13   0.0000       0.192278         5.2322

MULLIKEN ATOMIC CHARGES
-----------------------
   0 C :   -0.001650
   1 O :   -0.001629
   2 H :   -0.000445
   3 H :    0.000093
   4 H :   -0.000035
   5 H :   -0.000068
   6 C :   -0.168043
   7 O :   -0.476971
   8 H :    0.315743
   9 H :    0.103414
  10 H :    0.124333
  11 H :    0.105257
Sum of atomic charges:   -0.0000000

LOEWDIN ATOMIC CHARGES
----------------------
   0 C :   -0.001897
   1 O :   -0.010023
   2 H :   -0.001820
   3 H :   -0.000247
   4 H :   -0.000041
   5 H :   -0.000103
   6 C :   -0.392453
   7 O :   -0.092472
   8 H :    0.191959
   9 H :    0.095462
  10 H :    0.120963
  11 H :    0.090672

  Mayer bond orders larger than 0.1
B(  6-C ,  7-O ) :   0.9931 B(  6-C ,  9-H ) :   0.9774 B(  6-C , 10-H ) :   0.9712
B(  6-C , 11-H ) :   0.9758 B(  7-O ,  8-H ) :   0.8980

Dispersion correction           -0.000239605
FINAL SINGLE POINT ENERGY      -115.733423356725

DIPOLE MOMENT
-------------
                                X             Y             Z
Electronic contribution:     -1.03493       0.76976      -1.19972
Nuclear contribution   :      0.88014      -0.82929       1.86749
                        -----------------------------------------
Total Dipole Moment    :     -0.15479      -0.05953       0.66777
                        -----------------------------------------
Magnitude (a.u.)       :      0.68805
Magnitude (Debye)      :      1.74889

Rotational constants in cm-1:     4.052835     0.838057     0.797064
Rotational constants in MHz : 121500.937215 25124.305867 23895.371838

                             ****ORCA TERMINATED NORMALLY****
TOTAL RUN TIME: 0 days 0 hours 1 minutes 6 seconds 295 msec
