                         Program Version 4.1.2  - RELEASE  -
|  1> #Run DFT-D3 single point of the dimer
|  2> ! wB97X-D3 def2-TZVP TIGHTSCF CHELPG PMODEL PAL8
|  3>
|  4> %base "11-206_DFT_AB"
|  5>
|  6> %scf
|  7> MaxIter 1000
|  8> end
|  9>
| 10> * xyz 0 1
| 11>   C                      -10.375505           -4.960749            7.946851
| 12>   O                      -9.642178            -5.442567            9.053900
| 13>   H                      -8.691800            -5.201689            8.950636
| 14>   H                      -10.167035           -3.861458            7.836192
| 15>   H                      -10.193119           -5.459755            6.987035
| 16>   H                      -11.476513           -4.870037            8.202719
| 17>   C                      -6.377136            -5.409427            9.602485
| 18>   O                      -6.942819            -6.244277            8.593473
| 19>   H                      -6.239528            -6.315074            7.921902
| 20>   H                      -7.112668            -5.220025            10.409225
| 21>   H                      -5.434968            -5.762906            10.066727
| 22>   H                      -6.091281            -4.484647            9.137633
| 23> *
| 24>
| 25> #Run DFT-D3 single point of the molecule with dimer basis set
| 26> $new_job
| 27> %base "11-206_DFT_A"
| 28> ! wB97X-D3 def2-TZVP TIGHTSCF CHELPG PMODEL
| 29>
| 30> %scf
| 31> MaxIter 1000
| 32> end
| 33>
| 34> * xyz 0 1
| 35>   C                      -10.375505           -4.960749            7.946851
| 36>   O                      -9.642178            -5.442567            9.053900
| 37>   H                      -8.691800            -5.201689            8.950636
| 38>   H                      -10.167035           -3.861458            7.836192
| 39>   H                      -10.193119           -5.459755            6.987035
| 40>   H                      -11.476513           -4.870037            8.202719
| 41>   C                    : -6.377136            -5.409427            9.602485
| 42>   O                    : -6.942819            -6.244277            8.593473
| 43>   H                    : -6.239528            -6.315074            7.921902
| 44>   H                    : -7.112668            -5.220025            10.409225
| 45>   H                    : -5.434968            -5.762906            10.066727
| 46>   H                    : -6.091281            -4.484647            9.137633
| 47> *
| 48>
| 49> #Run DFT-D3 single point of the particle with dimer basis set
| 50> $new_job
| 51> %base "11-206_DFT_B"
| 52> ! wB97X-D3 def2-TZVP TIGHTSCF CHELPG PMODEL
| 53>
| 54> %scf
| 55> MaxIter 1000
| 56> end
| 57>
| 58> * xyz 0 1
| 59>   C                    : -10.375505           -4.960749            7.946851
| 60>   O                    : -9.642178            -5.442567            9.053900
| 61>   H                    : -8.691800            -5.201689            8.950636
| 62>   H                    : -10.167035           -3.861458            7.836192
| 63>   H                    : -10.193119           -5.459755            6.987035
| 64>   H                    : -11.476513           -4.870037            8.202719
| 65>   C                      -6.377136            -5.409427            9.602485
| 66>   O                      -6.942819            -6.244277            8.593473
| 67>   H                      -6.239528            -6.315074            7.921902
| 68>   H                      -7.112668            -5.220025            10.409225
| 69>   H                      -5.434968            -5.762906            10.066727
| 70>   H                      -6.091281            -4.484647            9.137633
| 71> *
| 72>
| 73>                          ****END OF INPUT****
 Total Charge           Charge          ....    0
 Multiplicity           Mult            ....    1
 Number of Electrons    NEL             ....   36
Dispersion correction           -0.001732490
FINAL SINGLE POINT ENERGY      -231.466889594712
Dispersion correction           -0.000260124
FINAL SINGLE POINT ENERGY      -115.731229703447

CARTESIAN COORDINATES (ANGSTROEM)
---------------------------------
  C    -10.375505   -4.960749    7.946851
  O     -9.642178   -5.442567    9.053900
  H     -8.691800   -5.201689    8.950636
  H    -10.167035   -3.861458    7.836192
  H    -10.193119   -5.459755    6.987035
  H    -11.476513   -4.870037    8.202719
  C     -6.377136   -5.409427    9.602485
  O     -6.942819   -6.244277    8.593473
  H     -6.239528   -6.315074    7.921902
  H     -7.112668   -5.220025   10.409225
  H     -5.434968   -5.762906   10.066727
  H     -6.091281   -4.484647    9.137633

 Multiplicity           Mult            ....    1
 Number of Electrons    NEL             ....   18
 Basis Dimension        Dim             ....  172

ORBITAL ENERGIES
----------------

  NO   OCC          E(Eh)            E(eV)
   0   2.0000     -19.234178      -523.3886
   1   2.0000     -10.315187      -280.6905
   2   2.0000      -1.133168       -30.8351
   3   2.0000      -0.793069       -21.5805
   4   2.0000      -0.610284       -16.6067
   5   2.0000      -0.537432       -14.6243
   6   2.0000      -0.523090       -14.2340
   7   2.0000      -0.442487       -12.0407
   8   2.0000      -0.372659       -10.1406
   9   0.0000       0.095946         2.6108
  10   0.0000       0.121178         3.2974
  11   0.0000       0.150632         4.0989
  12   0.0000       0.184454         5.0193
  13   0.0000       0.199903         5.4396

MULLIKEN ATOMIC CHARGES
-----------------------
   0 C :   -0.005213
   1 O :    0.000486
   2 H :    0.008166
   3 H :    0.000016
   4 H :   -0.000218
   5 H :   -0.000192
   6 C :   -0.185465
   7 O :   -0.467949
   8 H :    0.312456
   9 H :    0.123492
  10 H :    0.106165
  11 H :    0.108255
Sum of atomic charges:   -0.0000000

LOEWDIN ATOMIC CHARGES
----------------------
   0 C :   -0.002819
   1 O :   -0.005781
   2 H :   -0.026488
   3 H :   -0.000044
   4 H :   -0.000413
   5 H :   -0.000063
   6 C :   -0.377115
   7 O :   -0.068836
   8 H :    0.178193
   9 H :    0.115198
  10 H :    0.096478
  11 H :    0.091689

  Mayer bond orders larger than 0.1
B(  6-C ,  7-O ) :   0.9937 B(  6-C ,  9-H ) :   0.9766 B(  6-C , 10-H ) :   0.9643
B(  6-C , 11-H ) :   0.9846 B(  7-O ,  8-H ) :   0.8984

Dispersion correction           -0.000237475
FINAL SINGLE POINT ENERGY      -115.734128091451

DIPOLE MOMENT
-------------
                                X             Y             Z
Electronic contribution:     -0.90951      -1.14353      -1.18421
Nuclear contribution   :      1.57224       1.43934       1.16644
                        -----------------------------------------
Total Dipole Moment    :      0.66273       0.29581      -0.01777
                        -----------------------------------------
Magnitude (a.u.)       :      0.72597
Magnitude (Debye)      :      1.84526

Rotational constants in cm-1:     4.258157     0.824454     0.784745
Rotational constants in MHz : 127656.342938 24716.506612 23526.071070

                             ****ORCA TERMINATED NORMALLY****
TOTAL RUN TIME: 0 days 0 hours 1 minutes 9 seconds 622 msec
