                         Program Version 4.1.2  - RELEASE  -
|  1> #Run DFT-D3 single point of the dimer
|  2> ! wB97X-D3 def2-TZVP TIGHTSCF CHELPG PMODEL PAL8
|  3>
|  4> %base "6-168_DFT_AB"
|  5>
|  6> %scf
|  7> MaxIter 1000
|  8> end
|  9>
| 10> * xyz 0 1
| 11>   C                      7.921592             -9.643380            5.268875
| 12>   O                      8.729613             -8.573952            4.837167
| 13>   H                      8.174072             -7.825036            4.434077
| 14>   H                      8.433361             -10.193491           6.014222
| 15>   H                      6.942352             -9.413133            5.582032
| 16>   H                      7.760987             -10.375064           4.441845
| 17>   C                      5.586763             -5.731699            3.556566
| 18>   O                      6.439240             -6.855940            3.875305
| 19>   H                      6.470313             -7.460647            3.132939
| 20>   H                      4.635582             -6.021316            3.065610
| 21>   H                      5.302791             -4.989773            4.428867
| 22>   H                      6.078548             -5.071582            2.862421
| 23> *
| 24>
| 25> #Run DFT-D3 single point of the molecule with dimer basis set
| 26> $new_job
| 27> %base "6-168_DFT_A"
| 28> ! wB97X-D3 def2-TZVP TIGHTSCF CHELPG PMODEL
| 29>
| 30> %scf
| 31> MaxIter 1000
| 32> end
| 33>
| 34> * xyz 0 1
| 35>   C                      7.921592             -9.643380            5.268875
| 36>   O                      8.729613             -8.573952            4.837167
| 37>   H                      8.174072             -7.825036            4.434077
| 38>   H                      8.433361             -10.193491           6.014222
| 39>   H                      6.942352             -9.413133            5.582032
| 40>   H                      7.760987             -10.375064           4.441845
| 41>   C                    : 5.586763             -5.731699            3.556566
| 42>   O                    : 6.439240             -6.855940            3.875305
| 43>   H                    : 6.470313             -7.460647            3.132939
| 44>   H                    : 4.635582             -6.021316            3.065610
| 45>   H                    : 5.302791             -4.989773            4.428867
| 46>   H                    : 6.078548             -5.071582            2.862421
| 47> *
| 48>
| 49> #Run DFT-D3 single point of the particle with dimer basis set
| 50> $new_job
| 51> %base "6-168_DFT_B"
| 52> ! wB97X-D3 def2-TZVP TIGHTSCF CHELPG PMODEL
| 53>
| 54> %scf
| 55> MaxIter 1000
| 56> end
| 57>
| 58> * xyz 0 1
| 59>   C                    : 7.921592             -9.643380            5.268875
| 60>   O                    : 8.729613             -8.573952            4.837167
| 61>   H                    : 8.174072             -7.825036            4.434077
| 62>   H                    : 8.433361             -10.193491           6.014222
| 63>   H                    : 6.942352             -9.413133            5.582032
| 64>   H                    : 7.760987             -10.375064           4.441845
| 65>   C                      5.586763             -5.731699            3.556566
| 66>   O                      6.439240             -6.855940            3.875305
| 67>   H                      6.470313             -7.460647            3.132939
| 68>   H                      4.635582             -6.021316            3.065610
| 69>   H                      5.302791             -4.989773            4.428867
| 70>   H                      6.078548             -5.071582            2.862421
| 71> *
| 72>
| 73>                          ****END OF INPUT****
 Total Charge           Charge          ....    0
 Multiplicity           Mult            ....    1
 Number of Electrons    NEL             ....   36
Dispersion correction           -0.001653296
FINAL SINGLE POINT ENERGY      -231.463829976149
Dispersion correction           -0.000257863
FINAL SINGLE POINT ENERGY      -115.730344781613

CARTESIAN COORDINATES (ANGSTROEM)
---------------------------------
  C      7.921592   -9.643380    5.268875
  O      8.729613   -8.573952    4.837167
  H      8.174072   -7.825036    4.434077
  H      8.433361  -10.193491    6.014222
  H      6.942352   -9.413133    5.582032
  H      7.760987  -10.375064    4.441845
  C      5.586763   -5.731699    3.556566
  O      6.439240   -6.855940    3.875305
  H      6.470313   -7.460647    3.132939
  H      4.635582   -6.021316    3.065610
  H      5.302791   -4.989773    4.428867
  H      6.078548   -5.071582    2.862421

 Multiplicity           Mult            ....    1
 Number of Electrons    NEL             ....   18
 Basis Dimension        Dim             ....  172

ORBITAL ENERGIES
----------------

  NO   OCC          E(Eh)            E(eV)
   0   2.0000     -19.234593      -523.3999
   1   2.0000     -10.326455      -280.9971
   2   2.0000      -1.128666       -30.7126
   3   2.0000      -0.794525       -21.6201
   4   2.0000      -0.608939       -16.5701
   5   2.0000      -0.535513       -14.5720
   6   2.0000      -0.519867       -14.1463
   7   2.0000      -0.430615       -11.7176
   8   2.0000      -0.376113       -10.2346
   9   0.0000       0.093039         2.5317
  10   0.0000       0.126195         3.4339
  11   0.0000       0.145254         3.9526
  12   0.0000       0.186706         5.0805
  13   0.0000       0.198090         5.3903

MULLIKEN ATOMIC CHARGES
-----------------------
   0 C :    0.002603
   1 O :    0.001672
   2 H :   -0.014904
   3 H :   -0.000319
   4 H :   -0.004787
   5 H :   -0.000209
   6 C :   -0.188585
   7 O :   -0.462225
   8 H :    0.320804
   9 H :    0.108636
  10 H :    0.123844
  11 H :    0.113470
Sum of atomic charges:   -0.0000000

LOEWDIN ATOMIC CHARGES
----------------------
   0 C :   -0.004858
   1 O :   -0.002489
   2 H :   -0.030265
   3 H :   -0.000051
   4 H :   -0.002669
   5 H :   -0.000102
   6 C :   -0.376114
   7 O :   -0.068174
   8 H :    0.171079
   9 H :    0.097894
  10 H :    0.125260
  11 H :    0.090490

  Mayer bond orders larger than 0.1
B(  6-C ,  7-O ) :   0.9926 B(  6-C ,  9-H ) :   0.9714 B(  6-C , 10-H ) :   0.9701
B(  6-C , 11-H ) :   0.9749 B(  7-O ,  8-H ) :   0.8912

Dispersion correction           -0.000283681
FINAL SINGLE POINT ENERGY      -115.727304643624

DIPOLE MOMENT
-------------
                                X             Y             Z
Electronic contribution:      1.13341      -1.49355       0.56135
Nuclear contribution   :     -1.47614       1.59292      -1.19850
                        -----------------------------------------
Total Dipole Moment    :     -0.34272       0.09936      -0.63716
                        -----------------------------------------
Magnitude (a.u.)       :      0.73027
Magnitude (Debye)      :      1.85621

Rotational constants in cm-1:     4.334745     0.782761     0.750699
Rotational constants in MHz : 129952.392606 23466.578391 22505.385274

                             ****ORCA TERMINATED NORMALLY****
TOTAL RUN TIME: 0 days 0 hours 1 minutes 4 seconds 774 msec
