                         Program Version 4.1.2  - RELEASE  -
|  1> #Run DFT-D3 single point of the dimer
|  2> ! wB97X-D3 def2-TZVP TIGHTSCF CHELPG PMODEL PAL8
|  3>
|  4> %base "11-83_DFT_AB"
|  5>
|  6> %scf
|  7> MaxIter 1000
|  8> end
|  9>
| 10> * xyz 0 1
| 11>   C                      10.085171            9.090846             -6.497490
| 12>   O                      9.870105             7.743981             -6.738684
| 13>   H                      9.596428             7.627402             -7.668537
| 14>   H                      10.240051            9.593562             -7.467117
| 15>   H                      9.364494             9.634166             -5.908815
| 16>   H                      11.032180            9.300689             -5.983905
| 17>   C                      5.805939             10.294651            -6.906468
| 18>   O                      5.983511             11.721538            -7.025334
| 19>   H                      5.096172             12.079015            -7.135066
| 20>   H                      5.223192             9.968730             -7.767834
| 21>   H                      6.785383             9.801651             -6.954070
| 22>   H                      5.389869             9.935072             -5.948628
| 23> *
| 24>
| 25> #Run DFT-D3 single point of the molecule with dimer basis set
| 26> $new_job
| 27> %base "11-83_DFT_A"
| 28> ! wB97X-D3 def2-TZVP TIGHTSCF CHELPG PMODEL
| 29>
| 30> %scf
| 31> MaxIter 1000
| 32> end
| 33>
| 34> * xyz 0 1
| 35>   C                      10.085171            9.090846             -6.497490
| 36>   O                      9.870105             7.743981             -6.738684
| 37>   H                      9.596428             7.627402             -7.668537
| 38>   H                      10.240051            9.593562             -7.467117
| 39>   H                      9.364494             9.634166             -5.908815
| 40>   H                      11.032180            9.300689             -5.983905
| 41>   C                    : 5.805939             10.294651            -6.906468
| 42>   O                    : 5.983511             11.721538            -7.025334
| 43>   H                    : 5.096172             12.079015            -7.135066
| 44>   H                    : 5.223192             9.968730             -7.767834
| 45>   H                    : 6.785383             9.801651             -6.954070
| 46>   H                    : 5.389869             9.935072             -5.948628
| 47> *
| 48>
| 49> #Run DFT-D3 single point of the particle with dimer basis set
| 50> $new_job
| 51> %base "11-83_DFT_B"
| 52> ! wB97X-D3 def2-TZVP TIGHTSCF CHELPG PMODEL
| 53>
| 54> %scf
| 55> MaxIter 1000
| 56> end
| 57>
| 58> * xyz 0 1
| 59>   C                    : 10.085171            9.090846             -6.497490
| 60>   O                    : 9.870105             7.743981             -6.738684
| 61>   H                    : 9.596428             7.627402             -7.668537
| 62>   H                    : 10.240051            9.593562             -7.467117
| 63>   H                    : 9.364494             9.634166             -5.908815
| 64>   H                    : 11.032180            9.300689             -5.983905
| 65>   C                      5.805939             10.294651            -6.906468
| 66>   O                      5.983511             11.721538            -7.025334
| 67>   H                      5.096172             12.079015            -7.135066
| 68>   H                      5.223192             9.968730             -7.767834
| 69>   H                      6.785383             9.801651             -6.954070
| 70>   H                      5.389869             9.935072             -5.948628
| 71> *
| 72>
| 73>                          ****END OF INPUT****
 Total Charge           Charge          ....    0
 Multiplicity           Mult            ....    1
 Number of Electrons    NEL             ....   36
Dispersion correction           -0.001168753
FINAL SINGLE POINT ENERGY      -231.466716095144
Dispersion correction           -0.000246814
FINAL SINGLE POINT ENERGY      -115.731061361153

CARTESIAN COORDINATES (ANGSTROEM)
---------------------------------
  C     10.085171    9.090846   -6.497490
  O      9.870105    7.743981   -6.738684
  H      9.596428    7.627402   -7.668537
  H     10.240051    9.593562   -7.467117
  H      9.364494    9.634166   -5.908815
  H     11.032180    9.300689   -5.983905
  C      5.805939   10.294651   -6.906468
  O      5.983511   11.721538   -7.025334
  H      5.096172   12.079015   -7.135066
  H      5.223192    9.968730   -7.767834
  H      6.785383    9.801651   -6.954070
  H      5.389869    9.935072   -5.948628

 Multiplicity           Mult            ....    1
 Number of Electrons    NEL             ....   18
 Basis Dimension        Dim             ....  172

ORBITAL ENERGIES
----------------

  NO   OCC          E(Eh)            E(eV)
   0   2.0000     -19.231309      -523.3105
   1   2.0000     -10.316415      -280.7239
   2   2.0000      -1.128812       -30.7165
   3   2.0000      -0.794709       -21.6251
   4   2.0000      -0.602056       -16.3828
   5   2.0000      -0.545439       -14.8422
   6   2.0000      -0.520552       -14.1649
   7   2.0000      -0.434912       -11.8346
   8   2.0000      -0.376303       -10.2397
   9   0.0000       0.087252         2.3742
  10   0.0000       0.117280         3.1913
  11   0.0000       0.153235         4.1697
  12   0.0000       0.167464         4.5569
  13   0.0000       0.188374         5.1259

MULLIKEN ATOMIC CHARGES
-----------------------
   0 C :    0.000018
   1 O :   -0.000095
   2 H :   -0.000105
   3 H :   -0.000145
   4 H :    0.000958
   5 H :    0.000065
   6 C :   -0.177289
   7 O :   -0.471761
   8 H :    0.313462
   9 H :    0.112127
  10 H :    0.120424
  11 H :    0.102341
Sum of atomic charges:    0.0000000

LOEWDIN ATOMIC CHARGES
----------------------
   0 C :   -0.001853
   1 O :   -0.000027
   2 H :   -0.000099
   3 H :   -0.000089
   4 H :   -0.001019
   5 H :   -0.000013
   6 C :   -0.370463
   7 O :   -0.098110
   8 H :    0.168424
   9 H :    0.096938
  10 H :    0.109876
  11 H :    0.096436

  Mayer bond orders larger than 0.1
B(  6-C ,  7-O ) :   1.0076 B(  6-C ,  9-H ) :   0.9846 B(  6-C , 10-H ) :   0.9747
B(  6-C , 11-H ) :   0.9675 B(  7-O ,  8-H ) :   0.9021

Dispersion correction           -0.000251328
FINAL SINGLE POINT ENERGY      -115.734671917234

DIPOLE MOMENT
-------------
                                X             Y             Z
Electronic contribution:      0.32199       1.80366      -0.10568
Nuclear contribution   :     -0.92906      -2.16650       0.07453
                        -----------------------------------------
Total Dipole Moment    :     -0.60707      -0.36285      -0.03115
                        -----------------------------------------
Magnitude (a.u.)       :      0.70793
Magnitude (Debye)      :      1.79941

Rotational constants in cm-1:     4.265376     0.803355     0.778487
Rotational constants in MHz : 127872.768420 24083.976668 23338.454578

                             ****ORCA TERMINATED NORMALLY****
TOTAL RUN TIME: 0 days 0 hours 1 minutes 12 seconds 179 msec
