                         Program Version 4.1.2  - RELEASE  -
|  1> #Run DFT-D3 single point of the dimer
|  2> ! wB97X-D3 def2-TZVP TIGHTSCF CHELPG PMODEL PAL8
|  3>
|  4> %base "12-55_DFT_AB"
|  5>
|  6> %scf
|  7> MaxIter 1000
|  8> end
|  9>
| 10> * xyz 0 1
| 11>   C                      1.228255             8.850175             -3.515345
| 12>   O                      1.191600             8.715200             -2.081027
| 13>   H                      0.242599             8.844409             -1.860280
| 14>   H                      1.453714             9.811640             -3.993332
| 15>   H                      1.787758             7.990946             -3.923253
| 16>   H                      0.282204             8.617246             -3.914783
| 17>   C                      0.087920             11.308963            0.649486
| 18>   O                      0.017580             10.819536            1.936204
| 19>   H                      -0.128678            9.860366             1.843433
| 20>   H                      1.174347             11.138090            0.340180
| 21>   H                      -0.565153            10.669549            0.033992
| 22>   H                      -0.259076            12.386729            0.732022
| 23> *
| 24>
| 25> #Run DFT-D3 single point of the molecule with dimer basis set
| 26> $new_job
| 27> %base "12-55_DFT_A"
| 28> ! wB97X-D3 def2-TZVP TIGHTSCF CHELPG PMODEL
| 29>
| 30> %scf
| 31> MaxIter 1000
| 32> end
| 33>
| 34> * xyz 0 1
| 35>   C                      1.228255             8.850175             -3.515345
| 36>   O                      1.191600             8.715200             -2.081027
| 37>   H                      0.242599             8.844409             -1.860280
| 38>   H                      1.453714             9.811640             -3.993332
| 39>   H                      1.787758             7.990946             -3.923253
| 40>   H                      0.282204             8.617246             -3.914783
| 41>   C                    : 0.087920             11.308963            0.649486
| 42>   O                    : 0.017580             10.819536            1.936204
| 43>   H                    : -0.128678            9.860366             1.843433
| 44>   H                    : 1.174347             11.138090            0.340180
| 45>   H                    : -0.565153            10.669549            0.033992
| 46>   H                    : -0.259076            12.386729            0.732022
| 47> *
| 48>
| 49> #Run DFT-D3 single point of the particle with dimer basis set
| 50> $new_job
| 51> %base "12-55_DFT_B"
| 52> ! wB97X-D3 def2-TZVP TIGHTSCF CHELPG PMODEL
| 53>
| 54> %scf
| 55> MaxIter 1000
| 56> end
| 57>
| 58> * xyz 0 1
| 59>   C                    : 1.228255             8.850175             -3.515345
| 60>   O                    : 1.191600             8.715200             -2.081027
| 61>   H                    : 0.242599             8.844409             -1.860280
| 62>   H                    : 1.453714             9.811640             -3.993332
| 63>   H                    : 1.787758             7.990946             -3.923253
| 64>   H                    : 0.282204             8.617246             -3.914783
| 65>   C                      0.087920             11.308963            0.649486
| 66>   O                      0.017580             10.819536            1.936204
| 67>   H                      -0.128678            9.860366             1.843433
| 68>   H                      1.174347             11.138090            0.340180
| 69>   H                      -0.565153            10.669549            0.033992
| 70>   H                      -0.259076            12.386729            0.732022
| 71> *
| 72>
| 73>                          ****END OF INPUT****
 Total Charge           Charge          ....    0
 Multiplicity           Mult            ....    1
 Number of Electrons    NEL             ....   36
Dispersion correction           -0.001206120
FINAL SINGLE POINT ENERGY      -231.452787103228
Dispersion correction           -0.000258969
FINAL SINGLE POINT ENERGY      -115.726082278680

CARTESIAN COORDINATES (ANGSTROEM)
---------------------------------
  C      1.228255    8.850175   -3.515345
  O      1.191600    8.715200   -2.081027
  H      0.242599    8.844409   -1.860280
  H      1.453714    9.811640   -3.993332
  H      1.787758    7.990946   -3.923253
  H      0.282204    8.617246   -3.914783
  C      0.087920   11.308963    0.649486
  O      0.017580   10.819536    1.936204
  H     -0.128678    9.860366    1.843433
  H      1.174347   11.138090    0.340180
  H     -0.565153   10.669549    0.033992
  H     -0.259076   12.386729    0.732022

 Multiplicity           Mult            ....    1
 Number of Electrons    NEL             ....   18
 Basis Dimension        Dim             ....  172

ORBITAL ENERGIES
----------------

  NO   OCC          E(Eh)            E(eV)
   0   2.0000     -19.225159      -523.1432
   1   2.0000     -10.320180      -280.8264
   2   2.0000      -1.146126       -31.1877
   3   2.0000      -0.779768       -21.2186
   4   2.0000      -0.614987       -16.7347
   5   2.0000      -0.546680       -14.8759
   6   2.0000      -0.522477       -14.2173
   7   2.0000      -0.431479       -11.7411
   8   2.0000      -0.363960        -9.9039
   9   0.0000       0.079249         2.1565
  10   0.0000       0.108512         2.9528
  11   0.0000       0.153813         4.1855
  12   0.0000       0.171358         4.6629
  13   0.0000       0.187430         5.1002

MULLIKEN ATOMIC CHARGES
-----------------------
   0 C :   -0.000075
   1 O :    0.000064
   2 H :   -0.000686
   3 H :   -0.000009
   4 H :   -0.000002
   5 H :    0.000003
   6 C :   -0.152445
   7 O :   -0.464729
   8 H :    0.312823
   9 H :    0.093891
  10 H :    0.092962
  11 H :    0.118203
Sum of atomic charges:    0.0000000

LOEWDIN ATOMIC CHARGES
----------------------
   0 C :   -0.000143
   1 O :   -0.000453
   2 H :   -0.001872
   3 H :   -0.000010
   4 H :   -0.000003
   5 H :   -0.000002
   6 C :   -0.419712
   7 O :   -0.069292
   8 H :    0.178676
   9 H :    0.102649
  10 H :    0.093480
  11 H :    0.116681

  Mayer bond orders larger than 0.1
B(  6-C ,  7-O ) :   0.9945 B(  6-C ,  9-H ) :   0.9766 B(  6-C , 10-H ) :   0.9887
B(  6-C , 11-H ) :   0.9680 B(  7-O ,  8-H ) :   0.9002

Dispersion correction           -0.000202338
FINAL SINGLE POINT ENERGY      -115.726212478961

DIPOLE MOMENT
-------------
                                X             Y             Z
Electronic contribution:     -0.12404      -0.38309       1.60583
Nuclear contribution   :      0.02453      -0.05466      -2.11323
                        -----------------------------------------
Total Dipole Moment    :     -0.09951      -0.43775      -0.50741
                        -----------------------------------------
Magnitude (a.u.)       :      0.67748
Magnitude (Debye)      :      1.72203

Rotational constants in cm-1:     3.842393     0.890119     0.851332
Rotational constants in MHz : 115192.047713 26685.103860 25522.295285

                             ****ORCA TERMINATED NORMALLY****
TOTAL RUN TIME: 0 days 0 hours 0 minutes 57 seconds 832 msec
