                         Program Version 4.1.2  - RELEASE  -
|  1> #Run DFT-D3 single point of the dimer
|  2> ! wB97X-D3 def2-TZVP TIGHTSCF CHELPG PMODEL PAL8
|  3>
|  4> %base "3-186_DFT_AB"
|  5>
|  6> %scf
|  7> MaxIter 1000
|  8> end
|  9>
| 10> * xyz 0 1
| 11>   C                      -10.413466           -10.723663           -3.856437
| 12>   O                      -10.827826           -10.717090           -5.250353
| 13>   H                      -10.582442           -11.441737           -5.836432
| 14>   H                      -9.620947            -10.008269           -3.726633
| 15>   H                      -11.212043           -10.359949           -3.189746
| 16>   H                      -10.039913           -11.709414           -3.515665
| 17>   C                      -10.091758           -10.632556           -9.451949
| 18>   O                      -10.887942           -9.691486            -8.734865
| 19>   H                      -11.145463           -9.075969            -9.356702
| 20>   H                      -10.715024           -11.386902           -9.858820
| 21>   H                      -9.587994            -10.107607           -10.312989
| 22>   H                      -9.283258            -11.077656           -8.851645
| 23> *
| 24>
| 25> #Run DFT-D3 single point of the molecule with dimer basis set
| 26> $new_job
| 27> %base "3-186_DFT_A"
| 28> ! wB97X-D3 def2-TZVP TIGHTSCF CHELPG PMODEL
| 29>
| 30> %scf
| 31> MaxIter 1000
| 32> end
| 33>
| 34> * xyz 0 1
| 35>   C                      -10.413466           -10.723663           -3.856437
| 36>   O                      -10.827826           -10.717090           -5.250353
| 37>   H                      -10.582442           -11.441737           -5.836432
| 38>   H                      -9.620947            -10.008269           -3.726633
| 39>   H                      -11.212043           -10.359949           -3.189746
| 40>   H                      -10.039913           -11.709414           -3.515665
| 41>   C                    : -10.091758           -10.632556           -9.451949
| 42>   O                    : -10.887942           -9.691486            -8.734865
| 43>   H                    : -11.145463           -9.075969            -9.356702
| 44>   H                    : -10.715024           -11.386902           -9.858820
| 45>   H                    : -9.587994            -10.107607           -10.312989
| 46>   H                    : -9.283258            -11.077656           -8.851645
| 47> *
| 48>
| 49> #Run DFT-D3 single point of the particle with dimer basis set
| 50> $new_job
| 51> %base "3-186_DFT_B"
| 52> ! wB97X-D3 def2-TZVP TIGHTSCF CHELPG PMODEL
| 53>
| 54> %scf
| 55> MaxIter 1000
| 56> end
| 57>
| 58> * xyz 0 1
| 59>   C                    : -10.413466           -10.723663           -3.856437
| 60>   O                    : -10.827826           -10.717090           -5.250353
| 61>   H                    : -10.582442           -11.441737           -5.836432
| 62>   H                    : -9.620947            -10.008269           -3.726633
| 63>   H                    : -11.212043           -10.359949           -3.189746
| 64>   H                    : -10.039913           -11.709414           -3.515665
| 65>   C                      -10.091758           -10.632556           -9.451949
| 66>   O                      -10.887942           -9.691486            -8.734865
| 67>   H                      -11.145463           -9.075969            -9.356702
| 68>   H                      -10.715024           -11.386902           -9.858820
| 69>   H                      -9.587994            -10.107607           -10.312989
| 70>   H                      -9.283258            -11.077656           -8.851645
| 71> *
| 72>
| 73>                          ****END OF INPUT****
 Total Charge           Charge          ....    0
 Multiplicity           Mult            ....    1
 Number of Electrons    NEL             ....   36
Dispersion correction           -0.001094456
FINAL SINGLE POINT ENERGY      -231.459761603308
Dispersion correction           -0.000291889
FINAL SINGLE POINT ENERGY      -115.729826347750

CARTESIAN COORDINATES (ANGSTROEM)
---------------------------------
  C    -10.413466  -10.723663   -3.856437
  O    -10.827826  -10.717090   -5.250353
  H    -10.582442  -11.441737   -5.836432
  H     -9.620947  -10.008269   -3.726633
  H    -11.212043  -10.359949   -3.189746
  H    -10.039913  -11.709414   -3.515665
  C    -10.091758  -10.632556   -9.451949
  O    -10.887942   -9.691486   -8.734865
  H    -11.145463   -9.075969   -9.356702
  H    -10.715024  -11.386902   -9.858820
  H     -9.587994  -10.107607  -10.312989
  H     -9.283258  -11.077656   -8.851645

 Multiplicity           Mult            ....    1
 Number of Electrons    NEL             ....   18
 Basis Dimension        Dim             ....  172

ORBITAL ENERGIES
----------------

  NO   OCC          E(Eh)            E(eV)
   0   2.0000     -19.225284      -523.1466
   1   2.0000     -10.315376      -280.6956
   2   2.0000      -1.144541       -31.1445
   3   2.0000      -0.798384       -21.7251
   4   2.0000      -0.612321       -16.6621
   5   2.0000      -0.547159       -14.8890
   6   2.0000      -0.527551       -14.3554
   7   2.0000      -0.434836       -11.8325
   8   2.0000      -0.376665       -10.2496
   9   0.0000       0.094395         2.5686
  10   0.0000       0.116729         3.1764
  11   0.0000       0.155507         4.2316
  12   0.0000       0.171427         4.6648
  13   0.0000       0.199596         5.4313

MULLIKEN ATOMIC CHARGES
-----------------------
   0 C :   -0.000162
   1 O :   -0.000660
   2 H :   -0.000333
   3 H :    0.000004
   4 H :    0.000009
   5 H :    0.000003
   6 C :   -0.174266
   7 O :   -0.459944
   8 H :    0.304358
   9 H :    0.111203
  10 H :    0.098927
  11 H :    0.120861
Sum of atomic charges:   -0.0000000

LOEWDIN ATOMIC CHARGES
----------------------
   0 C :   -0.000065
   1 O :   -0.000828
   2 H :   -0.000683
   3 H :   -0.000003
   4 H :   -0.000001
   5 H :   -0.000002
   6 C :   -0.371412
   7 O :   -0.062404
   8 H :    0.136666
   9 H :    0.088570
  10 H :    0.102591
  11 H :    0.107570

  Mayer bond orders larger than 0.1
B(  6-C ,  7-O ) :   0.9962 B(  6-C ,  9-H ) :   0.9744 B(  6-C , 10-H ) :   0.9866
B(  6-C , 11-H ) :   0.9717 B(  7-O ,  8-H ) :   0.9137

Dispersion correction           -0.000230347
FINAL SINGLE POINT ENERGY      -115.731391851517

DIPOLE MOMENT
-------------
                                X             Y             Z
Electronic contribution:     -1.02746       1.05485       1.10593
Nuclear contribution   :      1.18704      -1.03338      -1.80748
                        -----------------------------------------
Total Dipole Moment    :      0.15958       0.02147      -0.70155
                        -----------------------------------------
Magnitude (a.u.)       :      0.71979
Magnitude (Debye)      :      1.82957

Rotational constants in cm-1:     4.336827     0.825163     0.796350
Rotational constants in MHz : 130014.797369 24737.772326 23873.985415

                             ****ORCA TERMINATED NORMALLY****
TOTAL RUN TIME: 0 days 0 hours 5 minutes 53 seconds 814 msec
