                         Program Version 4.1.2  - RELEASE  -
|  1> #Run DFT-D3 single point of the dimer
|  2> ! wB97X-D3 def2-TZVP TIGHTSCF CHELPG PMODEL PAL8
|  3>
|  4> %base "19-41_DFT_AB"
|  5>
|  6> %scf
|  7> MaxIter 1000
|  8> end
|  9>
| 10> * xyz 0 1
| 11>   C                      7.257563             6.735818             4.442851
| 12>   O                      8.386543             7.556154             4.548185
| 13>   H                      9.044606             7.039462             5.018656
| 14>   H                      7.278685             6.428361             3.430371
| 15>   H                      7.463774             5.931356             5.183014
| 16>   H                      6.305239             7.244127             4.579032
| 17>   C                      4.982957             4.001329             5.891778
| 18>   O                      4.613225             3.537500             4.583148
| 19>   H                      5.346133             3.845427             3.967900
| 20>   H                      4.870589             3.154463             6.600303
| 21>   H                      6.029761             4.384582             5.912499
| 22>   H                      4.309728             4.826055             6.124172
| 23> *
| 24>
| 25> #Run DFT-D3 single point of the molecule with dimer basis set
| 26> $new_job
| 27> %base "19-41_DFT_A"
| 28> ! wB97X-D3 def2-TZVP TIGHTSCF CHELPG PMODEL
| 29>
| 30> %scf
| 31> MaxIter 1000
| 32> end
| 33>
| 34> * xyz 0 1
| 35>   C                      7.257563             6.735818             4.442851
| 36>   O                      8.386543             7.556154             4.548185
| 37>   H                      9.044606             7.039462             5.018656
| 38>   H                      7.278685             6.428361             3.430371
| 39>   H                      7.463774             5.931356             5.183014
| 40>   H                      6.305239             7.244127             4.579032
| 41>   C                    : 4.982957             4.001329             5.891778
| 42>   O                    : 4.613225             3.537500             4.583148
| 43>   H                    : 5.346133             3.845427             3.967900
| 44>   H                    : 4.870589             3.154463             6.600303
| 45>   H                    : 6.029761             4.384582             5.912499
| 46>   H                    : 4.309728             4.826055             6.124172
| 47> *
| 48>
| 49> #Run DFT-D3 single point of the particle with dimer basis set
| 50> $new_job
| 51> %base "19-41_DFT_B"
| 52> ! wB97X-D3 def2-TZVP TIGHTSCF CHELPG PMODEL
| 53>
| 54> %scf
| 55> MaxIter 1000
| 56> end
| 57>
| 58> * xyz 0 1
| 59>   C                    : 7.257563             6.735818             4.442851
| 60>   O                    : 8.386543             7.556154             4.548185
| 61>   H                    : 9.044606             7.039462             5.018656
| 62>   H                    : 7.278685             6.428361             3.430371
| 63>   H                    : 7.463774             5.931356             5.183014
| 64>   H                    : 6.305239             7.244127             4.579032
| 65>   C                      4.982957             4.001329             5.891778
| 66>   O                      4.613225             3.537500             4.583148
| 67>   H                      5.346133             3.845427             3.967900
| 68>   H                      4.870589             3.154463             6.600303
| 69>   H                      6.029761             4.384582             5.912499
| 70>   H                      4.309728             4.826055             6.124172
| 71> *
| 72>
| 73>                          ****END OF INPUT****
 Total Charge           Charge          ....    0
 Multiplicity           Mult            ....    1
 Number of Electrons    NEL             ....   36
Dispersion correction           -0.001630502
FINAL SINGLE POINT ENERGY      -231.459092327244
Dispersion correction           -0.000206596
FINAL SINGLE POINT ENERGY      -115.726510453535

CARTESIAN COORDINATES (ANGSTROEM)
---------------------------------
  C      7.257563    6.735818    4.442851
  O      8.386543    7.556154    4.548185
  H      9.044606    7.039462    5.018656
  H      7.278685    6.428361    3.430371
  H      7.463774    5.931356    5.183014
  H      6.305239    7.244127    4.579032
  C      4.982957    4.001329    5.891778
  O      4.613225    3.537500    4.583148
  H      5.346133    3.845427    3.967900
  H      4.870589    3.154463    6.600303
  H      6.029761    4.384582    5.912499
  H      4.309728    4.826055    6.124172

 Multiplicity           Mult            ....    1
 Number of Electrons    NEL             ....   18
 Basis Dimension        Dim             ....  172

ORBITAL ENERGIES
----------------

  NO   OCC          E(Eh)            E(eV)
   0   2.0000     -19.231181      -523.3070
   1   2.0000     -10.317232      -280.7461
   2   2.0000      -1.121223       -30.5100
   3   2.0000      -0.786943       -21.4138
   4   2.0000      -0.600483       -16.3400
   5   2.0000      -0.541891       -14.7456
   6   2.0000      -0.516569       -14.0566
   7   2.0000      -0.435451       -11.8492
   8   2.0000      -0.370788       -10.0896
   9   0.0000       0.070260         1.9119
  10   0.0000       0.121227         3.2987
  11   0.0000       0.151446         4.1211
  12   0.0000       0.164380         4.4730
  13   0.0000       0.185603         5.0505

MULLIKEN ATOMIC CHARGES
-----------------------
   0 C :   -0.000318
   1 O :    0.000038
   2 H :   -0.000002
   3 H :    0.000028
   4 H :    0.000053
   5 H :   -0.000191
   6 C :   -0.170573
   7 O :   -0.479364
   8 H :    0.316622
   9 H :    0.119008
  10 H :    0.101969
  11 H :    0.112729
Sum of atomic charges:   -0.0000000

LOEWDIN ATOMIC CHARGES
----------------------
   0 C :   -0.004837
   1 O :   -0.000030
   2 H :   -0.000006
   3 H :   -0.000220
   4 H :   -0.005776
   5 H :   -0.000260
   6 C :   -0.372058
   7 O :   -0.117850
   8 H :    0.192295
   9 H :    0.106247
  10 H :    0.103353
  11 H :    0.099141

  Mayer bond orders larger than 0.1
B(  6-C ,  7-O ) :   0.9969 B(  6-C ,  9-H ) :   0.9726 B(  6-C , 10-H ) :   0.9825
B(  6-C , 11-H ) :   0.9787 B(  7-O ,  8-H ) :   0.8987

Dispersion correction           -0.000248283
FINAL SINGLE POINT ENERGY      -115.732309501591

DIPOLE MOMENT
-------------
                                X             Y             Z
Electronic contribution:     -0.58815      -0.65207      -1.51779
Nuclear contribution   :      1.20184       1.03388       1.65369
                        -----------------------------------------
Total Dipole Moment    :      0.61369       0.38181       0.13590
                        -----------------------------------------
Magnitude (a.u.)       :      0.73543
Magnitude (Debye)      :      1.86932

Rotational constants in cm-1:     4.035995     0.817668     0.785006
Rotational constants in MHz : 120996.095808 24513.063343 23533.874151

                             ****ORCA TERMINATED NORMALLY****
TOTAL RUN TIME: 0 days 0 hours 0 minutes 42 seconds 978 msec
