                         Program Version 4.1.2  - RELEASE  -
|  1> #Run DFT-D3 single point of the dimer
|  2> ! wB97X-D3 def2-TZVP TIGHTSCF CHELPG PMODEL PAL8
|  3>
|  4> %base "14-180_DFT_AB"
|  5>
|  6> %scf
|  7> MaxIter 1000
|  8> end
|  9>
| 10> * xyz 0 1
| 11>   C                      7.306338             6.109725             -4.002123
| 12>   O                      8.248962             6.270038             -5.051369
| 13>   H                      8.749689             7.071986             -4.909805
| 14>   H                      7.643220             6.493225             -3.029229
| 15>   H                      6.357978             6.650363             -4.207706
| 16>   H                      7.229977             5.031350             -3.752700
| 17>   C                      9.928184             8.260720             -2.586835
| 18>   O                      9.843440             8.370878             -3.989632
| 19>   H                      9.436629             9.202394             -4.141557
| 20>   H                      10.132171            7.206825             -2.249609
| 21>   H                      10.760448            8.888493             -2.195302
| 22>   H                      8.979033             8.624816             -2.069371
| 23> *
| 24>
| 25> #Run DFT-D3 single point of the molecule with dimer basis set
| 26> $new_job
| 27> %base "14-180_DFT_A"
| 28> ! wB97X-D3 def2-TZVP TIGHTSCF CHELPG PMODEL
| 29>
| 30> %scf
| 31> MaxIter 1000
| 32> end
| 33>
| 34> * xyz 0 1
| 35>   C                      7.306338             6.109725             -4.002123
| 36>   O                      8.248962             6.270038             -5.051369
| 37>   H                      8.749689             7.071986             -4.909805
| 38>   H                      7.643220             6.493225             -3.029229
| 39>   H                      6.357978             6.650363             -4.207706
| 40>   H                      7.229977             5.031350             -3.752700
| 41>   C                    : 9.928184             8.260720             -2.586835
| 42>   O                    : 9.843440             8.370878             -3.989632
| 43>   H                    : 9.436629             9.202394             -4.141557
| 44>   H                    : 10.132171            7.206825             -2.249609
| 45>   H                    : 10.760448            8.888493             -2.195302
| 46>   H                    : 8.979033             8.624816             -2.069371
| 47> *
| 48>
| 49> #Run DFT-D3 single point of the particle with dimer basis set
| 50> $new_job
| 51> %base "14-180_DFT_B"
| 52> ! wB97X-D3 def2-TZVP TIGHTSCF CHELPG PMODEL
| 53>
| 54> %scf
| 55> MaxIter 1000
| 56> end
| 57>
| 58> * xyz 0 1
| 59>   C                    : 7.306338             6.109725             -4.002123
| 60>   O                    : 8.248962             6.270038             -5.051369
| 61>   H                    : 8.749689             7.071986             -4.909805
| 62>   H                    : 7.643220             6.493225             -3.029229
| 63>   H                    : 6.357978             6.650363             -4.207706
| 64>   H                    : 7.229977             5.031350             -3.752700
| 65>   C                      9.928184             8.260720             -2.586835
| 66>   O                      9.843440             8.370878             -3.989632
| 67>   H                      9.436629             9.202394             -4.141557
| 68>   H                      10.132171            7.206825             -2.249609
| 69>   H                      10.760448            8.888493             -2.195302
| 70>   H                      8.979033             8.624816             -2.069371
| 71> *
| 72>
| 73>                          ****END OF INPUT****
 Total Charge           Charge          ....    0
 Multiplicity           Mult            ....    1
 Number of Electrons    NEL             ....   36
Dispersion correction           -0.002246311
FINAL SINGLE POINT ENERGY      -231.474624471186
Dispersion correction           -0.000259826
FINAL SINGLE POINT ENERGY      -115.733204601429

CARTESIAN COORDINATES (ANGSTROEM)
---------------------------------
  C      7.306338    6.109725   -4.002123
  O      8.248962    6.270038   -5.051369
  H      8.749689    7.071986   -4.909805
  H      7.643220    6.493225   -3.029229
  H      6.357978    6.650363   -4.207706
  H      7.229977    5.031350   -3.752700
  C      9.928184    8.260720   -2.586835
  O      9.843440    8.370878   -3.989632
  H      9.436629    9.202394   -4.141557
  H     10.132171    7.206825   -2.249609
  H     10.760448    8.888493   -2.195302
  H      8.979033    8.624816   -2.069371

 Multiplicity           Mult            ....    1
 Number of Electrons    NEL             ....   18
 Basis Dimension        Dim             ....  172

ORBITAL ENERGIES
----------------

  NO   OCC          E(Eh)            E(eV)
   0   2.0000     -19.232685      -523.3480
   1   2.0000     -10.324127      -280.9338
   2   2.0000      -1.146546       -31.1991
   3   2.0000      -0.789396       -21.4806
   4   2.0000      -0.613826       -16.7031
   5   2.0000      -0.536962       -14.6115
   6   2.0000      -0.528748       -14.3880
   7   2.0000      -0.437200       -11.8968
   8   2.0000      -0.374071       -10.1790
   9   0.0000       0.092863         2.5269
  10   0.0000       0.129287         3.5181
  11   0.0000       0.149322         4.0633
  12   0.0000       0.181580         4.9410
  13   0.0000       0.198561         5.4031

MULLIKEN ATOMIC CHARGES
-----------------------
   0 C :   -0.003795
   1 O :    0.001758
   2 H :   -0.010377
   3 H :    0.000619
   4 H :    0.000138
   5 H :   -0.000253
   6 C :   -0.184160
   7 O :   -0.452053
   8 H :    0.312665
   9 H :    0.122524
  10 H :    0.108979
  11 H :    0.103955
Sum of atomic charges:   -0.0000000

LOEWDIN ATOMIC CHARGES
----------------------
   0 C :   -0.006083
   1 O :   -0.006186
   2 H :   -0.045500
   3 H :   -0.003263
   4 H :   -0.000119
   5 H :   -0.000093
   6 C :   -0.397843
   7 O :   -0.015299
   8 H :    0.159284
   9 H :    0.114378
  10 H :    0.098187
  11 H :    0.102538

  Mayer bond orders larger than 0.1
B(  6-C ,  7-O ) :   0.9812 B(  6-C ,  9-H ) :   0.9745 B(  6-C , 10-H ) :   0.9685
B(  6-C , 11-H ) :   0.9781 B(  7-O ,  8-H ) :   0.9025

Dispersion correction           -0.000243760
FINAL SINGLE POINT ENERGY      -115.734162911843

DIPOLE MOMENT
-------------
                                X             Y             Z
Electronic contribution:     -0.04105      -0.02921      -1.92593
Nuclear contribution   :     -0.17335       0.51541       2.36528
                        -----------------------------------------
Total Dipole Moment    :     -0.21440       0.48620       0.43935
                        -----------------------------------------
Magnitude (a.u.)       :      0.68948
Magnitude (Debye)      :      1.75252

Rotational constants in cm-1:     4.142257     0.831294     0.798554
Rotational constants in MHz : 124181.734130 24921.569037 23940.054649

                             ****ORCA TERMINATED NORMALLY****
TOTAL RUN TIME: 0 days 0 hours 1 minutes 5 seconds 237 msec
