                         Program Version 4.1.2  - RELEASE  -
|  1> #Run DFT-D3 single point of the dimer
|  2> ! wB97X-D3 def2-TZVP TIGHTSCF CHELPG PMODEL PAL8
|  3>
|  4> %base "9-1_DFT_AB"
|  5>
|  6> %scf
|  7> MaxIter 1000
|  8> end
|  9>
| 10> * xyz 0 1
| 11>   C                      5.326910             4.806322             -3.533113
| 12>   O                      6.034877             3.972360             -4.447765
| 13>   H                      6.237275             3.163824             -3.960999
| 14>   H                      6.014065             5.326131             -2.833834
| 15>   H                      4.817935             5.581777             -4.157801
| 16>   H                      4.623172             4.233674             -2.922331
| 17>   C                      4.114963             9.116766             -3.744822
| 18>   O                      4.407831             7.878221             -3.105757
| 19>   H                      5.295298             7.916926             -2.878524
| 20>   H                      4.958268             9.458118             -4.328347
| 21>   H                      3.350205             9.056568             -4.540735
| 22>   H                      3.769307             9.872373             -2.995837
| 23> *
| 24>
| 25> #Run DFT-D3 single point of the molecule with dimer basis set
| 26> $new_job
| 27> %base "9-1_DFT_A"
| 28> ! wB97X-D3 def2-TZVP TIGHTSCF CHELPG PMODEL
| 29>
| 30> %scf
| 31> MaxIter 1000
| 32> end
| 33>
| 34> * xyz 0 1
| 35>   C                      5.326910             4.806322             -3.533113
| 36>   O                      6.034877             3.972360             -4.447765
| 37>   H                      6.237275             3.163824             -3.960999
| 38>   H                      6.014065             5.326131             -2.833834
| 39>   H                      4.817935             5.581777             -4.157801
| 40>   H                      4.623172             4.233674             -2.922331
| 41>   C                    : 4.114963             9.116766             -3.744822
| 42>   O                    : 4.407831             7.878221             -3.105757
| 43>   H                    : 5.295298             7.916926             -2.878524
| 44>   H                    : 4.958268             9.458118             -4.328347
| 45>   H                    : 3.350205             9.056568             -4.540735
| 46>   H                    : 3.769307             9.872373             -2.995837
| 47> *
| 48>
| 49> #Run DFT-D3 single point of the particle with dimer basis set
| 50> $new_job
| 51> %base "9-1_DFT_B"
| 52> ! wB97X-D3 def2-TZVP TIGHTSCF CHELPG PMODEL
| 53>
| 54> %scf
| 55> MaxIter 1000
| 56> end
| 57>
| 58> * xyz 0 1
| 59>   C                    : 5.326910             4.806322             -3.533113
| 60>   O                    : 6.034877             3.972360             -4.447765
| 61>   H                    : 6.237275             3.163824             -3.960999
| 62>   H                    : 6.014065             5.326131             -2.833834
| 63>   H                    : 4.817935             5.581777             -4.157801
| 64>   H                    : 4.623172             4.233674             -2.922331
| 65>   C                      4.114963             9.116766             -3.744822
| 66>   O                      4.407831             7.878221             -3.105757
| 67>   H                      5.295298             7.916926             -2.878524
| 68>   H                      4.958268             9.458118             -4.328347
| 69>   H                      3.350205             9.056568             -4.540735
| 70>   H                      3.769307             9.872373             -2.995837
| 71> *
| 72>
| 73>                          ****END OF INPUT****
 Total Charge           Charge          ....    0
 Multiplicity           Mult            ....    1
 Number of Electrons    NEL             ....   36
Dispersion correction           -0.001548990
FINAL SINGLE POINT ENERGY      -231.468635216129
Dispersion correction           -0.000242129
FINAL SINGLE POINT ENERGY      -115.735871301674

CARTESIAN COORDINATES (ANGSTROEM)
---------------------------------
  C      5.326910    4.806322   -3.533113
  O      6.034877    3.972360   -4.447765
  H      6.237275    3.163824   -3.960999
  H      6.014065    5.326131   -2.833834
  H      4.817935    5.581777   -4.157801
  H      4.623172    4.233674   -2.922331
  C      4.114963    9.116766   -3.744822
  O      4.407831    7.878221   -3.105757
  H      5.295298    7.916926   -2.878524
  H      4.958268    9.458118   -4.328347
  H      3.350205    9.056568   -4.540735
  H      3.769307    9.872373   -2.995837

 Multiplicity           Mult            ....    1
 Number of Electrons    NEL             ....   18
 Basis Dimension        Dim             ....  172

ORBITAL ENERGIES
----------------

  NO   OCC          E(Eh)            E(eV)
   0   2.0000     -19.229003      -523.2478
   1   2.0000     -10.317694      -280.7587
   2   2.0000      -1.145010       -31.1573
   3   2.0000      -0.798756       -21.7352
   4   2.0000      -0.614429       -16.7195
   5   2.0000      -0.545417       -14.8415
   6   2.0000      -0.527042       -14.3415
   7   2.0000      -0.432041       -11.7564
   8   2.0000      -0.378889       -10.3101
   9   0.0000       0.092707         2.5227
  10   0.0000       0.125070         3.4033
  11   0.0000       0.151124         4.1123
  12   0.0000       0.189311         5.1514
  13   0.0000       0.198803         5.4097

MULLIKEN ATOMIC CHARGES
-----------------------
   0 C :    0.002014
   1 O :    0.000051
   2 H :   -0.000007
   3 H :   -0.001713
   4 H :   -0.009155
   5 H :   -0.001535
   6 C :   -0.176628
   7 O :   -0.455796
   8 H :    0.310807
   9 H :    0.108342
  10 H :    0.116123
  11 H :    0.107495
Sum of atomic charges:    0.0000000

LOEWDIN ATOMIC CHARGES
----------------------
   0 C :   -0.011873
   1 O :   -0.000050
   2 H :   -0.000023
   3 H :   -0.001599
   4 H :   -0.011565
   5 H :   -0.000311
   6 C :   -0.380242
   7 O :   -0.043131
   8 H :    0.143309
   9 H :    0.094900
  10 H :    0.107778
  11 H :    0.102808

  Mayer bond orders larger than 0.1
B(  6-C ,  7-O ) :   0.9980 B(  6-C ,  9-H ) :   0.9819 B(  6-C , 10-H ) :   0.9737
B(  6-C , 11-H ) :   0.9721 B(  7-O ,  8-H ) :   0.9070

Dispersion correction           -0.000247286
FINAL SINGLE POINT ENERGY      -115.731597992677

DIPOLE MOMENT
-------------
                                X             Y             Z
Electronic contribution:      0.26683      -1.64806       0.85889
Nuclear contribution   :      0.20193       2.17792      -0.99942
                        -----------------------------------------
Total Dipole Moment    :      0.46877       0.52986      -0.14053
                        -----------------------------------------
Magnitude (a.u.)       :      0.72127
Magnitude (Debye)      :      1.83333

Rotational constants in cm-1:     4.369845     0.812023     0.797653
Rotational constants in MHz : 131004.660326 24343.832426 23913.020795

                             ****ORCA TERMINATED NORMALLY****
TOTAL RUN TIME: 0 days 0 hours 0 minutes 40 seconds 754 msec
