                         Program Version 4.1.2  - RELEASE  -
|  1> #Run DFT-D3 single point of the dimer
|  2> ! wB97X-D3 def2-TZVP TIGHTSCF CHELPG PMODEL PAL8
|  3>
|  4> %base "13-55_DFT_AB"
|  5>
|  6> %scf
|  7> MaxIter 1000
|  8> end
|  9>
| 10> * xyz 0 1
| 11>   C                      -2.615448            -10.755304           2.628873
| 12>   O                      -2.908532            -9.997534            1.453146
| 13>   H                      -3.393054            -10.558160           0.797230
| 14>   H                      -3.465573            -11.407798           2.994486
| 15>   H                      -1.643496            -11.228046           2.392343
| 16>   H                      -2.479222            -10.048655           3.452952
| 17>   C                      0.792838             -9.070158            2.401882
| 18>   O                      0.276286             -9.218674            1.112925
| 19>   H                      0.124117             -10.154247           0.983870
| 20>   H                      1.551485             -9.769572            2.706125
| 21>   H                      1.156227             -7.997919            2.475319
| 22>   H                      0.128918             -9.274081            3.271337
| 23> *
| 24>
| 25> #Run DFT-D3 single point of the molecule with dimer basis set
| 26> $new_job
| 27> %base "13-55_DFT_A"
| 28> ! wB97X-D3 def2-TZVP TIGHTSCF CHELPG PMODEL
| 29>
| 30> %scf
| 31> MaxIter 1000
| 32> end
| 33>
| 34> * xyz 0 1
| 35>   C                      -2.615448            -10.755304           2.628873
| 36>   O                      -2.908532            -9.997534            1.453146
| 37>   H                      -3.393054            -10.558160           0.797230
| 38>   H                      -3.465573            -11.407798           2.994486
| 39>   H                      -1.643496            -11.228046           2.392343
| 40>   H                      -2.479222            -10.048655           3.452952
| 41>   C                    : 0.792838             -9.070158            2.401882
| 42>   O                    : 0.276286             -9.218674            1.112925
| 43>   H                    : 0.124117             -10.154247           0.983870
| 44>   H                    : 1.551485             -9.769572            2.706125
| 45>   H                    : 1.156227             -7.997919            2.475319
| 46>   H                    : 0.128918             -9.274081            3.271337
| 47> *
| 48>
| 49> #Run DFT-D3 single point of the particle with dimer basis set
| 50> $new_job
| 51> %base "13-55_DFT_B"
| 52> ! wB97X-D3 def2-TZVP TIGHTSCF CHELPG PMODEL
| 53>
| 54> %scf
| 55> MaxIter 1000
| 56> end
| 57>
| 58> * xyz 0 1
| 59>   C                    : -2.615448            -10.755304           2.628873
| 60>   O                    : -2.908532            -9.997534            1.453146
| 61>   H                    : -3.393054            -10.558160           0.797230
| 62>   H                    : -3.465573            -11.407798           2.994486
| 63>   H                    : -1.643496            -11.228046           2.392343
| 64>   H                    : -2.479222            -10.048655           3.452952
| 65>   C                      0.792838             -9.070158            2.401882
| 66>   O                      0.276286             -9.218674            1.112925
| 67>   H                      0.124117             -10.154247           0.983870
| 68>   H                      1.551485             -9.769572            2.706125
| 69>   H                      1.156227             -7.997919            2.475319
| 70>   H                      0.128918             -9.274081            3.271337
| 71> *
| 72>
| 73>                          ****END OF INPUT****
 Total Charge           Charge          ....    0
 Multiplicity           Mult            ....    1
 Number of Electrons    NEL             ....   36
Dispersion correction           -0.002121788
FINAL SINGLE POINT ENERGY      -231.459530996116
Dispersion correction           -0.000258058
FINAL SINGLE POINT ENERGY      -115.730705679945

CARTESIAN COORDINATES (ANGSTROEM)
---------------------------------
  C     -2.615448  -10.755304    2.628873
  O     -2.908532   -9.997534    1.453146
  H     -3.393054  -10.558160    0.797230
  H     -3.465573  -11.407798    2.994486
  H     -1.643496  -11.228046    2.392343
  H     -2.479222  -10.048655    3.452952
  C      0.792838   -9.070158    2.401882
  O      0.276286   -9.218674    1.112925
  H      0.124117  -10.154247    0.983870
  H      1.551485   -9.769572    2.706125
  H      1.156227   -7.997919    2.475319
  H      0.128918   -9.274081    3.271337

 Multiplicity           Mult            ....    1
 Number of Electrons    NEL             ....   18
 Basis Dimension        Dim             ....  172

ORBITAL ENERGIES
----------------

  NO   OCC          E(Eh)            E(eV)
   0   2.0000     -19.238049      -523.4939
   1   2.0000     -10.315965      -280.7117
   2   2.0000      -1.147303       -31.2197
   3   2.0000      -0.794915       -21.6307
   4   2.0000      -0.628858       -17.1121
   5   2.0000      -0.527608       -14.3569
   6   2.0000      -0.523804       -14.2534
   7   2.0000      -0.445212       -12.1148
   8   2.0000      -0.371487       -10.1087
   9   0.0000       0.078782         2.1438
  10   0.0000       0.130964         3.5637
  11   0.0000       0.143439         3.9032
  12   0.0000       0.176051         4.7906
  13   0.0000       0.190366         5.1801

MULLIKEN ATOMIC CHARGES
-----------------------
   0 C :   -0.002071
   1 O :    0.000350
   2 H :   -0.000035
   3 H :   -0.000107
   4 H :   -0.003466
   5 H :   -0.000136
   6 C :   -0.175397
   7 O :   -0.454133
   8 H :    0.313893
   9 H :    0.105872
  10 H :    0.122945
  11 H :    0.092287
Sum of atomic charges:   -0.0000000

LOEWDIN ATOMIC CHARGES
----------------------
   0 C :   -0.006637
   1 O :   -0.003216
   2 H :   -0.000280
   3 H :   -0.000073
   4 H :   -0.003074
   5 H :   -0.001617
   6 C :   -0.413524
   7 O :   -0.046315
   8 H :    0.169607
   9 H :    0.089839
  10 H :    0.119316
  11 H :    0.095974

  Mayer bond orders larger than 0.1
B(  6-C ,  7-O ) :   1.0094 B(  6-C ,  9-H ) :   0.9730 B(  6-C , 10-H ) :   0.9782
B(  6-C , 11-H ) :   0.9649 B(  7-O ,  8-H ) :   0.9006

Dispersion correction           -0.000255173
FINAL SINGLE POINT ENERGY      -115.730029642183

DIPOLE MOMENT
-------------
                                X             Y             Z
Electronic contribution:     -0.67836      -0.08515      -1.87533
Nuclear contribution   :      0.79145      -0.47295       2.26561
                        -----------------------------------------
Total Dipole Moment    :      0.11310      -0.55810       0.39029
                        -----------------------------------------
Magnitude (a.u.)       :      0.69035
Magnitude (Debye)      :      1.75474

Rotational constants in cm-1:     4.354158     0.845423     0.795578
Rotational constants in MHz : 130534.362689 25345.154757 23850.827559

                             ****ORCA TERMINATED NORMALLY****
TOTAL RUN TIME: 0 days 0 hours 1 minutes 10 seconds 964 msec
