                         Program Version 4.1.2  - RELEASE  -
|  1> #Run DFT-D3 single point of the dimer
|  2> ! wB97X-D3 def2-TZVP TIGHTSCF CHELPG PMODEL PAL8
|  3>
|  4> %base "21-212_DFT_AB"
|  5>
|  6> %scf
|  7> MaxIter 1000
|  8> end
|  9>
| 10> * xyz 0 1
| 11>   C                      0.268052             -0.046767            5.581680
| 12>   O                      -0.161142            0.920445             4.714740
| 13>   H                      -0.409012            1.609506             5.350271
| 14>   H                      0.077832             0.085115             6.615020
| 15>   H                      -0.236730            -0.938475            5.403433
| 16>   H                      1.366188             -0.264199            5.530111
| 17>   C                      -1.118529            -0.623096            1.390326
| 18>   O                      -1.450711            -0.951865            2.673097
| 19>   H                      -1.126183            -0.209045            3.215277
| 20>   H                      -0.077548            -0.848028            1.211740
| 21>   H                      -1.628033            -1.282892            0.678701
| 22>   H                      -1.315934            0.478849             1.238077
| 23> *
| 24>
| 25> #Run DFT-D3 single point of the molecule with dimer basis set
| 26> $new_job
| 27> %base "21-212_DFT_A"
| 28> ! wB97X-D3 def2-TZVP TIGHTSCF CHELPG PMODEL
| 29>
| 30> %scf
| 31> MaxIter 1000
| 32> end
| 33>
| 34> * xyz 0 1
| 35>   C                      0.268052             -0.046767            5.581680
| 36>   O                      -0.161142            0.920445             4.714740
| 37>   H                      -0.409012            1.609506             5.350271
| 38>   H                      0.077832             0.085115             6.615020
| 39>   H                      -0.236730            -0.938475            5.403433
| 40>   H                      1.366188             -0.264199            5.530111
| 41>   C                    : -1.118529            -0.623096            1.390326
| 42>   O                    : -1.450711            -0.951865            2.673097
| 43>   H                    : -1.126183            -0.209045            3.215277
| 44>   H                    : -0.077548            -0.848028            1.211740
| 45>   H                    : -1.628033            -1.282892            0.678701
| 46>   H                    : -1.315934            0.478849             1.238077
| 47> *
| 48>
| 49> #Run DFT-D3 single point of the particle with dimer basis set
| 50> $new_job
| 51> %base "21-212_DFT_B"
| 52> ! wB97X-D3 def2-TZVP TIGHTSCF CHELPG PMODEL
| 53>
| 54> %scf
| 55> MaxIter 1000
| 56> end
| 57>
| 58> * xyz 0 1
| 59>   C                    : 0.268052             -0.046767            5.581680
| 60>   O                    : -0.161142            0.920445             4.714740
| 61>   H                    : -0.409012            1.609506             5.350271
| 62>   H                    : 0.077832             0.085115             6.615020
| 63>   H                    : -0.236730            -0.938475            5.403433
| 64>   H                    : 1.366188             -0.264199            5.530111
| 65>   C                      -1.118529            -0.623096            1.390326
| 66>   O                      -1.450711            -0.951865            2.673097
| 67>   H                      -1.126183            -0.209045            3.215277
| 68>   H                      -0.077548            -0.848028            1.211740
| 69>   H                      -1.628033            -1.282892            0.678701
| 70>   H                      -1.315934            0.478849             1.238077
| 71> *
| 72>
| 73>                          ****END OF INPUT****
 Total Charge           Charge          ....    0
 Multiplicity           Mult            ....    1
 Number of Electrons    NEL             ....   36
Dispersion correction           -0.001638601
FINAL SINGLE POINT ENERGY      -231.465025625265
Dispersion correction           -0.000220822
FINAL SINGLE POINT ENERGY      -115.725683213958

CARTESIAN COORDINATES (ANGSTROEM)
---------------------------------
  C      0.268052   -0.046767    5.581680
  O     -0.161142    0.920445    4.714740
  H     -0.409012    1.609506    5.350271
  H      0.077832    0.085115    6.615020
  H     -0.236730   -0.938475    5.403433
  H      1.366188   -0.264199    5.530111
  C     -1.118529   -0.623096    1.390326
  O     -1.450711   -0.951865    2.673097
  H     -1.126183   -0.209045    3.215277
  H     -0.077548   -0.848028    1.211740
  H     -1.628033   -1.282892    0.678701
  H     -1.315934    0.478849    1.238077

 Multiplicity           Mult            ....    1
 Number of Electrons    NEL             ....   18
 Basis Dimension        Dim             ....  172

ORBITAL ENERGIES
----------------

  NO   OCC          E(Eh)            E(eV)
   0   2.0000     -19.231362      -523.3120
   1   2.0000     -10.311138      -280.5803
   2   2.0000      -1.152452       -31.3598
   3   2.0000      -0.788529       -21.4570
   4   2.0000      -0.616211       -16.7680
   5   2.0000      -0.551330       -15.0024
   6   2.0000      -0.533455       -14.5161
   7   2.0000      -0.432366       -11.7653
   8   2.0000      -0.367798       -10.0083
   9   0.0000       0.073539         2.0011
  10   0.0000       0.127160         3.4602
  11   0.0000       0.159468         4.3393
  12   0.0000       0.169764         4.6195
  13   0.0000       0.194173         5.2837

MULLIKEN ATOMIC CHARGES
-----------------------
   0 C :   -0.005049
   1 O :    0.000042
   2 H :   -0.000115
   3 H :   -0.000254
   4 H :   -0.002572
   5 H :    0.000637
   6 C :   -0.155973
   7 O :   -0.449301
   8 H :    0.316570
   9 H :    0.093811
  10 H :    0.109906
  11 H :    0.092297
Sum of atomic charges:    0.0000000

LOEWDIN ATOMIC CHARGES
----------------------
   0 C :   -0.007446
   1 O :   -0.012253
   2 H :   -0.000575
   3 H :   -0.000120
   4 H :   -0.003106
   5 H :   -0.000092
   6 C :   -0.426847
   7 O :   -0.038541
   8 H :    0.192011
   9 H :    0.088842
  10 H :    0.107270
  11 H :    0.100857

  Mayer bond orders larger than 0.1
B(  6-C ,  7-O ) :   1.0097 B(  6-C ,  9-H ) :   0.9736 B(  6-C , 10-H ) :   0.9736
B(  6-C , 11-H ) :   0.9893 B(  7-O ,  8-H ) :   0.8992

Dispersion correction           -0.000206354
FINAL SINGLE POINT ENERGY      -115.731467982324

DIPOLE MOMENT
-------------
                                X             Y             Z
Electronic contribution:     -0.56735      -0.57539       1.61881
Nuclear contribution   :      0.88753       1.13103      -1.75275
                        -----------------------------------------
Total Dipole Moment    :      0.32017       0.55564      -0.13394
                        -----------------------------------------
Magnitude (a.u.)       :      0.65512
Magnitude (Debye)      :      1.66519

Rotational constants in cm-1:     4.145373     0.893713     0.847824
Rotational constants in MHz : 124275.154905 26792.839095 25417.119845

                             ****ORCA TERMINATED NORMALLY****
TOTAL RUN TIME: 0 days 0 hours 1 minutes 6 seconds 906 msec
