                         Program Version 4.1.2  - RELEASE  -
|  1> #Run DFT-D3 single point of the dimer
|  2> ! wB97X-D3 def2-TZVP TIGHTSCF CHELPG PMODEL PAL8
|  3>
|  4> %base "2-160_DFT_AB"
|  5>
|  6> %scf
|  7> MaxIter 1000
|  8> end
|  9>
| 10> * xyz 0 1
| 11>   C                      -0.158356            9.506197             3.981543
| 12>   O                      -0.410471            8.158518             3.815830
| 13>   H                      0.393744             7.667537             4.016496
| 14>   H                      0.655024             9.876577             3.386324
| 15>   H                      -1.039333            10.052744            3.675761
| 16>   H                      0.122370             9.895403             4.954957
| 17>   C                      -0.071571            7.586414             7.033307
| 18>   O                      -0.467724            8.887866             7.324802
| 19>   H                      -0.952794            9.275184             6.553216
| 20>   H                      0.866285             7.675874             6.438396
| 21>   H                      -0.027817            6.980002             7.944635
| 22>   H                      -0.725721            7.050403             6.424066
| 23> *
| 24>
| 25> #Run DFT-D3 single point of the molecule with dimer basis set
| 26> $new_job
| 27> %base "2-160_DFT_A"
| 28> ! wB97X-D3 def2-TZVP TIGHTSCF CHELPG PMODEL
| 29>
| 30> %scf
| 31> MaxIter 1000
| 32> end
| 33>
| 34> * xyz 0 1
| 35>   C                      -0.158356            9.506197             3.981543
| 36>   O                      -0.410471            8.158518             3.815830
| 37>   H                      0.393744             7.667537             4.016496
| 38>   H                      0.655024             9.876577             3.386324
| 39>   H                      -1.039333            10.052744            3.675761
| 40>   H                      0.122370             9.895403             4.954957
| 41>   C                    : -0.071571            7.586414             7.033307
| 42>   O                    : -0.467724            8.887866             7.324802
| 43>   H                    : -0.952794            9.275184             6.553216
| 44>   H                    : 0.866285             7.675874             6.438396
| 45>   H                    : -0.027817            6.980002             7.944635
| 46>   H                    : -0.725721            7.050403             6.424066
| 47> *
| 48>
| 49> #Run DFT-D3 single point of the particle with dimer basis set
| 50> $new_job
| 51> %base "2-160_DFT_B"
| 52> ! wB97X-D3 def2-TZVP TIGHTSCF CHELPG PMODEL
| 53>
| 54> %scf
| 55> MaxIter 1000
| 56> end
| 57>
| 58> * xyz 0 1
| 59>   C                    : -0.158356            9.506197             3.981543
| 60>   O                    : -0.410471            8.158518             3.815830
| 61>   H                    : 0.393744             7.667537             4.016496
| 62>   H                    : 0.655024             9.876577             3.386324
| 63>   H                    : -1.039333            10.052744            3.675761
| 64>   H                    : 0.122370             9.895403             4.954957
| 65>   C                      -0.071571            7.586414             7.033307
| 66>   O                      -0.467724            8.887866             7.324802
| 67>   H                      -0.952794            9.275184             6.553216
| 68>   H                      0.866285             7.675874             6.438396
| 69>   H                      -0.027817            6.980002             7.944635
| 70>   H                      -0.725721            7.050403             6.424066
| 71> *
| 72>
| 73>                          ****END OF INPUT****
 Total Charge           Charge          ....    0
 Multiplicity           Mult            ....    1
 Number of Electrons    NEL             ....   36
Dispersion correction           -0.002517018
FINAL SINGLE POINT ENERGY      -231.466201742516
Dispersion correction           -0.000242739
FINAL SINGLE POINT ENERGY      -115.734014144738

CARTESIAN COORDINATES (ANGSTROEM)
---------------------------------
  C     -0.158356    9.506197    3.981543
  O     -0.410471    8.158518    3.815830
  H      0.393744    7.667537    4.016496
  H      0.655024    9.876577    3.386324
  H     -1.039333   10.052744    3.675761
  H      0.122370    9.895403    4.954957
  C     -0.071571    7.586414    7.033307
  O     -0.467724    8.887866    7.324802
  H     -0.952794    9.275184    6.553216
  H      0.866285    7.675874    6.438396
  H     -0.027817    6.980002    7.944635
  H     -0.725721    7.050403    6.424066

 Multiplicity           Mult            ....    1
 Number of Electrons    NEL             ....   18
 Basis Dimension        Dim             ....  172

ORBITAL ENERGIES
----------------

  NO   OCC          E(Eh)            E(eV)
   0   2.0000     -19.231566      -523.3175
   1   2.0000     -10.306996      -280.4676
   2   2.0000      -1.136816       -30.9343
   3   2.0000      -0.795383       -21.6435
   4   2.0000      -0.617186       -16.7945
   5   2.0000      -0.551589       -15.0095
   6   2.0000      -0.519918       -14.1477
   7   2.0000      -0.430888       -11.7251
   8   2.0000      -0.369997       -10.0681
   9   0.0000       0.073026         1.9871
  10   0.0000       0.136043         3.7019
  11   0.0000       0.144908         3.9432
  12   0.0000       0.173400         4.7184
  13   0.0000       0.188234         5.1221

MULLIKEN ATOMIC CHARGES
-----------------------
   0 C :   -0.000472
   1 O :    0.001012
   2 H :   -0.002416
   3 H :   -0.000417
   4 H :    0.000544
   5 H :   -0.011036
   6 C :   -0.167503
   7 O :   -0.471596
   8 H :    0.320874
   9 H :    0.098992
  10 H :    0.122893
  11 H :    0.109125
Sum of atomic charges:    0.0000000

LOEWDIN ATOMIC CHARGES
----------------------
   0 C :   -0.010706
   1 O :   -0.002614
   2 H :   -0.004231
   3 H :   -0.000105
   4 H :   -0.000261
   5 H :   -0.009834
   6 C :   -0.396936
   7 O :   -0.064411
   8 H :    0.190836
   9 H :    0.104119
  10 H :    0.110285
  11 H :    0.083857

  Mayer bond orders larger than 0.1
B(  6-C ,  7-O ) :   0.9979 B(  6-C ,  9-H ) :   0.9840 B(  6-C , 10-H ) :   0.9699
B(  6-C , 11-H ) :   0.9784 B(  7-O ,  8-H ) :   0.8932

Dispersion correction           -0.000228721
FINAL SINGLE POINT ENERGY      -115.730152810713

DIPOLE MOMENT
-------------
                                X             Y             Z
Electronic contribution:     -0.49057       1.62321       0.57992
Nuclear contribution   :      0.28547      -1.90785      -1.17756
                        -----------------------------------------
Total Dipole Moment    :     -0.20510      -0.28464      -0.59765
                        -----------------------------------------
Magnitude (a.u.)       :      0.69301
Magnitude (Debye)      :      1.76150

Rotational constants in cm-1:     4.316999     0.852061     0.823232
Rotational constants in MHz : 129420.370828 25544.153565 24679.881465

                             ****ORCA TERMINATED NORMALLY****
TOTAL RUN TIME: 0 days 0 hours 6 minutes 26 seconds 335 msec
