                         Program Version 4.1.2  - RELEASE  -
|  1> #Run DFT-D3 single point of the dimer
|  2> ! wB97X-D3 def2-TZVP TIGHTSCF  CHELPG PAL8
|  3>
|  4> %base "153_charges"
|  5>
|  6> %scf
|  7> MaxIter 1000
|  8> end
|  9> %output
| 10>   Print[ P_Mayer ] 1
| 11>   Print[ P_NatPop ] 1
| 12>   Print[ P_Hirshfeld ] 1
| 13>   Print[ P_Mulliken ] 1
| 14>   Print [ P_Loewdin ] 1
| 15> end
| 16>
| 17> * xyz 0 1
| 18>   C                      1.891369             -5.323824            2.231827
| 19>   O                      1.550332             -3.988397            2.516834
| 20>   H                      2.119373             -3.784945            3.261972
| 21>   H                      1.085118             -5.864986            1.832767
| 22>   H                      2.753632             -5.317270            1.457224
| 23>   H                      2.193664             -5.882626            3.142271
| 24> *
| 25>
| 26>                          ****END OF INPUT****

CARTESIAN COORDINATES (ANGSTROEM)
---------------------------------
  C      1.891369   -5.323824    2.231827
  O      1.550332   -3.988397    2.516834
  H      2.119373   -3.784945    3.261972
  H      1.085118   -5.864986    1.832767
  H      2.753632   -5.317270    1.457224
  H      2.193664   -5.882626    3.142271

 Total Charge           Charge          ....    0
 Multiplicity           Mult            ....    1
 Number of Electrons    NEL             ....   18
 Basis Dimension        Dim             ....   86

ORBITAL ENERGIES
----------------

  NO   OCC          E(Eh)            E(eV)
   0   2.0000     -19.231861      -523.3256
   1   2.0000     -10.316272      -280.7200
   2   2.0000      -1.142766       -31.0962
   3   2.0000      -0.791231       -21.5305
   4   2.0000      -0.610404       -16.6099
   5   2.0000      -0.541963       -14.7476
   6   2.0000      -0.528264       -14.3748
   7   2.0000      -0.438919       -11.9436
   8   2.0000      -0.371975       -10.1220
   9   0.0000       0.112648         3.0653
  10   0.0000       0.156307         4.2533
  11   0.0000       0.192120         5.2279
  12   0.0000       0.209204         5.6927
  13   0.0000       0.230366         6.2686

MULLIKEN ATOMIC CHARGES
-----------------------
   0 C :   -0.177490
   1 O :   -0.457770
   2 H :    0.315921
   3 H :    0.123657
   4 H :    0.093603
   5 H :    0.102080
Sum of atomic charges:    0.0000000

LOEWDIN ATOMIC CHARGES
----------------------
   0 C :   -0.396744
   1 O :   -0.072497
   2 H :    0.172697
   3 H :    0.093396
   4 H :    0.104926
   5 H :    0.098223

  Mayer bond orders larger than 0.1
B(  0-C ,  1-O ) :   1.0071 B(  0-C ,  3-H ) :   0.9731 B(  0-C ,  4-H ) :   0.9763
B(  0-C ,  5-H ) :   0.9812 B(  1-O ,  2-H ) :   0.9026

Dispersion correction           -0.000232559
FINAL SINGLE POINT ENERGY      -115.731218924118

DIPOLE MOMENT
-------------
                                X             Y             Z
Electronic contribution:     -0.67342       1.73853       0.28673
Nuclear contribution   :      1.11707      -2.12727       0.09669
                        -----------------------------------------
Total Dipole Moment    :      0.44366      -0.38874       0.38342
                        -----------------------------------------
Magnitude (a.u.)       :      0.70353
Magnitude (Debye)      :      1.78824

Rotational constants in cm-1:     4.156678     0.837746     0.814983
Rotational constants in MHz : 124614.082668 25115.000039 24432.589834

                             ****ORCA TERMINATED NORMALLY****
TOTAL RUN TIME: 0 days 0 hours 0 minutes 41 seconds 75 msec
