                         Program Version 4.1.2  - RELEASE  -
|  1> #Run DFT-D3 single point of the dimer
|  2> ! wB97X-D3 def2-TZVP TIGHTSCF CHELPG PMODEL PAL8
|  3>
|  4> %base "11-51_DFT_AB"
|  5>
|  6> %scf
|  7> MaxIter 1000
|  8> end
|  9>
| 10> * xyz 0 1
| 11>   C                      -2.287004            -7.105774            -7.763036
| 12>   O                      -0.949285            -7.170664            -8.203545
| 13>   H                      -0.939735            -7.506460            -9.050222
| 14>   H                      -2.333886            -6.430946            -6.937260
| 15>   H                      -2.922818            -6.617067            -8.546304
| 16>   H                      -2.776979            -8.069040            -7.408969
| 17>   C                      -3.641882            -6.013494            -3.653541
| 18>   O                      -3.109496            -5.033797            -2.834084
| 19>   H                      -2.177298            -4.956198            -2.865698
| 20>   H                      -3.149717            -6.980031            -3.450855
| 21>   H                      -4.734627            -6.165777            -3.567122
| 22>   H                      -3.537758            -5.813317            -4.687027
| 23> *
| 24>
| 25> #Run DFT-D3 single point of the molecule with dimer basis set
| 26> $new_job
| 27> %base "11-51_DFT_A"
| 28> ! wB97X-D3 def2-TZVP TIGHTSCF CHELPG PMODEL
| 29>
| 30> %scf
| 31> MaxIter 1000
| 32> end
| 33>
| 34> * xyz 0 1
| 35>   C                      -2.287004            -7.105774            -7.763036
| 36>   O                      -0.949285            -7.170664            -8.203545
| 37>   H                      -0.939735            -7.506460            -9.050222
| 38>   H                      -2.333886            -6.430946            -6.937260
| 39>   H                      -2.922818            -6.617067            -8.546304
| 40>   H                      -2.776979            -8.069040            -7.408969
| 41>   C                    : -3.641882            -6.013494            -3.653541
| 42>   O                    : -3.109496            -5.033797            -2.834084
| 43>   H                    : -2.177298            -4.956198            -2.865698
| 44>   H                    : -3.149717            -6.980031            -3.450855
| 45>   H                    : -4.734627            -6.165777            -3.567122
| 46>   H                    : -3.537758            -5.813317            -4.687027
| 47> *
| 48>
| 49> #Run DFT-D3 single point of the particle with dimer basis set
| 50> $new_job
| 51> %base "11-51_DFT_B"
| 52> ! wB97X-D3 def2-TZVP TIGHTSCF CHELPG PMODEL
| 53>
| 54> %scf
| 55> MaxIter 1000
| 56> end
| 57>
| 58> * xyz 0 1
| 59>   C                    : -2.287004            -7.105774            -7.763036
| 60>   O                    : -0.949285            -7.170664            -8.203545
| 61>   H                    : -0.939735            -7.506460            -9.050222
| 62>   H                    : -2.333886            -6.430946            -6.937260
| 63>   H                    : -2.922818            -6.617067            -8.546304
| 64>   H                    : -2.776979            -8.069040            -7.408969
| 65>   C                      -3.641882            -6.013494            -3.653541
| 66>   O                      -3.109496            -5.033797            -2.834084
| 67>   H                      -2.177298            -4.956198            -2.865698
| 68>   H                      -3.149717            -6.980031            -3.450855
| 69>   H                      -4.734627            -6.165777            -3.567122
| 70>   H                      -3.537758            -5.813317            -4.687027
| 71> *
| 72>
| 73>                          ****END OF INPUT****
 Total Charge           Charge          ....    0
 Multiplicity           Mult            ....    1
 Number of Electrons    NEL             ....   36
Dispersion correction           -0.001095758
FINAL SINGLE POINT ENERGY      -231.463805482544
Dispersion correction           -0.000256816
FINAL SINGLE POINT ENERGY      -115.731667938026

CARTESIAN COORDINATES (ANGSTROEM)
---------------------------------
  C     -2.287004   -7.105774   -7.763036
  O     -0.949285   -7.170664   -8.203545
  H     -0.939735   -7.506460   -9.050222
  H     -2.333886   -6.430946   -6.937260
  H     -2.922818   -6.617067   -8.546304
  H     -2.776979   -8.069040   -7.408969
  C     -3.641882   -6.013494   -3.653541
  O     -3.109496   -5.033797   -2.834084
  H     -2.177298   -4.956198   -2.865698
  H     -3.149717   -6.980031   -3.450855
  H     -4.734627   -6.165777   -3.567122
  H     -3.537758   -5.813317   -4.687027

 Multiplicity           Mult            ....    1
 Number of Electrons    NEL             ....   18
 Basis Dimension        Dim             ....  172

ORBITAL ENERGIES
----------------

  NO   OCC          E(Eh)            E(eV)
   0   2.0000     -19.225667      -523.1570
   1   2.0000     -10.309801      -280.5440
   2   2.0000      -1.145636       -31.1743
   3   2.0000      -0.802617       -21.8403
   4   2.0000      -0.622853       -16.9487
   5   2.0000      -0.547149       -14.8887
   6   2.0000      -0.532146       -14.4804
   7   2.0000      -0.421190       -11.4612
   8   2.0000      -0.372142       -10.1265
   9   0.0000       0.082981         2.2580
  10   0.0000       0.120328         3.2743
  11   0.0000       0.146169         3.9774
  12   0.0000       0.174832         4.7574
  13   0.0000       0.188704         5.1349

MULLIKEN ATOMIC CHARGES
-----------------------
   0 C :   -0.000811
   1 O :   -0.000013
   2 H :   -0.000004
   3 H :    0.000511
   4 H :    0.000013
   5 H :   -0.000002
   6 C :   -0.146397
   7 O :   -0.479461
   8 H :    0.315961
   9 H :    0.093578
  10 H :    0.115977
  11 H :    0.100647
Sum of atomic charges:   -0.0000000

LOEWDIN ATOMIC CHARGES
----------------------
   0 C :   -0.001375
   1 O :   -0.000009
   2 H :   -0.000003
   3 H :   -0.002741
   4 H :   -0.000013
   5 H :   -0.000086
   6 C :   -0.403042
   7 O :   -0.043612
   8 H :    0.155103
   9 H :    0.096665
  10 H :    0.112657
  11 H :    0.086459

  Mayer bond orders larger than 0.1
B(  6-C ,  7-O ) :   0.9971 B(  6-C ,  9-H ) :   0.9883 B(  6-C , 10-H ) :   0.9678
B(  6-C , 11-H ) :   0.9766 B(  7-O ,  8-H ) :   0.8973

Dispersion correction           -0.000242879
FINAL SINGLE POINT ENERGY      -115.731535950487

DIPOLE MOMENT
-------------
                                X             Y             Z
Electronic contribution:      0.60158       1.38522       1.13486
Nuclear contribution   :     -0.20010      -1.71483      -1.49379
                        -----------------------------------------
Total Dipole Moment    :      0.40148      -0.32961      -0.35893
                        -----------------------------------------
Magnitude (a.u.)       :      0.63139
Magnitude (Debye)      :      1.60487

Rotational constants in cm-1:     4.589493     0.845490     0.817145
Rotational constants in MHz : 137589.529442 25347.154736 24497.386879

                             ****ORCA TERMINATED NORMALLY****
TOTAL RUN TIME: 0 days 0 hours 1 minutes 9 seconds 849 msec
