                         Program Version 4.1.2  - RELEASE  -
|  1> #Run DFT-D3 single point of the dimer
|  2> ! wB97X-D3 def2-TZVP TIGHTSCF CHELPG PMODEL PAL8
|  3>
|  4> %base "14-195_DFT_AB"
|  5>
|  6> %scf
|  7> MaxIter 1000
|  8> end
|  9>
| 10> * xyz 0 1
| 11>   C                      -11.198574           2.196297             -8.663899
| 12>   O                      -9.934511            2.627828             -9.106042
| 13>   H                      -9.437128            2.008321             -9.679980
| 14>   H                      -11.242939           1.426187             -7.873173
| 15>   H                      -11.747869           3.026897             -8.234249
| 16>   H                      -11.859639           1.793048             -9.379719
| 17>   C                      -6.434173            0.024591             -8.359033
| 18>   O                      -7.570625            -0.647804            -7.851217
| 19>   H                      -8.348332            -0.035865            -8.046611
| 20>   H                      -6.472714            1.133618             -8.227095
| 21>   H                      -5.556411            -0.407620            -7.961578
| 22>   H                      -6.436764            -0.065187            -9.452756
| 23> *
| 24>
| 25> #Run DFT-D3 single point of the molecule with dimer basis set
| 26> $new_job
| 27> %base "14-195_DFT_A"
| 28> ! wB97X-D3 def2-TZVP TIGHTSCF CHELPG PMODEL
| 29>
| 30> %scf
| 31> MaxIter 1000
| 32> end
| 33>
| 34> * xyz 0 1
| 35>   C                      -11.198574           2.196297             -8.663899
| 36>   O                      -9.934511            2.627828             -9.106042
| 37>   H                      -9.437128            2.008321             -9.679980
| 38>   H                      -11.242939           1.426187             -7.873173
| 39>   H                      -11.747869           3.026897             -8.234249
| 40>   H                      -11.859639           1.793048             -9.379719
| 41>   C                    : -6.434173            0.024591             -8.359033
| 42>   O                    : -7.570625            -0.647804            -7.851217
| 43>   H                    : -8.348332            -0.035865            -8.046611
| 44>   H                    : -6.472714            1.133618             -8.227095
| 45>   H                    : -5.556411            -0.407620            -7.961578
| 46>   H                    : -6.436764            -0.065187            -9.452756
| 47> *
| 48>
| 49> #Run DFT-D3 single point of the particle with dimer basis set
| 50> $new_job
| 51> %base "14-195_DFT_B"
| 52> ! wB97X-D3 def2-TZVP TIGHTSCF CHELPG PMODEL
| 53>
| 54> %scf
| 55> MaxIter 1000
| 56> end
| 57>
| 58> * xyz 0 1
| 59>   C                    : -11.198574           2.196297             -8.663899
| 60>   O                    : -9.934511            2.627828             -9.106042
| 61>   H                    : -9.437128            2.008321             -9.679980
| 62>   H                    : -11.242939           1.426187             -7.873173
| 63>   H                    : -11.747869           3.026897             -8.234249
| 64>   H                    : -11.859639           1.793048             -9.379719
| 65>   C                      -6.434173            0.024591             -8.359033
| 66>   O                      -7.570625            -0.647804            -7.851217
| 67>   H                      -8.348332            -0.035865            -8.046611
| 68>   H                      -6.472714            1.133618             -8.227095
| 69>   H                      -5.556411            -0.407620            -7.961578
| 70>   H                      -6.436764            -0.065187            -9.452756
| 71> *
| 72>
| 73>                          ****END OF INPUT****
 Total Charge           Charge          ....    0
 Multiplicity           Mult            ....    1
 Number of Electrons    NEL             ....   36
Dispersion correction           -0.001340882
FINAL SINGLE POINT ENERGY      -231.462883787846
Dispersion correction           -0.000286011
FINAL SINGLE POINT ENERGY      -115.730677875727

CARTESIAN COORDINATES (ANGSTROEM)
---------------------------------
  C    -11.198574    2.196297   -8.663899
  O     -9.934511    2.627828   -9.106042
  H     -9.437128    2.008321   -9.679980
  H    -11.242939    1.426187   -7.873173
  H    -11.747869    3.026897   -8.234249
  H    -11.859639    1.793048   -9.379719
  C     -6.434173    0.024591   -8.359033
  O     -7.570625   -0.647804   -7.851217
  H     -8.348332   -0.035865   -8.046611
  H     -6.472714    1.133618   -8.227095
  H     -5.556411   -0.407620   -7.961578
  H     -6.436764   -0.065187   -9.452756

 Multiplicity           Mult            ....    1
 Number of Electrons    NEL             ....   18
 Basis Dimension        Dim             ....  172

ORBITAL ENERGIES
----------------

  NO   OCC          E(Eh)            E(eV)
   0   2.0000     -19.234353      -523.3934
   1   2.0000     -10.311463      -280.5892
   2   2.0000      -1.128931       -30.7198
   3   2.0000      -0.791226       -21.5304
   4   2.0000      -0.608348       -16.5540
   5   2.0000      -0.536144       -14.5892
   6   2.0000      -0.526566       -14.3286
   7   2.0000      -0.442122       -12.0307
   8   2.0000      -0.367567       -10.0020
   9   0.0000       0.065635         1.7860
  10   0.0000       0.118012         3.2113
  11   0.0000       0.149195         4.0598
  12   0.0000       0.171958         4.6792
  13   0.0000       0.189419         5.1544

MULLIKEN ATOMIC CHARGES
-----------------------
   0 C :   -0.000093
   1 O :   -0.000070
   2 H :   -0.000398
   3 H :   -0.000163
   4 H :   -0.000002
   5 H :    0.000025
   6 C :   -0.171307
   7 O :   -0.471692
   8 H :    0.316911
   9 H :    0.101706
  10 H :    0.123881
  11 H :    0.101202
Sum of atomic charges:   -0.0000000

LOEWDIN ATOMIC CHARGES
----------------------
   0 C :   -0.000634
   1 O :   -0.000281
   2 H :   -0.000907
   3 H :   -0.000261
   4 H :   -0.000007
   5 H :   -0.000003
   6 C :   -0.389177
   7 O :   -0.098087
   8 H :    0.197670
   9 H :    0.098422
  10 H :    0.098583
  11 H :    0.094682

  Mayer bond orders larger than 0.1
B(  6-C ,  7-O ) :   0.9970 B(  6-C ,  9-H ) :   0.9765 B(  6-C , 10-H ) :   0.9740
B(  6-C , 11-H ) :   0.9781 B(  7-O ,  8-H ) :   0.8959

Dispersion correction           -0.000230843
FINAL SINGLE POINT ENERGY      -115.731485755978

DIPOLE MOMENT
-------------
                                X             Y             Z
Electronic contribution:     -1.26564      -1.05396       0.83853
Nuclear contribution   :      1.23784       1.68655      -1.15425
                        -----------------------------------------
Total Dipole Moment    :     -0.02780       0.63260      -0.31572
                        -----------------------------------------
Magnitude (a.u.)       :      0.70755
Magnitude (Debye)      :      1.79846

Rotational constants in cm-1:     4.186332     0.839760     0.796696
Rotational constants in MHz : 125503.076854 25175.366414 23884.352421

                             ****ORCA TERMINATED NORMALLY****
TOTAL RUN TIME: 0 days 0 hours 1 minutes 0 seconds 63 msec
