                         Program Version 4.1.2  - RELEASE  -
|  1> #Run DFT-D3 single point of the dimer
|  2> ! wB97X-D3 def2-TZVP TIGHTSCF CHELPG PMODEL PAL8
|  3>
|  4> %base "10-163_DFT_AB"
|  5>
|  6> %scf
|  7> MaxIter 1000
|  8> end
|  9>
| 10> * xyz 0 1
| 11>   C                      6.188934             -4.857423            -4.247510
| 12>   O                      7.074866             -5.615235            -5.057782
| 13>   H                      7.897927             -5.141377            -5.178186
| 14>   H                      6.510234             -4.836641            -3.244249
| 15>   H                      6.135170             -3.765486            -4.495306
| 16>   H                      5.240519             -5.352060            -4.303331
| 17>   C                      7.627756             -8.285923            -6.683459
| 18>   O                      8.961988             -7.889269            -7.122497
| 19>   H                      8.855676             -6.925130            -7.287756
| 20>   H                      6.814872             -8.049190            -7.415096
| 21>   H                      7.716530             -9.343361            -6.572529
| 22>   H                      7.367304             -7.829640            -5.696377
| 23> *
| 24>
| 25> #Run DFT-D3 single point of the molecule with dimer basis set
| 26> $new_job
| 27> %base "10-163_DFT_A"
| 28> ! wB97X-D3 def2-TZVP TIGHTSCF CHELPG PMODEL
| 29>
| 30> %scf
| 31> MaxIter 1000
| 32> end
| 33>
| 34> * xyz 0 1
| 35>   C                      6.188934             -4.857423            -4.247510
| 36>   O                      7.074866             -5.615235            -5.057782
| 37>   H                      7.897927             -5.141377            -5.178186
| 38>   H                      6.510234             -4.836641            -3.244249
| 39>   H                      6.135170             -3.765486            -4.495306
| 40>   H                      5.240519             -5.352060            -4.303331
| 41>   C                    : 7.627756             -8.285923            -6.683459
| 42>   O                    : 8.961988             -7.889269            -7.122497
| 43>   H                    : 8.855676             -6.925130            -7.287756
| 44>   H                    : 6.814872             -8.049190            -7.415096
| 45>   H                    : 7.716530             -9.343361            -6.572529
| 46>   H                    : 7.367304             -7.829640            -5.696377
| 47> *
| 48>
| 49> #Run DFT-D3 single point of the particle with dimer basis set
| 50> $new_job
| 51> %base "10-163_DFT_B"
| 52> ! wB97X-D3 def2-TZVP TIGHTSCF CHELPG PMODEL
| 53>
| 54> %scf
| 55> MaxIter 1000
| 56> end
| 57>
| 58> * xyz 0 1
| 59>   C                    : 6.188934             -4.857423            -4.247510
| 60>   O                    : 7.074866             -5.615235            -5.057782
| 61>   H                    : 7.897927             -5.141377            -5.178186
| 62>   H                    : 6.510234             -4.836641            -3.244249
| 63>   H                    : 6.135170             -3.765486            -4.495306
| 64>   H                    : 5.240519             -5.352060            -4.303331
| 65>   C                      7.627756             -8.285923            -6.683459
| 66>   O                      8.961988             -7.889269            -7.122497
| 67>   H                      8.855676             -6.925130            -7.287756
| 68>   H                      6.814872             -8.049190            -7.415096
| 69>   H                      7.716530             -9.343361            -6.572529
| 70>   H                      7.367304             -7.829640            -5.696377
| 71> *
| 72>
| 73>                          ****END OF INPUT****
 Total Charge           Charge          ....    0
 Multiplicity           Mult            ....    1
 Number of Electrons    NEL             ....   36
Dispersion correction           -0.001706276
FINAL SINGLE POINT ENERGY      -231.469202234530
Dispersion correction           -0.000244457
FINAL SINGLE POINT ENERGY      -115.734179990747

CARTESIAN COORDINATES (ANGSTROEM)
---------------------------------
  C      6.188934   -4.857423   -4.247510
  O      7.074866   -5.615235   -5.057782
  H      7.897927   -5.141377   -5.178186
  H      6.510234   -4.836641   -3.244249
  H      6.135170   -3.765486   -4.495306
  H      5.240519   -5.352060   -4.303331
  C      7.627756   -8.285923   -6.683459
  O      8.961988   -7.889269   -7.122497
  H      8.855676   -6.925130   -7.287756
  H      6.814872   -8.049190   -7.415096
  H      7.716530   -9.343361   -6.572529
  H      7.367304   -7.829640   -5.696377

 Multiplicity           Mult            ....    1
 Number of Electrons    NEL             ....   18
 Basis Dimension        Dim             ....  172

ORBITAL ENERGIES
----------------

  NO   OCC          E(Eh)            E(eV)
   0   2.0000     -19.234735      -523.4037
   1   2.0000     -10.318594      -280.7832
   2   2.0000      -1.122201       -30.5366
   3   2.0000      -0.791687       -21.5429
   4   2.0000      -0.600787       -16.3482
   5   2.0000      -0.534159       -14.5352
   6   2.0000      -0.515691       -14.0327
   7   2.0000      -0.446312       -12.1448
   8   2.0000      -0.375890       -10.2285
   9   0.0000       0.075593         2.0570
  10   0.0000       0.115384         3.1398
  11   0.0000       0.146947         3.9986
  12   0.0000       0.179255         4.8778
  13   0.0000       0.188942         5.1414

MULLIKEN ATOMIC CHARGES
-----------------------
   0 C :   -0.000034
   1 O :    0.000969
   2 H :   -0.000589
   3 H :    0.000039
   4 H :   -0.000002
   5 H :   -0.000221
   6 C :   -0.186208
   7 O :   -0.469431
   8 H :    0.311406
   9 H :    0.110700
  10 H :    0.130781
  11 H :    0.102591
Sum of atomic charges:   -0.0000000

LOEWDIN ATOMIC CHARGES
----------------------
   0 C :   -0.001274
   1 O :   -0.010449
   2 H :   -0.001490
   3 H :   -0.000035
   4 H :   -0.000030
   5 H :   -0.000149
   6 C :   -0.359684
   7 O :   -0.114801
   8 H :    0.178459
   9 H :    0.101306
  10 H :    0.103549
  11 H :    0.104597

  Mayer bond orders larger than 0.1
B(  6-C ,  7-O ) :   1.0013 B(  6-C ,  9-H ) :   0.9677 B(  6-C , 10-H ) :   0.9776
B(  6-C , 11-H ) :   0.9706 B(  7-O ,  8-H ) :   0.9042

Dispersion correction           -0.000255230
FINAL SINGLE POINT ENERGY      -115.733700706484

DIPOLE MOMENT
-------------
                                X             Y             Z
Electronic contribution:      1.69685       0.32878      -0.54857
Nuclear contribution   :     -2.29070       0.07638       0.62439
                        -----------------------------------------
Total Dipole Moment    :     -0.59386       0.40516       0.07582
                        -----------------------------------------
Magnitude (a.u.)       :      0.72289
Magnitude (Debye)      :      1.83744

Rotational constants in cm-1:     4.112695     0.795536     0.767699
Rotational constants in MHz : 123295.489764 23849.563635 23015.027844

                             ****ORCA TERMINATED NORMALLY****
TOTAL RUN TIME: 0 days 0 hours 1 minutes 4 seconds 893 msec
