                         Program Version 4.1.2  - RELEASE  -
|  1> #Run DFT-D3 single point of the dimer
|  2> ! wB97X-D3 def2-TZVP TIGHTSCF CHELPG PMODEL PAL8
|  3>
|  4> %base "9-102_DFT_AB"
|  5>
|  6> %scf
|  7> MaxIter 1000
|  8> end
|  9>
| 10> * xyz 0 1
| 11>   C                      6.482871             0.175619             -3.124092
| 12>   O                      5.876064             1.479061             -3.086430
| 13>   H                      5.127288             1.460981             -2.485195
| 14>   H                      6.305677             -0.243266            -2.102666
| 15>   H                      5.921835             -0.472918            -3.836024
| 16>   H                      7.590044             0.153542             -3.268757
| 17>   C                      6.804729             -0.704950            -7.887372
| 18>   O                      6.880612             -0.780466            -6.510407
| 19>   H                      5.998405             -0.399202            -6.234697
| 20>   H                      6.714294             0.342901             -8.198048
| 21>   H                      7.732238             -1.110725            -8.347667
| 22>   H                      5.955156             -1.278324            -8.377200
| 23> *
| 24>
| 25> #Run DFT-D3 single point of the molecule with dimer basis set
| 26> $new_job
| 27> %base "9-102_DFT_A"
| 28> ! wB97X-D3 def2-TZVP TIGHTSCF CHELPG PMODEL
| 29>
| 30> %scf
| 31> MaxIter 1000
| 32> end
| 33>
| 34> * xyz 0 1
| 35>   C                      6.482871             0.175619             -3.124092
| 36>   O                      5.876064             1.479061             -3.086430
| 37>   H                      5.127288             1.460981             -2.485195
| 38>   H                      6.305677             -0.243266            -2.102666
| 39>   H                      5.921835             -0.472918            -3.836024
| 40>   H                      7.590044             0.153542             -3.268757
| 41>   C                    : 6.804729             -0.704950            -7.887372
| 42>   O                    : 6.880612             -0.780466            -6.510407
| 43>   H                    : 5.998405             -0.399202            -6.234697
| 44>   H                    : 6.714294             0.342901             -8.198048
| 45>   H                    : 7.732238             -1.110725            -8.347667
| 46>   H                    : 5.955156             -1.278324            -8.377200
| 47> *
| 48>
| 49> #Run DFT-D3 single point of the particle with dimer basis set
| 50> $new_job
| 51> %base "9-102_DFT_B"
| 52> ! wB97X-D3 def2-TZVP TIGHTSCF CHELPG PMODEL
| 53>
| 54> %scf
| 55> MaxIter 1000
| 56> end
| 57>
| 58> * xyz 0 1
| 59>   C                    : 6.482871             0.175619             -3.124092
| 60>   O                    : 5.876064             1.479061             -3.086430
| 61>   H                    : 5.127288             1.460981             -2.485195
| 62>   H                    : 6.305677             -0.243266            -2.102666
| 63>   H                    : 5.921835             -0.472918            -3.836024
| 64>   H                    : 7.590044             0.153542             -3.268757
| 65>   C                      6.804729             -0.704950            -7.887372
| 66>   O                      6.880612             -0.780466            -6.510407
| 67>   H                      5.998405             -0.399202            -6.234697
| 68>   H                      6.714294             0.342901             -8.198048
| 69>   H                      7.732238             -1.110725            -8.347667
| 70>   H                      5.955156             -1.278324            -8.377200
| 71> *
| 72>
| 73>                          ****END OF INPUT****
 Total Charge           Charge          ....    0
 Multiplicity           Mult            ....    1
 Number of Electrons    NEL             ....   36
Dispersion correction           -0.001334784
FINAL SINGLE POINT ENERGY      -231.463909297182
Dispersion correction           -0.000249290
FINAL SINGLE POINT ENERGY      -115.730388416822

CARTESIAN COORDINATES (ANGSTROEM)
---------------------------------
  C      6.482871    0.175619   -3.124092
  O      5.876064    1.479061   -3.086430
  H      5.127288    1.460981   -2.485195
  H      6.305677   -0.243266   -2.102666
  H      5.921835   -0.472918   -3.836024
  H      7.590044    0.153542   -3.268757
  C      6.804729   -0.704950   -7.887372
  O      6.880612   -0.780466   -6.510407
  H      5.998405   -0.399202   -6.234697
  H      6.714294    0.342901   -8.198048
  H      7.732238   -1.110725   -8.347667
  H      5.955156   -1.278324   -8.377200

 Multiplicity           Mult            ....    1
 Number of Electrons    NEL             ....   18
 Basis Dimension        Dim             ....  172

ORBITAL ENERGIES
----------------

  NO   OCC          E(Eh)            E(eV)
   0   2.0000     -19.239518      -523.5339
   1   2.0000     -10.316619      -280.7295
   2   2.0000      -1.146726       -31.2040
   3   2.0000      -0.784082       -21.3359
   4   2.0000      -0.612789       -16.6748
   5   2.0000      -0.543868       -14.7994
   6   2.0000      -0.528634       -14.3849
   7   2.0000      -0.434905       -11.8344
   8   2.0000      -0.372732       -10.1425
   9   0.0000       0.085107         2.3159
  10   0.0000       0.119118         3.2414
  11   0.0000       0.152332         4.1452
  12   0.0000       0.173044         4.7088
  13   0.0000       0.195557         5.3214

MULLIKEN ATOMIC CHARGES
-----------------------
   0 C :   -0.002610
   1 O :    0.000333
   2 H :    0.000033
   3 H :   -0.000168
   4 H :   -0.002303
   5 H :   -0.000427
   6 C :   -0.181043
   7 O :   -0.446112
   8 H :    0.322943
   9 H :    0.099364
  10 H :    0.116028
  11 H :    0.093961
Sum of atomic charges:    0.0000000

LOEWDIN ATOMIC CHARGES
----------------------
   0 C :   -0.005280
   1 O :   -0.000048
   2 H :   -0.000004
   3 H :   -0.000054
   4 H :   -0.003528
   5 H :   -0.000776
   6 C :   -0.431348
   7 O :   -0.060872
   8 H :    0.202249
   9 H :    0.092091
  10 H :    0.110345
  11 H :    0.097224

  Mayer bond orders larger than 0.1
B(  6-C ,  7-O ) :   1.0105 B(  6-C ,  9-H ) :   0.9803 B(  6-C , 10-H ) :   0.9741
B(  6-C , 11-H ) :   0.9682 B(  7-O ,  8-H ) :   0.8886

Dispersion correction           -0.000228364
FINAL SINGLE POINT ENERGY      -115.732405172577

DIPOLE MOMENT
-------------
                                X             Y             Z
Electronic contribution:      0.27092      -0.18708       1.91895
Nuclear contribution   :     -0.81278       0.44786      -2.24872
                        -----------------------------------------
Total Dipole Moment    :     -0.54186       0.26079      -0.32977
                        -----------------------------------------
Magnitude (a.u.)       :      0.68583
Magnitude (Debye)      :      1.74325

Rotational constants in cm-1:     4.109670     0.860964     0.824833
Rotational constants in MHz : 123204.820723 25811.052848 24727.873117

                             ****ORCA TERMINATED NORMALLY****
TOTAL RUN TIME: 0 days 0 hours 0 minutes 40 seconds 367 msec
