                         Program Version 4.1.2  - RELEASE  -
|  1> #Run DFT-D3 single point of the dimer
|  2> ! wB97X-D3 def2-TZVP TIGHTSCF CHELPG PMODEL PAL8
|  3>
|  4> %base "11-55_DFT_AB"
|  5>
|  6> %scf
|  7> MaxIter 1000
|  8> end
|  9>
| 10> * xyz 0 1
| 11>   C                      -2.287004            -7.105774            -7.763036
| 12>   O                      -0.949285            -7.170664            -8.203545
| 13>   H                      -0.939735            -7.506460            -9.050222
| 14>   H                      -2.333886            -6.430946            -6.937260
| 15>   H                      -2.922818            -6.617067            -8.546304
| 16>   H                      -2.776979            -8.069040            -7.408969
| 17>   C                      -0.647582            -4.384071            -10.241415
| 18>   O                      -0.142247            -4.542060            -8.940821
| 19>   H                      0.686996             -5.009222            -8.993098
| 20>   H                      -1.151359            -5.299721            -10.597012
| 21>   H                      -1.486091            -3.639362            -10.310894
| 22>   H                      0.190544             -4.175710            -10.874891
| 23> *
| 24>
| 25> #Run DFT-D3 single point of the molecule with dimer basis set
| 26> $new_job
| 27> %base "11-55_DFT_A"
| 28> ! wB97X-D3 def2-TZVP TIGHTSCF CHELPG PMODEL
| 29>
| 30> %scf
| 31> MaxIter 1000
| 32> end
| 33>
| 34> * xyz 0 1
| 35>   C                      -2.287004            -7.105774            -7.763036
| 36>   O                      -0.949285            -7.170664            -8.203545
| 37>   H                      -0.939735            -7.506460            -9.050222
| 38>   H                      -2.333886            -6.430946            -6.937260
| 39>   H                      -2.922818            -6.617067            -8.546304
| 40>   H                      -2.776979            -8.069040            -7.408969
| 41>   C                    : -0.647582            -4.384071            -10.241415
| 42>   O                    : -0.142247            -4.542060            -8.940821
| 43>   H                    : 0.686996             -5.009222            -8.993098
| 44>   H                    : -1.151359            -5.299721            -10.597012
| 45>   H                    : -1.486091            -3.639362            -10.310894
| 46>   H                    : 0.190544             -4.175710            -10.874891
| 47> *
| 48>
| 49> #Run DFT-D3 single point of the particle with dimer basis set
| 50> $new_job
| 51> %base "11-55_DFT_B"
| 52> ! wB97X-D3 def2-TZVP TIGHTSCF CHELPG PMODEL
| 53>
| 54> %scf
| 55> MaxIter 1000
| 56> end
| 57>
| 58> * xyz 0 1
| 59>   C                    : -2.287004            -7.105774            -7.763036
| 60>   O                    : -0.949285            -7.170664            -8.203545
| 61>   H                    : -0.939735            -7.506460            -9.050222
| 62>   H                    : -2.333886            -6.430946            -6.937260
| 63>   H                    : -2.922818            -6.617067            -8.546304
| 64>   H                    : -2.776979            -8.069040            -7.408969
| 65>   C                      -0.647582            -4.384071            -10.241415
| 66>   O                      -0.142247            -4.542060            -8.940821
| 67>   H                      0.686996             -5.009222            -8.993098
| 68>   H                      -1.151359            -5.299721            -10.597012
| 69>   H                      -1.486091            -3.639362            -10.310894
| 70>   H                      0.190544             -4.175710            -10.874891
| 71> *
| 72>
| 73>                          ****END OF INPUT****
 Total Charge           Charge          ....    0
 Multiplicity           Mult            ....    1
 Number of Electrons    NEL             ....   36
Dispersion correction           -0.002192715
FINAL SINGLE POINT ENERGY      -231.462334051178
Dispersion correction           -0.000256816
FINAL SINGLE POINT ENERGY      -115.732187680386

CARTESIAN COORDINATES (ANGSTROEM)
---------------------------------
  C     -2.287004   -7.105774   -7.763036
  O     -0.949285   -7.170664   -8.203545
  H     -0.939735   -7.506460   -9.050222
  H     -2.333886   -6.430946   -6.937260
  H     -2.922818   -6.617067   -8.546304
  H     -2.776979   -8.069040   -7.408969
  C     -0.647582   -4.384071  -10.241415
  O     -0.142247   -4.542060   -8.940821
  H      0.686996   -5.009222   -8.993098
  H     -1.151359   -5.299721  -10.597012
  H     -1.486091   -3.639362  -10.310894
  H      0.190544   -4.175710  -10.874891

 Multiplicity           Mult            ....    1
 Number of Electrons    NEL             ....   18
 Basis Dimension        Dim             ....  172

ORBITAL ENERGIES
----------------

  NO   OCC          E(Eh)            E(eV)
   0   2.0000     -19.229313      -523.2562
   1   2.0000     -10.315049      -280.6867
   2   2.0000      -1.141196       -31.0535
   3   2.0000      -0.794549       -21.6208
   4   2.0000      -0.614308       -16.7162
   5   2.0000      -0.549846       -14.9621
   6   2.0000      -0.525603       -14.3024
   7   2.0000      -0.432142       -11.7592
   8   2.0000      -0.370319       -10.0769
   9   0.0000       0.088669         2.4128
  10   0.0000       0.126685         3.4473
  11   0.0000       0.151483         4.1221
  12   0.0000       0.171368         4.6632
  13   0.0000       0.197689         5.3794

MULLIKEN ATOMIC CHARGES
-----------------------
   0 C :   -0.002306
   1 O :   -0.000951
   2 H :   -0.001314
   3 H :   -0.001239
   4 H :   -0.000297
   5 H :   -0.000073
   6 C :   -0.164014
   7 O :   -0.469977
   8 H :    0.315527
   9 H :    0.098441
  10 H :    0.116605
  11 H :    0.109598
Sum of atomic charges:    0.0000000

LOEWDIN ATOMIC CHARGES
----------------------
   0 C :   -0.006039
   1 O :   -0.011352
   2 H :   -0.002494
   3 H :   -0.000937
   4 H :   -0.000559
   5 H :   -0.000109
   6 C :   -0.392276
   7 O :   -0.054045
   8 H :    0.166741
   9 H :    0.094607
  10 H :    0.113936
  11 H :    0.092525

  Mayer bond orders larger than 0.1
B(  6-C ,  7-O ) :   0.9972 B(  6-C ,  9-H ) :   0.9737 B(  6-C , 10-H ) :   0.9724
B(  6-C , 11-H ) :   0.9862 B(  7-O ,  8-H ) :   0.8983

Dispersion correction           -0.000232067
FINAL SINGLE POINT ENERGY      -115.732679811552

DIPOLE MOMENT
-------------
                                X             Y             Z
Electronic contribution:      0.60248      -0.03753       1.71836
Nuclear contribution   :     -0.26249      -0.18687      -2.27185
                        -----------------------------------------
Total Dipole Moment    :      0.34000      -0.22440      -0.55349
                        -----------------------------------------
Magnitude (a.u.)       :      0.68724
Magnitude (Debye)      :      1.74684

Rotational constants in cm-1:     4.304192     0.843113     0.805876
Rotational constants in MHz : 129036.433576 25275.891296 24159.565830

                             ****ORCA TERMINATED NORMALLY****
TOTAL RUN TIME: 0 days 0 hours 1 minutes 11 seconds 482 msec
