                         Program Version 4.1.2  - RELEASE  -
|  1> #Run DFT-D3 single point of the dimer
|  2> ! wB97X-D3 def2-TZVP TIGHTSCF CHELPG PMODEL PAL8
|  3>
|  4> %base "7-41_DFT_AB"
|  5>
|  6> %scf
|  7> MaxIter 1000
|  8> end
|  9>
| 10> * xyz 0 1
| 11>   C                      -9.811344            4.558187             10.207530
| 12>   O                      -8.653833            5.412163             9.985210
| 13>   H                      -8.166910            5.609681             10.804078
| 14>   H                      -10.766672           5.084000             10.437990
| 15>   H                      -10.064099           3.949902             9.357270
| 16>   H                      -9.652676            3.829172             10.959154
| 17>   C                      -3.843015            3.387278             11.452532
| 18>   O                      -4.433860            3.915718             10.307268
| 19>   H                      -3.773737            3.785140             9.575087
| 20>   H                      -2.782898            3.479782             11.476008
| 21>   H                      -4.203933            3.855851             12.326470
| 22>   H                      -4.218804            2.365851             11.573091
| 23> *
| 24>
| 25> #Run DFT-D3 single point of the molecule with dimer basis set
| 26> $new_job
| 27> %base "7-41_DFT_A"
| 28> ! wB97X-D3 def2-TZVP TIGHTSCF CHELPG PMODEL
| 29>
| 30> %scf
| 31> MaxIter 1000
| 32> end
| 33>
| 34> * xyz 0 1
| 35>   C                      -9.811344            4.558187             10.207530
| 36>   O                      -8.653833            5.412163             9.985210
| 37>   H                      -8.166910            5.609681             10.804078
| 38>   H                      -10.766672           5.084000             10.437990
| 39>   H                      -10.064099           3.949902             9.357270
| 40>   H                      -9.652676            3.829172             10.959154
| 41>   C                    : -3.843015            3.387278             11.452532
| 42>   O                    : -4.433860            3.915718             10.307268
| 43>   H                    : -3.773737            3.785140             9.575087
| 44>   H                    : -2.782898            3.479782             11.476008
| 45>   H                    : -4.203933            3.855851             12.326470
| 46>   H                    : -4.218804            2.365851             11.573091
| 47> *
| 48>
| 49> #Run DFT-D3 single point of the particle with dimer basis set
| 50> $new_job
| 51> %base "7-41_DFT_B"
| 52> ! wB97X-D3 def2-TZVP TIGHTSCF CHELPG PMODEL
| 53>
| 54> %scf
| 55> MaxIter 1000
| 56> end
| 57>
| 58> * xyz 0 1
| 59>   C                    : -9.811344            4.558187             10.207530
| 60>   O                    : -8.653833            5.412163             9.985210
| 61>   H                    : -8.166910            5.609681             10.804078
| 62>   H                    : -10.766672           5.084000             10.437990
| 63>   H                    : -10.064099           3.949902             9.357270
| 64>   H                    : -9.652676            3.829172             10.959154
| 65>   C                      -3.843015            3.387278             11.452532
| 66>   O                      -4.433860            3.915718             10.307268
| 67>   H                      -3.773737            3.785140             9.575087
| 68>   H                      -2.782898            3.479782             11.476008
| 69>   H                      -4.203933            3.855851             12.326470
| 70>   H                      -4.218804            2.365851             11.573091
| 71> *
| 72>
| 73>                          ****END OF INPUT****
 Total Charge           Charge          ....    0
 Multiplicity           Mult            ....    1
 Number of Electrons    NEL             ....   36
Dispersion correction           -0.000716193
FINAL SINGLE POINT ENERGY      -231.460884921165
Dispersion correction           -0.000289716
FINAL SINGLE POINT ENERGY      -115.730173348213

CARTESIAN COORDINATES (ANGSTROEM)
---------------------------------
  C     -9.811344    4.558187   10.207530
  O     -8.653833    5.412163    9.985210
  H     -8.166910    5.609681   10.804078
  H    -10.766672    5.084000   10.437990
  H    -10.064099    3.949902    9.357270
  H     -9.652676    3.829172   10.959154
  C     -3.843015    3.387278   11.452532
  O     -4.433860    3.915718   10.307268
  H     -3.773737    3.785140    9.575087
  H     -2.782898    3.479782   11.476008
  H     -4.203933    3.855851   12.326470
  H     -4.218804    2.365851   11.573091

 Multiplicity           Mult            ....    1
 Number of Electrons    NEL             ....   18
 Basis Dimension        Dim             ....  172

ORBITAL ENERGIES
----------------

  NO   OCC          E(Eh)            E(eV)
   0   2.0000     -19.231687      -523.3208
   1   2.0000     -10.302071      -280.3336
   2   2.0000      -1.137060       -30.9410
   3   2.0000      -0.796369       -21.6703
   4   2.0000      -0.611127       -16.6296
   5   2.0000      -0.544805       -14.8249
   6   2.0000      -0.533634       -14.5209
   7   2.0000      -0.435087       -11.8393
   8   2.0000      -0.368526       -10.0281
   9   0.0000       0.093732         2.5506
  10   0.0000       0.111898         3.0449
  11   0.0000       0.157437         4.2841
  12   0.0000       0.169748         4.6191
  13   0.0000       0.201268         5.4768

MULLIKEN ATOMIC CHARGES
-----------------------
   0 C :   -0.000031
   1 O :   -0.000028
   2 H :   -0.000406
   3 H :   -0.000003
   4 H :    0.000013
   5 H :   -0.000004
   6 C :   -0.161234
   7 O :   -0.469966
   8 H :    0.317382
   9 H :    0.106414
  10 H :    0.111341
  11 H :    0.096523
Sum of atomic charges:    0.0000000

LOEWDIN ATOMIC CHARGES
----------------------
   0 C :   -0.000026
   1 O :   -0.000055
   2 H :   -0.000240
   3 H :   -0.000001
   4 H :   -0.000000
   5 H :   -0.000002
   6 C :   -0.400532
   7 O :   -0.077198
   8 H :    0.192227
   9 H :    0.090502
  10 H :    0.097382
  11 H :    0.097944

  Mayer bond orders larger than 0.1
B(  6-C ,  7-O ) :   1.0092 B(  6-C ,  9-H ) :   0.9804 B(  6-C , 10-H ) :   0.9754
B(  6-C , 11-H ) :   0.9841 B(  7-O ,  8-H ) :   0.8959

Dispersion correction           -0.000225766
FINAL SINGLE POINT ENERGY      -115.730782442448

DIPOLE MOMENT
-------------
                                X             Y             Z
Electronic contribution:     -0.77930       0.77950      -1.42929
Nuclear contribution   :      1.42461      -1.03748       1.43302
                        -----------------------------------------
Total Dipole Moment    :      0.64530      -0.25799       0.00373
                        -----------------------------------------
Magnitude (a.u.)       :      0.69497
Magnitude (Debye)      :      1.76648

Rotational constants in cm-1:     4.373020     0.857940     0.824231
Rotational constants in MHz : 131099.831533 25720.389544 24709.811545

                             ****ORCA TERMINATED NORMALLY****
TOTAL RUN TIME: 0 days 0 hours 0 minutes 59 seconds 648 msec
