                         Program Version 4.1.2  - RELEASE  -
|  1> #Run DFT-D3 single point of the dimer
|  2> ! wB97X-D3 def2-TZVP TIGHTSCF CHELPG PMODEL PAL8
|  3>
|  4> %base "11-39_DFT_AB"
|  5>
|  6> %scf
|  7> MaxIter 1000
|  8> end
|  9>
| 10> * xyz 0 1
| 11>   C                      -4.262804            -3.298811            4.931557
| 12>   O                      -3.864564            -2.942529            6.210114
| 13>   H                      -2.899731            -2.834253            6.123950
| 14>   H                      -4.286093            -4.428996            4.908977
| 15>   H                      -5.227939            -2.841040            4.620827
| 16>   H                      -3.491225            -3.035285            4.130311
| 17>   C                      -3.670822            -6.064125            7.339894
| 18>   O                      -4.691461            -6.396064            6.476158
| 19>   H                      -4.406539            -7.041441            5.853589
| 20>   H                      -3.404148            -6.870549            8.037953
| 21>   H                      -2.844383            -5.877841            6.668155
| 22>   H                      -3.914924            -5.255383            8.072797
| 23> *
| 24>
| 25> #Run DFT-D3 single point of the molecule with dimer basis set
| 26> $new_job
| 27> %base "11-39_DFT_A"
| 28> ! wB97X-D3 def2-TZVP TIGHTSCF CHELPG PMODEL
| 29>
| 30> %scf
| 31> MaxIter 1000
| 32> end
| 33>
| 34> * xyz 0 1
| 35>   C                      -4.262804            -3.298811            4.931557
| 36>   O                      -3.864564            -2.942529            6.210114
| 37>   H                      -2.899731            -2.834253            6.123950
| 38>   H                      -4.286093            -4.428996            4.908977
| 39>   H                      -5.227939            -2.841040            4.620827
| 40>   H                      -3.491225            -3.035285            4.130311
| 41>   C                    : -3.670822            -6.064125            7.339894
| 42>   O                    : -4.691461            -6.396064            6.476158
| 43>   H                    : -4.406539            -7.041441            5.853589
| 44>   H                    : -3.404148            -6.870549            8.037953
| 45>   H                    : -2.844383            -5.877841            6.668155
| 46>   H                    : -3.914924            -5.255383            8.072797
| 47> *
| 48>
| 49> #Run DFT-D3 single point of the particle with dimer basis set
| 50> $new_job
| 51> %base "11-39_DFT_B"
| 52> ! wB97X-D3 def2-TZVP TIGHTSCF CHELPG PMODEL
| 53>
| 54> %scf
| 55> MaxIter 1000
| 56> end
| 57>
| 58> * xyz 0 1
| 59>   C                    : -4.262804            -3.298811            4.931557
| 60>   O                    : -3.864564            -2.942529            6.210114
| 61>   H                    : -2.899731            -2.834253            6.123950
| 62>   H                    : -4.286093            -4.428996            4.908977
| 63>   H                    : -5.227939            -2.841040            4.620827
| 64>   H                    : -3.491225            -3.035285            4.130311
| 65>   C                      -3.670822            -6.064125            7.339894
| 66>   O                      -4.691461            -6.396064            6.476158
| 67>   H                      -4.406539            -7.041441            5.853589
| 68>   H                      -3.404148            -6.870549            8.037953
| 69>   H                      -2.844383            -5.877841            6.668155
| 70>   H                      -3.914924            -5.255383            8.072797
| 71> *
| 72>
| 73>                          ****END OF INPUT****
 Total Charge           Charge          ....    0
 Multiplicity           Mult            ....    1
 Number of Electrons    NEL             ....   36
Dispersion correction           -0.002193482
FINAL SINGLE POINT ENERGY      -231.459449541850
Dispersion correction           -0.000233823
FINAL SINGLE POINT ENERGY      -115.730208295438

CARTESIAN COORDINATES (ANGSTROEM)
---------------------------------
  C     -4.262804   -3.298811    4.931557
  O     -3.864564   -2.942529    6.210114
  H     -2.899731   -2.834253    6.123950
  H     -4.286093   -4.428996    4.908977
  H     -5.227939   -2.841040    4.620827
  H     -3.491225   -3.035285    4.130311
  C     -3.670822   -6.064125    7.339894
  O     -4.691461   -6.396064    6.476158
  H     -4.406539   -7.041441    5.853589
  H     -3.404148   -6.870549    8.037953
  H     -2.844383   -5.877841    6.668155
  H     -3.914924   -5.255383    8.072797

 Multiplicity           Mult            ....    1
 Number of Electrons    NEL             ....   18
 Basis Dimension        Dim             ....  172

ORBITAL ENERGIES
----------------

  NO   OCC          E(Eh)            E(eV)
   0   2.0000     -19.226179      -523.1709
   1   2.0000     -10.312582      -280.6196
   2   2.0000      -1.150678       -31.3115
   3   2.0000      -0.795597       -21.6493
   4   2.0000      -0.618898       -16.8411
   5   2.0000      -0.560375       -15.2486
   6   2.0000      -0.526488       -14.3265
   7   2.0000      -0.424614       -11.5543
   8   2.0000      -0.368191       -10.0190
   9   0.0000       0.091604         2.4927
  10   0.0000       0.125377         3.4117
  11   0.0000       0.149520         4.0687
  12   0.0000       0.183565         4.9950
  13   0.0000       0.190409         5.1813

MULLIKEN ATOMIC CHARGES
-----------------------
   0 C :    0.009917
   1 O :   -0.000011
   2 H :   -0.000485
   3 H :   -0.018469
   4 H :   -0.000347
   5 H :   -0.000376
   6 C :   -0.164398
   7 O :   -0.467733
   8 H :    0.316735
   9 H :    0.101407
  10 H :    0.104667
  11 H :    0.119094
Sum of atomic charges:   -0.0000000

LOEWDIN ATOMIC CHARGES
----------------------
   0 C :   -0.005844
   1 O :   -0.001962
   2 H :   -0.000936
   3 H :   -0.012266
   4 H :   -0.000073
   5 H :   -0.000041
   6 C :   -0.411638
   7 O :   -0.033640
   8 H :    0.160472
   9 H :    0.093297
  10 H :    0.097089
  11 H :    0.115542

  Mayer bond orders larger than 0.1
B(  6-C ,  7-O ) :   0.9820 B(  6-C ,  9-H ) :   0.9675 B(  6-C , 10-H ) :   0.9987
B(  6-C , 11-H ) :   0.9699 B(  7-O ,  8-H ) :   0.8972

Dispersion correction           -0.000220017
FINAL SINGLE POINT ENERGY      -115.728432516165

DIPOLE MOMENT
-------------
                                X             Y             Z
Electronic contribution:     -1.42581      -0.27959      -1.07133
Nuclear contribution   :      1.99775      -0.02695       1.01610
                        -----------------------------------------
Total Dipole Moment    :      0.57194      -0.30655      -0.05524
                        -----------------------------------------
Magnitude (a.u.)       :      0.65126
Magnitude (Debye)      :      1.65536

Rotational constants in cm-1:     4.367979     0.867817     0.831457
Rotational constants in MHz : 130948.707391 26016.485263 24926.455337

                             ****ORCA TERMINATED NORMALLY****
TOTAL RUN TIME: 0 days 0 hours 1 minutes 10 seconds 711 msec
