                         Program Version 4.1.2  - RELEASE  -
|  1> #Run DFT-D3 single point of the dimer
|  2> ! wB97X-D3 def2-TZVP TIGHTSCF CHELPG PMODEL PAL8
|  3>
|  4> %base "15-116_DFT_AB"
|  5>
|  6> %scf
|  7> MaxIter 1000
|  8> end
|  9>
| 10> * xyz 0 1
| 11>   C                      -8.741298            2.011350             -3.240860
| 12>   O                      -9.621524            0.943779             -3.563059
| 13>   H                      -9.309505            0.156833             -3.162644
| 14>   H                      -9.085731            2.993607             -3.654103
| 15>   H                      -8.600028            2.141304             -2.154189
| 16>   H                      -7.868140            1.741703             -3.848083
| 17>   C                      -9.347846            1.572445             -7.362608
| 18>   O                      -9.229498            2.959362             -7.017927
| 19>   H                      -8.292907            3.042813             -6.689373
| 20>   H                      -9.106067            0.966314             -6.509872
| 21>   H                      -10.326030           1.408049             -7.778850
| 22>   H                      -8.577278            1.338307             -8.130141
| 23> *
| 24>
| 25> #Run DFT-D3 single point of the molecule with dimer basis set
| 26> $new_job
| 27> %base "15-116_DFT_A"
| 28> ! wB97X-D3 def2-TZVP TIGHTSCF CHELPG PMODEL
| 29>
| 30> %scf
| 31> MaxIter 1000
| 32> end
| 33>
| 34> * xyz 0 1
| 35>   C                      -8.741298            2.011350             -3.240860
| 36>   O                      -9.621524            0.943779             -3.563059
| 37>   H                      -9.309505            0.156833             -3.162644
| 38>   H                      -9.085731            2.993607             -3.654103
| 39>   H                      -8.600028            2.141304             -2.154189
| 40>   H                      -7.868140            1.741703             -3.848083
| 41>   C                    : -9.347846            1.572445             -7.362608
| 42>   O                    : -9.229498            2.959362             -7.017927
| 43>   H                    : -8.292907            3.042813             -6.689373
| 44>   H                    : -9.106067            0.966314             -6.509872
| 45>   H                    : -10.326030           1.408049             -7.778850
| 46>   H                    : -8.577278            1.338307             -8.130141
| 47> *
| 48>
| 49> #Run DFT-D3 single point of the particle with dimer basis set
| 50> $new_job
| 51> %base "15-116_DFT_B"
| 52> ! wB97X-D3 def2-TZVP TIGHTSCF CHELPG PMODEL
| 53>
| 54> %scf
| 55> MaxIter 1000
| 56> end
| 57>
| 58> * xyz 0 1
| 59>   C                    : -8.741298            2.011350             -3.240860
| 60>   O                    : -9.621524            0.943779             -3.563059
| 61>   H                    : -9.309505            0.156833             -3.162644
| 62>   H                    : -9.085731            2.993607             -3.654103
| 63>   H                    : -8.600028            2.141304             -2.154189
| 64>   H                    : -7.868140            1.741703             -3.848083
| 65>   C                      -9.347846            1.572445             -7.362608
| 66>   O                      -9.229498            2.959362             -7.017927
| 67>   H                      -8.292907            3.042813             -6.689373
| 68>   H                      -9.106067            0.966314             -6.509872
| 69>   H                      -10.326030           1.408049             -7.778850
| 70>   H                      -8.577278            1.338307             -8.130141
| 71> *
| 72>
| 73>                          ****END OF INPUT****
 Total Charge           Charge          ....    0
 Multiplicity           Mult            ....    1
 Number of Electrons    NEL             ....   36
Dispersion correction           -0.001760268
FINAL SINGLE POINT ENERGY      -231.465062969931
Dispersion correction           -0.000231632
FINAL SINGLE POINT ENERGY      -115.729918099721

CARTESIAN COORDINATES (ANGSTROEM)
---------------------------------
  C     -8.741298    2.011350   -3.240860
  O     -9.621524    0.943779   -3.563059
  H     -9.309505    0.156833   -3.162644
  H     -9.085731    2.993607   -3.654103
  H     -8.600028    2.141304   -2.154189
  H     -7.868140    1.741703   -3.848083
  C     -9.347846    1.572445   -7.362608
  O     -9.229498    2.959362   -7.017927
  H     -8.292907    3.042813   -6.689373
  H     -9.106067    0.966314   -6.509872
  H    -10.326030    1.408049   -7.778850
  H     -8.577278    1.338307   -8.130141

 Multiplicity           Mult            ....    1
 Number of Electrons    NEL             ....   18
 Basis Dimension        Dim             ....  172

ORBITAL ENERGIES
----------------

  NO   OCC          E(Eh)            E(eV)
   0   2.0000     -19.232333      -523.3384
   1   2.0000     -10.312489      -280.6171
   2   2.0000      -1.125732       -30.6327
   3   2.0000      -0.791811       -21.5463
   4   2.0000      -0.605120       -16.4662
   5   2.0000      -0.539386       -14.6774
   6   2.0000      -0.524688       -14.2775
   7   2.0000      -0.442302       -12.0356
   8   2.0000      -0.370415       -10.0795
   9   0.0000       0.077508         2.1091
  10   0.0000       0.121499         3.3061
  11   0.0000       0.148939         4.0528
  12   0.0000       0.177738         4.8365
  13   0.0000       0.189120         5.1462

MULLIKEN ATOMIC CHARGES
-----------------------
   0 C :   -0.000511
   1 O :    0.000029
   2 H :   -0.000120
   3 H :   -0.002943
   4 H :   -0.000283
   5 H :   -0.000530
   6 C :   -0.172859
   7 O :   -0.475302
   8 H :    0.314313
   9 H :    0.109452
  10 H :    0.125458
  11 H :    0.103296
Sum of atomic charges:   -0.0000000

LOEWDIN ATOMIC CHARGES
----------------------
   0 C :   -0.002917
   1 O :   -0.000961
   2 H :   -0.000174
   3 H :   -0.002092
   4 H :   -0.000046
   5 H :   -0.000647
   6 C :   -0.369121
   7 O :   -0.106987
   8 H :    0.188475
   9 H :    0.090646
  10 H :    0.105382
  11 H :    0.098440

  Mayer bond orders larger than 0.1
B(  6-C ,  7-O ) :   0.9906 B(  6-C ,  9-H ) :   0.9727 B(  6-C , 10-H ) :   0.9730
B(  6-C , 11-H ) :   0.9832 B(  7-O ,  8-H ) :   0.8977

Dispersion correction           -0.000218148
FINAL SINGLE POINT ENERGY      -115.733830057255

DIPOLE MOMENT
-------------
                                X             Y             Z
Electronic contribution:     -0.15443       1.69896       0.41425
Nuclear contribution   :      0.67181      -2.20679      -0.36282
                        -----------------------------------------
Total Dipole Moment    :      0.51738      -0.50783       0.05143
                        -----------------------------------------
Magnitude (a.u.)       :      0.72679
Magnitude (Debye)      :      1.84734

Rotational constants in cm-1:     4.137635     0.829532     0.790574
Rotational constants in MHz : 124043.171478 24868.748399 23700.824316

                             ****ORCA TERMINATED NORMALLY****
TOTAL RUN TIME: 0 days 0 hours 1 minutes 0 seconds 159 msec
