                         Program Version 4.1.2  - RELEASE  -
|  1> #Run DFT-D3 single point of the dimer
|  2> ! wB97X-D3 def2-TZVP TIGHTSCF CHELPG PMODEL PAL8
|  3>
|  4> %base "9-211_DFT_AB"
|  5>
|  6> %scf
|  7> MaxIter 1000
|  8> end
|  9>
| 10> * xyz 0 1
| 11>   C                      2.965190             6.623918             0.967026
| 12>   O                      3.087321             7.178349             2.250108
| 13>   H                      2.300229             6.975506             2.740599
| 14>   H                      3.202862             5.599845             0.971613
| 15>   H                      1.936361             6.698119             0.639535
| 16>   H                      3.581406             7.209717             0.268602
| 17>   C                      4.541458             9.771522             3.398146
| 18>   O                      5.141681             9.232391             2.237811
| 19>   H                      4.765417             8.375728             2.149344
| 20>   H                      4.005083             10.654460            3.125915
| 21>   H                      3.853711             9.041607             3.825110
| 22>   H                      5.155642             10.010345            4.227905
| 23> *
| 24>
| 25> #Run DFT-D3 single point of the molecule with dimer basis set
| 26> $new_job
| 27> %base "9-211_DFT_A"
| 28> ! wB97X-D3 def2-TZVP TIGHTSCF CHELPG PMODEL
| 29>
| 30> %scf
| 31> MaxIter 1000
| 32> end
| 33>
| 34> * xyz 0 1
| 35>   C                      2.965190             6.623918             0.967026
| 36>   O                      3.087321             7.178349             2.250108
| 37>   H                      2.300229             6.975506             2.740599
| 38>   H                      3.202862             5.599845             0.971613
| 39>   H                      1.936361             6.698119             0.639535
| 40>   H                      3.581406             7.209717             0.268602
| 41>   C                    : 4.541458             9.771522             3.398146
| 42>   O                    : 5.141681             9.232391             2.237811
| 43>   H                    : 4.765417             8.375728             2.149344
| 44>   H                    : 4.005083             10.654460            3.125915
| 45>   H                    : 3.853711             9.041607             3.825110
| 46>   H                    : 5.155642             10.010345            4.227905
| 47> *
| 48>
| 49> #Run DFT-D3 single point of the particle with dimer basis set
| 50> $new_job
| 51> %base "9-211_DFT_B"
| 52> ! wB97X-D3 def2-TZVP TIGHTSCF CHELPG PMODEL
| 53>
| 54> %scf
| 55> MaxIter 1000
| 56> end
| 57>
| 58> * xyz 0 1
| 59>   C                    : 2.965190             6.623918             0.967026
| 60>   O                    : 3.087321             7.178349             2.250108
| 61>   H                    : 2.300229             6.975506             2.740599
| 62>   H                    : 3.202862             5.599845             0.971613
| 63>   H                    : 1.936361             6.698119             0.639535
| 64>   H                    : 3.581406             7.209717             0.268602
| 65>   C                      4.541458             9.771522             3.398146
| 66>   O                      5.141681             9.232391             2.237811
| 67>   H                      4.765417             8.375728             2.149344
| 68>   H                      4.005083             10.654460            3.125915
| 69>   H                      3.853711             9.041607             3.825110
| 70>   H                      5.155642             10.010345            4.227905
| 71> *
| 72>
| 73>                          ****END OF INPUT****
 Total Charge           Charge          ....    0
 Multiplicity           Mult            ....    1
 Number of Electrons    NEL             ....   36
Dispersion correction           -0.001929443
FINAL SINGLE POINT ENERGY      -231.473032930258
Dispersion correction           -0.000218467
FINAL SINGLE POINT ENERGY      -115.734897167419

CARTESIAN COORDINATES (ANGSTROEM)
---------------------------------
  C      2.965190    6.623918    0.967026
  O      3.087321    7.178349    2.250108
  H      2.300229    6.975506    2.740599
  H      3.202862    5.599845    0.971613
  H      1.936361    6.698119    0.639535
  H      3.581406    7.209717    0.268602
  C      4.541458    9.771522    3.398146
  O      5.141681    9.232391    2.237811
  H      4.765417    8.375728    2.149344
  H      4.005083   10.654460    3.125915
  H      3.853711    9.041607    3.825110
  H      5.155642   10.010345    4.227905

 Multiplicity           Mult            ....    1
 Number of Electrons    NEL             ....   18
 Basis Dimension        Dim             ....  172

ORBITAL ENERGIES
----------------

  NO   OCC          E(Eh)            E(eV)
   0   2.0000     -19.230298      -523.2830
   1   2.0000     -10.306473      -280.4534
   2   2.0000      -1.143316       -31.1112
   3   2.0000      -0.802212       -21.8293
   4   2.0000      -0.617379       -16.7997
   5   2.0000      -0.544172       -14.8077
   6   2.0000      -0.533720       -14.5233
   7   2.0000      -0.435269       -11.8443
   8   2.0000      -0.376975       -10.2580
   9   0.0000       0.070959         1.9309
  10   0.0000       0.133525         3.6334
  11   0.0000       0.149992         4.0815
  12   0.0000       0.170540         4.6406
  13   0.0000       0.193707         5.2710

MULLIKEN ATOMIC CHARGES
-----------------------
   0 C :   -0.002255
   1 O :   -0.004339
   2 H :   -0.000081
   3 H :    0.000058
   4 H :    0.000176
   5 H :   -0.002500
   6 C :   -0.170844
   7 O :   -0.460597
   8 H :    0.314930
   9 H :    0.112195
  10 H :    0.101643
  11 H :    0.111613
Sum of atomic charges:   -0.0000000

LOEWDIN ATOMIC CHARGES
----------------------
   0 C :   -0.005477
   1 O :   -0.016357
   2 H :   -0.001225
   3 H :   -0.000090
   4 H :   -0.000066
   5 H :   -0.001976
   6 C :   -0.374223
   7 O :   -0.053216
   8 H :    0.162941
   9 H :    0.097451
  10 H :    0.099736
  11 H :    0.092501

  Mayer bond orders larger than 0.1
B(  6-C ,  7-O ) :   1.0000 B(  6-C ,  9-H ) :   0.9802 B(  6-C , 10-H ) :   0.9907
B(  6-C , 11-H ) :   0.9707 B(  7-O ,  8-H ) :   0.9131

Dispersion correction           -0.000234208
FINAL SINGLE POINT ENERGY      -115.731264134095

DIPOLE MOMENT
-------------
                                X             Y             Z
Electronic contribution:      0.95469      -0.52240      -1.52857
Nuclear contribution   :     -1.43661       0.18333       1.94897
                        -----------------------------------------
Total Dipole Moment    :     -0.48192      -0.33907       0.42040
                        -----------------------------------------
Magnitude (a.u.)       :      0.72385
Magnitude (Debye)      :      1.83987

Rotational constants in cm-1:     4.523941     0.837042     0.804782
Rotational constants in MHz : 135624.326913 25093.896565 24126.763426

                             ****ORCA TERMINATED NORMALLY****
TOTAL RUN TIME: 0 days 0 hours 0 minutes 45 seconds 15 msec
