                         Program Version 4.1.2  - RELEASE  -
|  1> #Run DFT-D3 single point of the dimer
|  2> ! wB97X-D3 def2-TZVP TIGHTSCF CHELPG PMODEL PAL8
|  3>
|  4> %base "6-151_DFT_AB"
|  5>
|  6> %scf
|  7> MaxIter 1000
|  8> end
|  9>
| 10> * xyz 0 1
| 11>   C                      -1.657348            -2.605589            3.107495
| 12>   O                      -1.433084            -3.963794            3.336402
| 13>   H                      -1.822367            -4.471035            2.634541
| 14>   H                      -1.025186            -1.978984            3.793105
| 15>   H                      -1.370348            -2.277809            2.137469
| 16>   H                      -2.655147            -2.318401            3.325334
| 17>   C                      0.036738             -2.975285            -1.879113
| 18>   O                      -0.289875            -3.769806            -0.803203
| 19>   H                      -0.111579            -3.333165            0.069700
| 20>   H                      -0.020576            -3.523164            -2.818727
| 21>   H                      -0.692018            -2.146091            -1.976053
| 22>   H                      1.025757             -2.531572            -1.896348
| 23> *
| 24>
| 25> #Run DFT-D3 single point of the molecule with dimer basis set
| 26> $new_job
| 27> %base "6-151_DFT_A"
| 28> ! wB97X-D3 def2-TZVP TIGHTSCF CHELPG PMODEL
| 29>
| 30> %scf
| 31> MaxIter 1000
| 32> end
| 33>
| 34> * xyz 0 1
| 35>   C                      -1.657348            -2.605589            3.107495
| 36>   O                      -1.433084            -3.963794            3.336402
| 37>   H                      -1.822367            -4.471035            2.634541
| 38>   H                      -1.025186            -1.978984            3.793105
| 39>   H                      -1.370348            -2.277809            2.137469
| 40>   H                      -2.655147            -2.318401            3.325334
| 41>   C                    : 0.036738             -2.975285            -1.879113
| 42>   O                    : -0.289875            -3.769806            -0.803203
| 43>   H                    : -0.111579            -3.333165            0.069700
| 44>   H                    : -0.020576            -3.523164            -2.818727
| 45>   H                    : -0.692018            -2.146091            -1.976053
| 46>   H                    : 1.025757             -2.531572            -1.896348
| 47> *
| 48>
| 49> #Run DFT-D3 single point of the particle with dimer basis set
| 50> $new_job
| 51> %base "6-151_DFT_B"
| 52> ! wB97X-D3 def2-TZVP TIGHTSCF CHELPG PMODEL
| 53>
| 54> %scf
| 55> MaxIter 1000
| 56> end
| 57>
| 58> * xyz 0 1
| 59>   C                    : -1.657348            -2.605589            3.107495
| 60>   O                    : -1.433084            -3.963794            3.336402
| 61>   H                    : -1.822367            -4.471035            2.634541
| 62>   H                    : -1.025186            -1.978984            3.793105
| 63>   H                    : -1.370348            -2.277809            2.137469
| 64>   H                    : -2.655147            -2.318401            3.325334
| 65>   C                      0.036738             -2.975285            -1.879113
| 66>   O                      -0.289875            -3.769806            -0.803203
| 67>   H                      -0.111579            -3.333165            0.069700
| 68>   H                      -0.020576            -3.523164            -2.818727
| 69>   H                      -0.692018            -2.146091            -1.976053
| 70>   H                      1.025757             -2.531572            -1.896348
| 71> *
| 72>
| 73>                          ****END OF INPUT****
 Total Charge           Charge          ....    0
 Multiplicity           Mult            ....    1
 Number of Electrons    NEL             ....   36
Dispersion correction           -0.001171721
FINAL SINGLE POINT ENERGY      -231.469154391624
Dispersion correction           -0.000236371
FINAL SINGLE POINT ENERGY      -115.734407000278

CARTESIAN COORDINATES (ANGSTROEM)
---------------------------------
  C     -1.657348   -2.605589    3.107495
  O     -1.433084   -3.963794    3.336402
  H     -1.822367   -4.471035    2.634541
  H     -1.025186   -1.978984    3.793105
  H     -1.370348   -2.277809    2.137469
  H     -2.655147   -2.318401    3.325334
  C      0.036738   -2.975285   -1.879113
  O     -0.289875   -3.769806   -0.803203
  H     -0.111579   -3.333165    0.069700
  H     -0.020576   -3.523164   -2.818727
  H     -0.692018   -2.146091   -1.976053
  H      1.025757   -2.531572   -1.896348

 Multiplicity           Mult            ....    1
 Number of Electrons    NEL             ....   18
 Basis Dimension        Dim             ....  172

ORBITAL ENERGIES
----------------

  NO   OCC          E(Eh)            E(eV)
   0   2.0000     -19.233853      -523.3797
   1   2.0000     -10.309372      -280.5323
   2   2.0000      -1.140354       -31.0306
   3   2.0000      -0.794997       -21.6330
   4   2.0000      -0.617469       -16.8022
   5   2.0000      -0.542395       -14.7593
   6   2.0000      -0.531925       -14.4744
   7   2.0000      -0.424727       -11.5574
   8   2.0000      -0.370861       -10.0916
   9   0.0000       0.075980         2.0675
  10   0.0000       0.125494         3.4149
  11   0.0000       0.149665         4.0726
  12   0.0000       0.166974         4.5436
  13   0.0000       0.193117         5.2550

MULLIKEN ATOMIC CHARGES
-----------------------
   0 C :    0.002714
   1 O :    0.000012
   2 H :   -0.000400
   3 H :   -0.000128
   4 H :   -0.005159
   5 H :   -0.000114
   6 C :   -0.147891
   7 O :   -0.477047
   8 H :    0.323572
   9 H :    0.116195
  10 H :    0.090234
  11 H :    0.098011
Sum of atomic charges:    0.0000000

LOEWDIN ATOMIC CHARGES
----------------------
   0 C :   -0.000981
   1 O :   -0.000032
   2 H :   -0.000277
   3 H :   -0.000011
   4 H :   -0.002309
   5 H :   -0.000006
   6 C :   -0.418860
   7 O :   -0.060883
   8 H :    0.190789
   9 H :    0.108149
  10 H :    0.094172
  11 H :    0.090248

  Mayer bond orders larger than 0.1
B(  6-C ,  7-O ) :   1.0100 B(  6-C ,  9-H ) :   0.9714 B(  6-C , 10-H ) :   0.9810
B(  6-C , 11-H ) :   0.9742 B(  7-O ,  8-H ) :   0.8857

Dispersion correction           -0.000251975
FINAL SINGLE POINT ENERGY      -115.733654518709

DIPOLE MOMENT
-------------
                                X             Y             Z
Electronic contribution:     -0.39866      -1.21698       1.40922
Nuclear contribution   :      0.65436       1.78381      -1.27444
                        -----------------------------------------
Total Dipole Moment    :      0.25570       0.56682       0.13478
                        -----------------------------------------
Magnitude (a.u.)       :      0.63627
Magnitude (Debye)      :      1.61726

Rotational constants in cm-1:     4.429991     0.848823     0.821377
Rotational constants in MHz : 132807.785945 25447.066934 24624.269646

                             ****ORCA TERMINATED NORMALLY****
TOTAL RUN TIME: 0 days 0 hours 1 minutes 0 seconds 417 msec
