                         Program Version 4.1.2  - RELEASE  -
|  1> #Run DFT-D3 single point of the dimer
|  2> ! wB97X-D3 def2-TZVP TIGHTSCF CHELPG PMODEL PAL8
|  3>
|  4> %base "5-140_DFT_AB"
|  5>
|  6> %scf
|  7> MaxIter 1000
|  8> end
|  9>
| 10> * xyz 0 1
| 11>   C                      2.972572             -0.901774            1.372664
| 12>   O                      3.715877             -0.053173            0.503747
| 13>   H                      4.643713             -0.350892            0.272494
| 14>   H                      2.042537             -0.463022            1.683760
| 15>   H                      2.718830             -1.816522            0.938662
| 16>   H                      3.540776             -1.169969            2.319029
| 17>   C                      2.961884             0.407319             -2.412688
| 18>   O                      2.456259             1.484305             -1.679243
| 19>   H                      2.553771             1.294301             -0.756044
| 20>   H                      3.996649             0.213085             -2.123589
| 21>   H                      2.420544             -0.510132            -2.440008
| 22>   H                      2.934534             0.770478             -3.468027
| 23> *
| 24>
| 25> #Run DFT-D3 single point of the molecule with dimer basis set
| 26> $new_job
| 27> %base "5-140_DFT_A"
| 28> ! wB97X-D3 def2-TZVP TIGHTSCF CHELPG PMODEL
| 29>
| 30> %scf
| 31> MaxIter 1000
| 32> end
| 33>
| 34> * xyz 0 1
| 35>   C                      2.972572             -0.901774            1.372664
| 36>   O                      3.715877             -0.053173            0.503747
| 37>   H                      4.643713             -0.350892            0.272494
| 38>   H                      2.042537             -0.463022            1.683760
| 39>   H                      2.718830             -1.816522            0.938662
| 40>   H                      3.540776             -1.169969            2.319029
| 41>   C                    : 2.961884             0.407319             -2.412688
| 42>   O                    : 2.456259             1.484305             -1.679243
| 43>   H                    : 2.553771             1.294301             -0.756044
| 44>   H                    : 3.996649             0.213085             -2.123589
| 45>   H                    : 2.420544             -0.510132            -2.440008
| 46>   H                    : 2.934534             0.770478             -3.468027
| 47> *
| 48>
| 49> #Run DFT-D3 single point of the particle with dimer basis set
| 50> $new_job
| 51> %base "5-140_DFT_B"
| 52> ! wB97X-D3 def2-TZVP TIGHTSCF CHELPG PMODEL
| 53>
| 54> %scf
| 55> MaxIter 1000
| 56> end
| 57>
| 58> * xyz 0 1
| 59>   C                    : 2.972572             -0.901774            1.372664
| 60>   O                    : 3.715877             -0.053173            0.503747
| 61>   H                    : 4.643713             -0.350892            0.272494
| 62>   H                    : 2.042537             -0.463022            1.683760
| 63>   H                    : 2.718830             -1.816522            0.938662
| 64>   H                    : 3.540776             -1.169969            2.319029
| 65>   C                      2.961884             0.407319             -2.412688
| 66>   O                      2.456259             1.484305             -1.679243
| 67>   H                      2.553771             1.294301             -0.756044
| 68>   H                      3.996649             0.213085             -2.123589
| 69>   H                      2.420544             -0.510132            -2.440008
| 70>   H                      2.934534             0.770478             -3.468027
| 71> *
| 72>
| 73>                          ****END OF INPUT****
 Total Charge           Charge          ....    0
 Multiplicity           Mult            ....    1
 Number of Electrons    NEL             ....   36
Dispersion correction           -0.002135140
FINAL SINGLE POINT ENERGY      -231.470168504296
Dispersion correction           -0.000276552
FINAL SINGLE POINT ENERGY      -115.729864944438

CARTESIAN COORDINATES (ANGSTROEM)
---------------------------------
  C      2.972572   -0.901774    1.372664
  O      3.715877   -0.053173    0.503747
  H      4.643713   -0.350892    0.272494
  H      2.042537   -0.463022    1.683760
  H      2.718830   -1.816522    0.938662
  H      3.540776   -1.169969    2.319029
  C      2.961884    0.407319   -2.412688
  O      2.456259    1.484305   -1.679243
  H      2.553771    1.294301   -0.756044
  H      3.996649    0.213085   -2.123589
  H      2.420544   -0.510132   -2.440008
  H      2.934534    0.770478   -3.468027

 Multiplicity           Mult            ....    1
 Number of Electrons    NEL             ....   18
 Basis Dimension        Dim             ....  172

ORBITAL ENERGIES
----------------

  NO   OCC          E(Eh)            E(eV)
   0   2.0000     -19.230420      -523.2863
   1   2.0000     -10.309878      -280.5461
   2   2.0000      -1.144247       -31.1366
   3   2.0000      -0.797475       -21.7004
   4   2.0000      -0.618460       -16.8291
   5   2.0000      -0.548857       -14.9352
   6   2.0000      -0.521100       -14.1798
   7   2.0000      -0.431492       -11.7415
   8   2.0000      -0.376145       -10.2354
   9   0.0000       0.068936         1.8759
  10   0.0000       0.136139         3.7045
  11   0.0000       0.145930         3.9710
  12   0.0000       0.160866         4.3774
  13   0.0000       0.195619         5.3231

MULLIKEN ATOMIC CHARGES
-----------------------
   0 C :   -0.001569
   1 O :   -0.002535
   2 H :   -0.000143
   3 H :   -0.000015
   4 H :   -0.000177
   5 H :   -0.000042
   6 C :   -0.168000
   7 O :   -0.464898
   8 H :    0.310452
   9 H :    0.100267
  10 H :    0.105792
  11 H :    0.120869
Sum of atomic charges:   -0.0000000

LOEWDIN ATOMIC CHARGES
----------------------
   0 C :   -0.002896
   1 O :   -0.013639
   2 H :   -0.002534
   3 H :   -0.000361
   4 H :   -0.000118
   5 H :   -0.000056
   6 C :   -0.394897
   7 O :   -0.048541
   8 H :    0.161961
   9 H :    0.096346
  10 H :    0.087804
  11 H :    0.116932

  Mayer bond orders larger than 0.1
B(  6-C ,  7-O ) :   0.9984 B(  6-C ,  9-H ) :   0.9834 B(  6-C , 10-H ) :   0.9652
B(  6-C , 11-H ) :   0.9786 B(  7-O ,  8-H ) :   0.9098

Dispersion correction           -0.000239720
FINAL SINGLE POINT ENERGY      -115.734178573292

DIPOLE MOMENT
-------------
                                X             Y             Z
Electronic contribution:     -0.74212       1.36518       0.96136
Nuclear contribution   :      0.99119      -1.89657      -0.66145
                        -----------------------------------------
Total Dipole Moment    :      0.24907      -0.53139       0.29991
                        -----------------------------------------
Magnitude (a.u.)       :      0.65906
Magnitude (Debye)      :      1.67519

Rotational constants in cm-1:     4.375052     0.848623     0.815383
Rotational constants in MHz : 131160.753989 25441.081166 24444.561787

                             ****ORCA TERMINATED NORMALLY****
TOTAL RUN TIME: 0 days 0 hours 0 minutes 55 seconds 354 msec
