                         Program Version 4.1.2  - RELEASE  -
|  1> #Run DFT-D3 single point of the dimer
|  2> ! wB97X-D3 def2-TZVP TIGHTSCF CHELPG PMODEL PAL8
|  3>
|  4> %base "7-187_DFT_AB"
|  5>
|  6> %scf
|  7> MaxIter 1000
|  8> end
|  9>
| 10> * xyz 0 1
| 11>   C                      -10.366333           9.400364             4.873024
| 12>   O                      -9.797859            8.155894             5.312416
| 13>   H                      -9.687546            8.081210             6.256478
| 14>   H                      -9.800704            10.228057            5.250804
| 15>   H                      -10.356732           9.413983             3.799430
| 16>   H                      -11.441551           9.558626             5.335335
| 17>   C                      -10.666586           6.170004             7.379040
| 18>   O                      -9.388597            6.730115             7.666832
| 19>   H                      -9.030855            6.074726             8.273595
| 20>   H                      -10.579796           5.389328             6.632347
| 21>   H                      -11.206953           5.813961             8.258117
| 22>   H                      -11.338197           6.898254             6.829734
| 23> *
| 24>
| 25> #Run DFT-D3 single point of the molecule with dimer basis set
| 26> $new_job
| 27> %base "7-187_DFT_A"
| 28> ! wB97X-D3 def2-TZVP TIGHTSCF CHELPG PMODEL
| 29>
| 30> %scf
| 31> MaxIter 1000
| 32> end
| 33>
| 34> * xyz 0 1
| 35>   C                      -10.366333           9.400364             4.873024
| 36>   O                      -9.797859            8.155894             5.312416
| 37>   H                      -9.687546            8.081210             6.256478
| 38>   H                      -9.800704            10.228057            5.250804
| 39>   H                      -10.356732           9.413983             3.799430
| 40>   H                      -11.441551           9.558626             5.335335
| 41>   C                    : -10.666586           6.170004             7.379040
| 42>   O                    : -9.388597            6.730115             7.666832
| 43>   H                    : -9.030855            6.074726             8.273595
| 44>   H                    : -10.579796           5.389328             6.632347
| 45>   H                    : -11.206953           5.813961             8.258117
| 46>   H                    : -11.338197           6.898254             6.829734
| 47> *
| 48>
| 49> #Run DFT-D3 single point of the particle with dimer basis set
| 50> $new_job
| 51> %base "7-187_DFT_B"
| 52> ! wB97X-D3 def2-TZVP TIGHTSCF CHELPG PMODEL
| 53>
| 54> %scf
| 55> MaxIter 1000
| 56> end
| 57>
| 58> * xyz 0 1
| 59>   C                    : -10.366333           9.400364             4.873024
| 60>   O                    : -9.797859            8.155894             5.312416
| 61>   H                    : -9.687546            8.081210             6.256478
| 62>   H                    : -9.800704            10.228057            5.250804
| 63>   H                    : -10.356732           9.413983             3.799430
| 64>   H                    : -11.441551           9.558626             5.335335
| 65>   C                      -10.666586           6.170004             7.379040
| 66>   O                      -9.388597            6.730115             7.666832
| 67>   H                      -9.030855            6.074726             8.273595
| 68>   H                      -10.579796           5.389328             6.632347
| 69>   H                      -11.206953           5.813961             8.258117
| 70>   H                      -11.338197           6.898254             6.829734
| 71> *
| 72>
| 73>                          ****END OF INPUT****
 Total Charge           Charge          ....    0
 Multiplicity           Mult            ....    1
 Number of Electrons    NEL             ....   36
Dispersion correction           -0.001813790
FINAL SINGLE POINT ENERGY      -231.467867512754
Dispersion correction           -0.000267349
FINAL SINGLE POINT ENERGY      -115.731470919893

CARTESIAN COORDINATES (ANGSTROEM)
---------------------------------
  C    -10.366333    9.400364    4.873024
  O     -9.797859    8.155894    5.312416
  H     -9.687546    8.081210    6.256478
  H     -9.800704   10.228057    5.250804
  H    -10.356732    9.413983    3.799430
  H    -11.441551    9.558626    5.335335
  C    -10.666586    6.170004    7.379040
  O     -9.388597    6.730115    7.666832
  H     -9.030855    6.074726    8.273595
  H    -10.579796    5.389328    6.632347
  H    -11.206953    5.813961    8.258117
  H    -11.338197    6.898254    6.829734

 Multiplicity           Mult            ....    1
 Number of Electrons    NEL             ....   18
 Basis Dimension        Dim             ....  172

ORBITAL ENERGIES
----------------

  NO   OCC          E(Eh)            E(eV)
   0   2.0000     -19.235139      -523.4147
   1   2.0000     -10.316848      -280.7357
   2   2.0000      -1.138636       -30.9839
   3   2.0000      -0.792434       -21.5632
   4   2.0000      -0.607590       -16.5334
   5   2.0000      -0.545165       -14.8347
   6   2.0000      -0.522556       -14.2195
   7   2.0000      -0.438870       -11.9423
   8   2.0000      -0.375946       -10.2300
   9   0.0000       0.094023         2.5585
  10   0.0000       0.120505         3.2791
  11   0.0000       0.152536         4.1507
  12   0.0000       0.186969         5.0877
  13   0.0000       0.197109         5.3636

MULLIKEN ATOMIC CHARGES
-----------------------
   0 C :   -0.000142
   1 O :    0.002792
   2 H :   -0.007044
   3 H :   -0.000131
   4 H :   -0.000035
   5 H :   -0.000024
   6 C :   -0.188814
   7 O :   -0.450532
   8 H :    0.308790
   9 H :    0.105630
  10 H :    0.114974
  11 H :    0.114536
Sum of atomic charges:   -0.0000000

LOEWDIN ATOMIC CHARGES
----------------------
   0 C :   -0.001669
   1 O :   -0.009565
   2 H :   -0.031060
   3 H :   -0.000016
   4 H :   -0.000017
   5 H :   -0.000523
   6 C :   -0.381852
   7 O :   -0.057790
   8 H :    0.172620
   9 H :    0.093722
  10 H :    0.095998
  11 H :    0.120153

  Mayer bond orders larger than 0.1
B(  6-C ,  7-O ) :   0.9965 B(  6-C ,  9-H ) :   0.9758 B(  6-C , 10-H ) :   0.9704
B(  6-C , 11-H ) :   0.9801 B(  7-O ,  8-H ) :   0.9030

Dispersion correction           -0.000239471
FINAL SINGLE POINT ENERGY      -115.732826476353

DIPOLE MOMENT
-------------
                                X             Y             Z
Electronic contribution:      1.68696       0.83386       0.40576
Nuclear contribution   :     -1.96673      -1.45827      -0.14563
                        -----------------------------------------
Total Dipole Moment    :     -0.27978      -0.62441       0.26013
                        -----------------------------------------
Magnitude (a.u.)       :      0.73201
Magnitude (Debye)      :      1.86061

Rotational constants in cm-1:     4.254822     0.822264     0.788882
Rotational constants in MHz : 127556.355975 24650.868821 23650.100709

                             ****ORCA TERMINATED NORMALLY****
TOTAL RUN TIME: 0 days 0 hours 1 minutes 9 seconds 503 msec
