                         Program Version 4.1.2  - RELEASE  -
|  1> #Run DFT-D3 single point of the dimer
|  2> ! wB97X-D3 def2-TZVP TIGHTSCF CHELPG PMODEL PAL8
|  3>
|  4> %base "12-180_DFT_AB"
|  5>
|  6> %scf
|  7> MaxIter 1000
|  8> end
|  9>
| 10> * xyz 0 1
| 11>   C                      -0.727275            1.563052             -0.967298
| 12>   O                      0.096966             0.363734             -0.938946
| 13>   H                      0.008853             -0.073685            -1.808591
| 14>   H                      -1.797823            1.336049             -1.111129
| 15>   H                      -0.641607            2.169287             -0.038777
| 16>   H                      -0.399857            2.277220             -1.734787
| 17>   C                      3.238271             1.333997             -1.199064
| 18>   O                      2.889391             -0.025859            -0.848731
| 19>   H                      2.072859             -0.201433            -1.398011
| 20>   H                      3.409819             1.369507             -2.252393
| 21>   H                      2.501612             2.119326             -0.895392
| 22>   H                      4.174190             1.637378             -0.678773
| 23> *
| 24>
| 25> #Run DFT-D3 single point of the molecule with dimer basis set
| 26> $new_job
| 27> %base "12-180_DFT_A"
| 28> ! wB97X-D3 def2-TZVP TIGHTSCF CHELPG PMODEL
| 29>
| 30> %scf
| 31> MaxIter 1000
| 32> end
| 33>
| 34> * xyz 0 1
| 35>   C                      -0.727275            1.563052             -0.967298
| 36>   O                      0.096966             0.363734             -0.938946
| 37>   H                      0.008853             -0.073685            -1.808591
| 38>   H                      -1.797823            1.336049             -1.111129
| 39>   H                      -0.641607            2.169287             -0.038777
| 40>   H                      -0.399857            2.277220             -1.734787
| 41>   C                    : 3.238271             1.333997             -1.199064
| 42>   O                    : 2.889391             -0.025859            -0.848731
| 43>   H                    : 2.072859             -0.201433            -1.398011
| 44>   H                    : 3.409819             1.369507             -2.252393
| 45>   H                    : 2.501612             2.119326             -0.895392
| 46>   H                    : 4.174190             1.637378             -0.678773
| 47> *
| 48>
| 49> #Run DFT-D3 single point of the particle with dimer basis set
| 50> $new_job
| 51> %base "12-180_DFT_B"
| 52> ! wB97X-D3 def2-TZVP TIGHTSCF CHELPG PMODEL
| 53>
| 54> %scf
| 55> MaxIter 1000
| 56> end
| 57>
| 58> * xyz 0 1
| 59>   C                    : -0.727275            1.563052             -0.967298
| 60>   O                    : 0.096966             0.363734             -0.938946
| 61>   H                    : 0.008853             -0.073685            -1.808591
| 62>   H                    : -1.797823            1.336049             -1.111129
| 63>   H                    : -0.641607            2.169287             -0.038777
| 64>   H                    : -0.399857            2.277220             -1.734787
| 65>   C                      3.238271             1.333997             -1.199064
| 66>   O                      2.889391             -0.025859            -0.848731
| 67>   H                      2.072859             -0.201433            -1.398011
| 68>   H                      3.409819             1.369507             -2.252393
| 69>   H                      2.501612             2.119326             -0.895392
| 70>   H                      4.174190             1.637378             -0.678773
| 71> *
| 72>
| 73>                          ****END OF INPUT****
 Total Charge           Charge          ....    0
 Multiplicity           Mult            ....    1
 Number of Electrons    NEL             ....   36
Dispersion correction           -0.002059246
FINAL SINGLE POINT ENERGY      -231.465718136862
Dispersion correction           -0.000273636
FINAL SINGLE POINT ENERGY      -115.734220994395

CARTESIAN COORDINATES (ANGSTROEM)
---------------------------------
  C     -0.727275    1.563052   -0.967298
  O      0.096966    0.363734   -0.938946
  H      0.008853   -0.073685   -1.808591
  H     -1.797823    1.336049   -1.111129
  H     -0.641607    2.169287   -0.038777
  H     -0.399857    2.277220   -1.734787
  C      3.238271    1.333997   -1.199064
  O      2.889391   -0.025859   -0.848731
  H      2.072859   -0.201433   -1.398011
  H      3.409819    1.369507   -2.252393
  H      2.501612    2.119326   -0.895392
  H      4.174190    1.637378   -0.678773

 Multiplicity           Mult            ....    1
 Number of Electrons    NEL             ....   18
 Basis Dimension        Dim             ....  172

ORBITAL ENERGIES
----------------

  NO   OCC          E(Eh)            E(eV)
   0   2.0000     -19.237531      -523.4798
   1   2.0000     -10.317193      -280.7451
   2   2.0000      -1.123212       -30.5642
   3   2.0000      -0.791323       -21.5330
   4   2.0000      -0.598875       -16.2962
   5   2.0000      -0.543847       -14.7988
   6   2.0000      -0.518005       -14.0956
   7   2.0000      -0.437647       -11.9090
   8   2.0000      -0.376593       -10.2476
   9   0.0000       0.070921         1.9299
  10   0.0000       0.124204         3.3798
  11   0.0000       0.143625         3.9082
  12   0.0000       0.175838         4.7848
  13   0.0000       0.193795         5.2734

MULLIKEN ATOMIC CHARGES
-----------------------
   0 C :    0.001312
   1 O :   -0.007289
   2 H :   -0.001558
   3 H :    0.000031
   4 H :   -0.000376
   5 H :   -0.000824
   6 C :   -0.187075
   7 O :   -0.464154
   8 H :    0.318103
   9 H :    0.115946
  10 H :    0.104589
  11 H :    0.121295
Sum of atomic charges:   -0.0000000

LOEWDIN ATOMIC CHARGES
----------------------
   0 C :   -0.003682
   1 O :   -0.018091
   2 H :   -0.004820
   3 H :   -0.000031
   4 H :   -0.000237
   5 H :   -0.000612
   6 C :   -0.372197
   7 O :   -0.101647
   8 H :    0.196953
   9 H :    0.091291
  10 H :    0.100716
  11 H :    0.112356

  Mayer bond orders larger than 0.1
B(  6-C ,  7-O ) :   1.0039 B(  6-C ,  9-H ) :   0.9831 B(  6-C , 10-H ) :   0.9654
B(  6-C , 11-H ) :   0.9736 B(  7-O ,  8-H ) :   0.8969

Dispersion correction           -0.000252492
FINAL SINGLE POINT ENERGY      -115.732876882297

DIPOLE MOMENT
-------------
                                X             Y             Z
Electronic contribution:     -0.32199      -1.76020       0.53074
Nuclear contribution   :     -0.00016       2.20095      -1.00492
                        -----------------------------------------
Total Dipole Moment    :     -0.32215       0.44075      -0.47418
                        -----------------------------------------
Magnitude (a.u.)       :      0.72311
Magnitude (Debye)      :      1.83799

Rotational constants in cm-1:     4.183550     0.799856     0.770364
Rotational constants in MHz : 125419.681124 23979.083321 23094.936060

                             ****ORCA TERMINATED NORMALLY****
TOTAL RUN TIME: 0 days 0 hours 1 minutes 14 seconds 625 msec
