                         Program Version 4.1.2  - RELEASE  -
|  1> #Run DFT-D3 single point of the dimer
|  2> ! wB97X-D3 def2-TZVP TIGHTSCF CHELPG PMODEL PAL8
|  3>
|  4> %base "4-187_DFT_AB"
|  5>
|  6> %scf
|  7> MaxIter 1000
|  8> end
|  9>
| 10> * xyz 0 1
| 11>   C                      -9.177588            7.064033             11.243617
| 12>   O                      -9.852172            6.363215             10.263590
| 13>   H                      -10.769782           6.667442             10.336183
| 14>   H                      -9.870230            7.576965             11.905152
| 15>   H                      -8.560566            6.460654             11.984640
| 16>   H                      -8.556942            7.798235             10.810643
| 17>   C                      -8.757181            3.256018             8.675139
| 18>   O                      -8.084824            3.935068             9.688510
| 19>   H                      -8.610949            4.702561             9.839303
| 20>   H                      -8.139815            2.546112             8.129638
| 21>   H                      -9.589177            2.728443             9.080454
| 22>   H                      -9.150695            3.865627             7.921829
| 23> *
| 24>
| 25> #Run DFT-D3 single point of the molecule with dimer basis set
| 26> $new_job
| 27> %base "4-187_DFT_A"
| 28> ! wB97X-D3 def2-TZVP TIGHTSCF CHELPG PMODEL
| 29>
| 30> %scf
| 31> MaxIter 1000
| 32> end
| 33>
| 34> * xyz 0 1
| 35>   C                      -9.177588            7.064033             11.243617
| 36>   O                      -9.852172            6.363215             10.263590
| 37>   H                      -10.769782           6.667442             10.336183
| 38>   H                      -9.870230            7.576965             11.905152
| 39>   H                      -8.560566            6.460654             11.984640
| 40>   H                      -8.556942            7.798235             10.810643
| 41>   C                    : -8.757181            3.256018             8.675139
| 42>   O                    : -8.084824            3.935068             9.688510
| 43>   H                    : -8.610949            4.702561             9.839303
| 44>   H                    : -8.139815            2.546112             8.129638
| 45>   H                    : -9.589177            2.728443             9.080454
| 46>   H                    : -9.150695            3.865627             7.921829
| 47> *
| 48>
| 49> #Run DFT-D3 single point of the particle with dimer basis set
| 50> $new_job
| 51> %base "4-187_DFT_B"
| 52> ! wB97X-D3 def2-TZVP TIGHTSCF CHELPG PMODEL
| 53>
| 54> %scf
| 55> MaxIter 1000
| 56> end
| 57>
| 58> * xyz 0 1
| 59>   C                    : -9.177588            7.064033             11.243617
| 60>   O                    : -9.852172            6.363215             10.263590
| 61>   H                    : -10.769782           6.667442             10.336183
| 62>   H                    : -9.870230            7.576965             11.905152
| 63>   H                    : -8.560566            6.460654             11.984640
| 64>   H                    : -8.556942            7.798235             10.810643
| 65>   C                      -8.757181            3.256018             8.675139
| 66>   O                      -8.084824            3.935068             9.688510
| 67>   H                      -8.610949            4.702561             9.839303
| 68>   H                      -8.139815            2.546112             8.129638
| 69>   H                      -9.589177            2.728443             9.080454
| 70>   H                      -9.150695            3.865627             7.921829
| 71> *
| 72>
| 73>                          ****END OF INPUT****
 Total Charge           Charge          ....    0
 Multiplicity           Mult            ....    1
 Number of Electrons    NEL             ....   36
Dispersion correction           -0.001620034
FINAL SINGLE POINT ENERGY      -231.469489395334
Dispersion correction           -0.000232358
FINAL SINGLE POINT ENERGY      -115.730079131587

CARTESIAN COORDINATES (ANGSTROEM)
---------------------------------
  C     -9.177588    7.064033   11.243617
  O     -9.852172    6.363215   10.263590
  H    -10.769782    6.667442   10.336183
  H     -9.870230    7.576965   11.905152
  H     -8.560566    6.460654   11.984640
  H     -8.556942    7.798235   10.810643
  C     -8.757181    3.256018    8.675139
  O     -8.084824    3.935068    9.688510
  H     -8.610949    4.702561    9.839303
  H     -8.139815    2.546112    8.129638
  H     -9.589177    2.728443    9.080454
  H     -9.150695    3.865627    7.921829

 Multiplicity           Mult            ....    1
 Number of Electrons    NEL             ....   18
 Basis Dimension        Dim             ....  172

ORBITAL ENERGIES
----------------

  NO   OCC          E(Eh)            E(eV)
   0   2.0000     -19.230273      -523.2823
   1   2.0000     -10.301799      -280.3262
   2   2.0000      -1.149147       -31.2699
   3   2.0000      -0.802507       -21.8373
   4   2.0000      -0.621049       -16.8996
   5   2.0000      -0.549221       -14.9451
   6   2.0000      -0.530594       -14.4382
   7   2.0000      -0.438523       -11.9328
   8   2.0000      -0.374546       -10.1919
   9   0.0000       0.071962         1.9582
  10   0.0000       0.130823         3.5599
  11   0.0000       0.158354         4.3090
  12   0.0000       0.166508         4.5309
  13   0.0000       0.194113         5.2821

MULLIKEN ATOMIC CHARGES
-----------------------
   0 C :   -0.001331
   1 O :   -0.001544
   2 H :   -0.000012
   3 H :    0.000146
   4 H :   -0.000526
   5 H :    0.000074
   6 C :   -0.166944
   7 O :   -0.458941
   8 H :    0.309394
   9 H :    0.113364
  10 H :    0.100801
  11 H :    0.105520
Sum of atomic charges:   -0.0000000

LOEWDIN ATOMIC CHARGES
----------------------
   0 C :   -0.004828
   1 O :   -0.011787
   2 H :   -0.000455
   3 H :   -0.000065
   4 H :   -0.000683
   5 H :   -0.000131
   6 C :   -0.393857
   7 O :   -0.041442
   8 H :    0.168477
   9 H :    0.107570
  10 H :    0.090821
  11 H :    0.086379

  Mayer bond orders larger than 0.1
B(  6-C ,  7-O ) :   0.9950 B(  6-C ,  9-H ) :   0.9741 B(  6-C , 10-H ) :   0.9833
B(  6-C , 11-H ) :   0.9808 B(  7-O ,  8-H ) :   0.9138

Dispersion correction           -0.000214268
FINAL SINGLE POINT ENERGY      -115.731956217617

DIPOLE MOMENT
-------------
                                X             Y             Z
Electronic contribution:      1.03550       0.83129       1.34768
Nuclear contribution   :     -1.63348      -0.59633      -1.66947
                        -----------------------------------------
Total Dipole Moment    :     -0.59798       0.23496      -0.32179
                        -----------------------------------------
Magnitude (a.u.)       :      0.71857
Magnitude (Debye)      :      1.82645

Rotational constants in cm-1:     4.583012     0.855277     0.824003
Rotational constants in MHz : 137395.249359 25640.570893 24702.996593

                             ****ORCA TERMINATED NORMALLY****
TOTAL RUN TIME: 0 days 0 hours 1 minutes 36 seconds 921 msec
