                         Program Version 4.1.2  - RELEASE  -
|  1> #Run DFT-D3 single point of the dimer
|  2> ! wB97X-D3 def2-TZVP TIGHTSCF CHELPG PMODEL PAL8
|  3>
|  4> %base "18-129_DFT_AB"
|  5>
|  6> %scf
|  7> MaxIter 1000
|  8> end
|  9>
| 10> * xyz 0 1
| 11>   C                      -7.406621            -1.062606            -5.903901
| 12>   O                      -6.974387            0.219346             -6.228345
| 13>   H                      -7.660141            0.893785             -5.989689
| 14>   H                      -7.602370            -1.107406            -4.873669
| 15>   H                      -8.227226            -1.407391            -6.541051
| 16>   H                      -6.599956            -1.807910            -5.961405
| 17>   C                      -4.316056            -0.856498            -8.775751
| 18>   O                      -4.542268            -0.190144            -7.540663
| 19>   H                      -5.476759            -0.406230            -7.283061
| 20>   H                      -4.513052            -1.905789            -8.747936
| 21>   H                      -4.996496            -0.417810            -9.494669
| 22>   H                      -3.271040            -0.721559            -9.192925
| 23> *
| 24>
| 25> #Run DFT-D3 single point of the molecule with dimer basis set
| 26> $new_job
| 27> %base "18-129_DFT_A"
| 28> ! wB97X-D3 def2-TZVP TIGHTSCF CHELPG PMODEL
| 29>
| 30> %scf
| 31> MaxIter 1000
| 32> end
| 33>
| 34> * xyz 0 1
| 35>   C                      -7.406621            -1.062606            -5.903901
| 36>   O                      -6.974387            0.219346             -6.228345
| 37>   H                      -7.660141            0.893785             -5.989689
| 38>   H                      -7.602370            -1.107406            -4.873669
| 39>   H                      -8.227226            -1.407391            -6.541051
| 40>   H                      -6.599956            -1.807910            -5.961405
| 41>   C                    : -4.316056            -0.856498            -8.775751
| 42>   O                    : -4.542268            -0.190144            -7.540663
| 43>   H                    : -5.476759            -0.406230            -7.283061
| 44>   H                    : -4.513052            -1.905789            -8.747936
| 45>   H                    : -4.996496            -0.417810            -9.494669
| 46>   H                    : -3.271040            -0.721559            -9.192925
| 47> *
| 48>
| 49> #Run DFT-D3 single point of the particle with dimer basis set
| 50> $new_job
| 51> %base "18-129_DFT_B"
| 52> ! wB97X-D3 def2-TZVP TIGHTSCF CHELPG PMODEL
| 53>
| 54> %scf
| 55> MaxIter 1000
| 56> end
| 57>
| 58> * xyz 0 1
| 59>   C                    : -7.406621            -1.062606            -5.903901
| 60>   O                    : -6.974387            0.219346             -6.228345
| 61>   H                    : -7.660141            0.893785             -5.989689
| 62>   H                    : -7.602370            -1.107406            -4.873669
| 63>   H                    : -8.227226            -1.407391            -6.541051
| 64>   H                    : -6.599956            -1.807910            -5.961405
| 65>   C                      -4.316056            -0.856498            -8.775751
| 66>   O                      -4.542268            -0.190144            -7.540663
| 67>   H                      -5.476759            -0.406230            -7.283061
| 68>   H                      -4.513052            -1.905789            -8.747936
| 69>   H                      -4.996496            -0.417810            -9.494669
| 70>   H                      -3.271040            -0.721559            -9.192925
| 71> *
| 72>
| 73>                          ****END OF INPUT****
 Total Charge           Charge          ....    0
 Multiplicity           Mult            ....    1
 Number of Electrons    NEL             ....   36
Dispersion correction           -0.001715080
FINAL SINGLE POINT ENERGY      -231.466652310336
Dispersion correction           -0.000235523
FINAL SINGLE POINT ENERGY      -115.731313494250

CARTESIAN COORDINATES (ANGSTROEM)
---------------------------------
  C     -7.406621   -1.062606   -5.903901
  O     -6.974387    0.219346   -6.228345
  H     -7.660141    0.893785   -5.989689
  H     -7.602370   -1.107406   -4.873669
  H     -8.227226   -1.407391   -6.541051
  H     -6.599956   -1.807910   -5.961405
  C     -4.316056   -0.856498   -8.775751
  O     -4.542268   -0.190144   -7.540663
  H     -5.476759   -0.406230   -7.283061
  H     -4.513052   -1.905789   -8.747936
  H     -4.996496   -0.417810   -9.494669
  H     -3.271040   -0.721559   -9.192925

 Multiplicity           Mult            ....    1
 Number of Electrons    NEL             ....   18
 Basis Dimension        Dim             ....  172

ORBITAL ENERGIES
----------------

  NO   OCC          E(Eh)            E(eV)
   0   2.0000     -19.234294      -523.3918
   1   2.0000     -10.313579      -280.6468
   2   2.0000      -1.129781       -30.7429
   3   2.0000      -0.792278       -21.5590
   4   2.0000      -0.606157       -16.4944
   5   2.0000      -0.543598       -14.7921
   6   2.0000      -0.524908       -14.2835
   7   2.0000      -0.433695       -11.8014
   8   2.0000      -0.372759       -10.1433
   9   0.0000       0.069173         1.8823
  10   0.0000       0.134330         3.6553
  11   0.0000       0.153145         4.1673
  12   0.0000       0.160558         4.3690
  13   0.0000       0.191621         5.2143

MULLIKEN ATOMIC CHARGES
-----------------------
   0 C :    0.000760
   1 O :   -0.001294
   2 H :   -0.000207
   3 H :   -0.000364
   4 H :    0.000306
   5 H :   -0.004408
   6 C :   -0.175684
   7 O :   -0.469634
   8 H :    0.313441
   9 H :    0.110360
  10 H :    0.105978
  11 H :    0.120747
Sum of atomic charges:    0.0000000

LOEWDIN ATOMIC CHARGES
----------------------
   0 C :   -0.011540
   1 O :   -0.019356
   2 H :   -0.000762
   3 H :   -0.000220
   4 H :   -0.000199
   5 H :   -0.003714
   6 C :   -0.385460
   7 O :   -0.082189
   8 H :    0.204197
   9 H :    0.088403
  10 H :    0.093617
  11 H :    0.117223

  Mayer bond orders larger than 0.1
B(  6-C ,  7-O ) :   0.9880 B(  6-C ,  9-H ) :   0.9726 B(  6-C , 10-H ) :   0.9880
B(  6-C , 11-H ) :   0.9686 B(  7-O ,  8-H ) :   0.9000

Dispersion correction           -0.000235008
FINAL SINGLE POINT ENERGY      -115.732386202496

DIPOLE MOMENT
-------------
                                X             Y             Z
Electronic contribution:     -0.09200       0.86307       1.64235
Nuclear contribution   :     -0.39182      -1.26448      -1.99005
                        -----------------------------------------
Total Dipole Moment    :     -0.48383      -0.40141      -0.34770
                        -----------------------------------------
Magnitude (a.u.)       :      0.71841
Magnitude (Debye)      :      1.82605

Rotational constants in cm-1:     4.273458     0.823793     0.788220
Rotational constants in MHz : 128115.058890 24696.684670 23630.230423

                             ****ORCA TERMINATED NORMALLY****
TOTAL RUN TIME: 0 days 0 hours 1 minutes 2 seconds 229 msec
