                         Program Version 4.1.2  - RELEASE  -
|  1> #Run DFT-D3 single point of the dimer
|  2> ! wB97X-D3 def2-TZVP TIGHTSCF CHELPG PMODEL PAL8
|  3>
|  4> %base "20-38_DFT_AB"
|  5>
|  6> %scf
|  7> MaxIter 1000
|  8> end
|  9>
| 10> * xyz 0 1
| 11>   C                      -1.641794            5.307331             1.637861
| 12>   O                      -2.575965            4.229584             1.491744
| 13>   H                      -2.767324            3.875175             2.374490
| 14>   H                      -1.946451            5.984514             2.464272
| 15>   H                      -0.555480            5.066071             1.793109
| 16>   H                      -1.550788            5.846078             0.708489
| 17>   C                      -0.477451            9.753074             0.223859
| 18>   O                      0.595951             9.626312             1.161011
| 19>   H                      1.213924             8.948302             0.696018
| 20>   H                      -1.393533            10.177866            0.700905
| 21>   H                      -0.201069            10.355538            -0.588821
| 22>   H                      -0.716064            8.808393             -0.265206
| 23> *
| 24>
| 25> #Run DFT-D3 single point of the molecule with dimer basis set
| 26> $new_job
| 27> %base "20-38_DFT_A"
| 28> ! wB97X-D3 def2-TZVP TIGHTSCF CHELPG PMODEL
| 29>
| 30> %scf
| 31> MaxIter 1000
| 32> end
| 33>
| 34> * xyz 0 1
| 35>   C                      -1.641794            5.307331             1.637861
| 36>   O                      -2.575965            4.229584             1.491744
| 37>   H                      -2.767324            3.875175             2.374490
| 38>   H                      -1.946451            5.984514             2.464272
| 39>   H                      -0.555480            5.066071             1.793109
| 40>   H                      -1.550788            5.846078             0.708489
| 41>   C                    : -0.477451            9.753074             0.223859
| 42>   O                    : 0.595951             9.626312             1.161011
| 43>   H                    : 1.213924             8.948302             0.696018
| 44>   H                    : -1.393533            10.177866            0.700905
| 45>   H                    : -0.201069            10.355538            -0.588821
| 46>   H                    : -0.716064            8.808393             -0.265206
| 47> *
| 48>
| 49> #Run DFT-D3 single point of the particle with dimer basis set
| 50> $new_job
| 51> %base "20-38_DFT_B"
| 52> ! wB97X-D3 def2-TZVP TIGHTSCF CHELPG PMODEL
| 53>
| 54> %scf
| 55> MaxIter 1000
| 56> end
| 57>
| 58> * xyz 0 1
| 59>   C                    : -1.641794            5.307331             1.637861
| 60>   O                    : -2.575965            4.229584             1.491744
| 61>   H                    : -2.767324            3.875175             2.374490
| 62>   H                    : -1.946451            5.984514             2.464272
| 63>   H                    : -0.555480            5.066071             1.793109
| 64>   H                    : -1.550788            5.846078             0.708489
| 65>   C                      -0.477451            9.753074             0.223859
| 66>   O                      0.595951             9.626312             1.161011
| 67>   H                      1.213924             8.948302             0.696018
| 68>   H                      -1.393533            10.177866            0.700905
| 69>   H                      -0.201069            10.355538            -0.588821
| 70>   H                      -0.716064            8.808393             -0.265206
| 71> *
| 72>
| 73>                          ****END OF INPUT****
 Total Charge           Charge          ....    0
 Multiplicity           Mult            ....    1
 Number of Electrons    NEL             ....   36
Dispersion correction           -0.000958731
FINAL SINGLE POINT ENERGY      -231.461191796475
Dispersion correction           -0.000275766
FINAL SINGLE POINT ENERGY      -115.732319945538

CARTESIAN COORDINATES (ANGSTROEM)
---------------------------------
  C     -1.641794    5.307331    1.637861
  O     -2.575965    4.229584    1.491744
  H     -2.767324    3.875175    2.374490
  H     -1.946451    5.984514    2.464272
  H     -0.555480    5.066071    1.793109
  H     -1.550788    5.846078    0.708489
  C     -0.477451    9.753074    0.223859
  O      0.595951    9.626312    1.161011
  H      1.213924    8.948302    0.696018
  H     -1.393533   10.177866    0.700905
  H     -0.201069   10.355538   -0.588821
  H     -0.716064    8.808393   -0.265206

 Multiplicity           Mult            ....    1
 Number of Electrons    NEL             ....   18
 Basis Dimension        Dim             ....  172

ORBITAL ENERGIES
----------------

  NO   OCC          E(Eh)            E(eV)
   0   2.0000     -19.237501      -523.4790
   1   2.0000     -10.310508      -280.5632
   2   2.0000      -1.122584       -30.5471
   3   2.0000      -0.791877       -21.5481
   4   2.0000      -0.603928       -16.4337
   5   2.0000      -0.537232       -14.6188
   6   2.0000      -0.521197       -14.1825
   7   2.0000      -0.441592       -12.0163
   8   2.0000      -0.371556       -10.1106
   9   0.0000       0.080952         2.2028
  10   0.0000       0.108388         2.9494
  11   0.0000       0.148296         4.0353
  12   0.0000       0.167702         4.5634
  13   0.0000       0.187121         5.0918

MULLIKEN ATOMIC CHARGES
-----------------------
   0 C :   -0.000127
   1 O :    0.000024
   2 H :    0.000002
   3 H :   -0.000056
   4 H :   -0.000015
   5 H :    0.000082
   6 C :   -0.178572
   7 O :   -0.467035
   8 H :    0.314783
   9 H :    0.118584
  10 H :    0.111034
  11 H :    0.101298
Sum of atomic charges:    0.0000000

LOEWDIN ATOMIC CHARGES
----------------------
   0 C :   -0.000272
   1 O :   -0.000009
   2 H :   -0.000002
   3 H :   -0.000031
   4 H :   -0.000022
   5 H :   -0.000452
   6 C :   -0.382901
   7 O :   -0.115705
   8 H :    0.208568
   9 H :    0.112841
  10 H :    0.084480
  11 H :    0.093506

  Mayer bond orders larger than 0.1
B(  6-C ,  7-O ) :   1.0022 B(  6-C ,  9-H ) :   0.9732 B(  6-C , 10-H ) :   0.9742
B(  6-C , 11-H ) :   0.9813 B(  7-O ,  8-H ) :   0.8945

Dispersion correction           -0.000233334
FINAL SINGLE POINT ENERGY      -115.728271703686

DIPOLE MOMENT
-------------
                                X             Y             Z
Electronic contribution:      1.28649      -0.00238       1.36905
Nuclear contribution   :     -1.33694      -0.35537      -2.03804
                        -----------------------------------------
Total Dipole Moment    :     -0.05045      -0.35775      -0.66899
                        -----------------------------------------
Magnitude (a.u.)       :      0.76031
Magnitude (Debye)      :      1.93255

Rotational constants in cm-1:     4.205075     0.825360     0.778836
Rotational constants in MHz : 126064.987419 24743.671478 23348.906839

                             ****ORCA TERMINATED NORMALLY****
TOTAL RUN TIME: 0 days 0 hours 1 minutes 7 seconds 485 msec
