                         Program Version 4.1.2  - RELEASE  -
|  1> #Run DFT-D3 single point of the dimer
|  2> ! wB97X-D3 def2-TZVP TIGHTSCF CHELPG PMODEL PAL8
|  3>
|  4> %base "16-115_DFT_AB"
|  5>
|  6> %scf
|  7> MaxIter 1000
|  8> end
|  9>
| 10> * xyz 0 1
| 11>   C                      8.171341             -2.866437            10.761363
| 12>   O                      8.768509             -1.730404            10.103269
| 13>   H                      8.833722             -1.952855            9.157692
| 14>   H                      8.945572             -3.510816            11.283020
| 15>   H                      7.487965             -2.440184            11.449650
| 16>   H                      7.546740             -3.462336            10.028059
| 17>   C                      9.327347             -2.747577            6.526902
| 18>   O                      9.794816             -2.016518            7.571292
| 19>   H                      10.630786            -1.615085            7.249176
| 20>   H                      8.257694             -2.683483            6.445305
| 21>   H                      9.766407             -2.322304            5.640079
| 22>   H                      9.640952             -3.802906            6.596230
| 23> *
| 24>
| 25> #Run DFT-D3 single point of the molecule with dimer basis set
| 26> $new_job
| 27> %base "16-115_DFT_A"
| 28> ! wB97X-D3 def2-TZVP TIGHTSCF CHELPG PMODEL
| 29>
| 30> %scf
| 31> MaxIter 1000
| 32> end
| 33>
| 34> * xyz 0 1
| 35>   C                      8.171341             -2.866437            10.761363
| 36>   O                      8.768509             -1.730404            10.103269
| 37>   H                      8.833722             -1.952855            9.157692
| 38>   H                      8.945572             -3.510816            11.283020
| 39>   H                      7.487965             -2.440184            11.449650
| 40>   H                      7.546740             -3.462336            10.028059
| 41>   C                    : 9.327347             -2.747577            6.526902
| 42>   O                    : 9.794816             -2.016518            7.571292
| 43>   H                    : 10.630786            -1.615085            7.249176
| 44>   H                    : 8.257694             -2.683483            6.445305
| 45>   H                    : 9.766407             -2.322304            5.640079
| 46>   H                    : 9.640952             -3.802906            6.596230
| 47> *
| 48>
| 49> #Run DFT-D3 single point of the particle with dimer basis set
| 50> $new_job
| 51> %base "16-115_DFT_B"
| 52> ! wB97X-D3 def2-TZVP TIGHTSCF CHELPG PMODEL
| 53>
| 54> %scf
| 55> MaxIter 1000
| 56> end
| 57>
| 58> * xyz 0 1
| 59>   C                    : 8.171341             -2.866437            10.761363
| 60>   O                    : 8.768509             -1.730404            10.103269
| 61>   H                    : 8.833722             -1.952855            9.157692
| 62>   H                    : 8.945572             -3.510816            11.283020
| 63>   H                    : 7.487965             -2.440184            11.449650
| 64>   H                    : 7.546740             -3.462336            10.028059
| 65>   C                      9.327347             -2.747577            6.526902
| 66>   O                      9.794816             -2.016518            7.571292
| 67>   H                      10.630786            -1.615085            7.249176
| 68>   H                      8.257694             -2.683483            6.445305
| 69>   H                      9.766407             -2.322304            5.640079
| 70>   H                      9.640952             -3.802906            6.596230
| 71> *
| 72>
| 73>                          ****END OF INPUT****
 Total Charge           Charge          ....    0
 Multiplicity           Mult            ....    1
 Number of Electrons    NEL             ....   36
Dispersion correction           -0.001631484
FINAL SINGLE POINT ENERGY      -231.468269223490
Dispersion correction           -0.000258477
FINAL SINGLE POINT ENERGY      -115.732546497670

CARTESIAN COORDINATES (ANGSTROEM)
---------------------------------
  C      8.171341   -2.866437   10.761363
  O      8.768509   -1.730404   10.103269
  H      8.833722   -1.952855    9.157692
  H      8.945572   -3.510816   11.283020
  H      7.487965   -2.440184   11.449650
  H      7.546740   -3.462336   10.028059
  C      9.327347   -2.747577    6.526902
  O      9.794816   -2.016518    7.571292
  H     10.630786   -1.615085    7.249176
  H      8.257694   -2.683483    6.445305
  H      9.766407   -2.322304    5.640079
  H      9.640952   -3.802906    6.596230

 Multiplicity           Mult            ....    1
 Number of Electrons    NEL             ....   18
 Basis Dimension        Dim             ....  172

ORBITAL ENERGIES
----------------

  NO   OCC          E(Eh)            E(eV)
   0   2.0000     -19.230326      -523.2838
   1   2.0000     -10.304950      -280.4120
   2   2.0000      -1.153537       -31.3893
   3   2.0000      -0.789719       -21.4893
   4   2.0000      -0.621190       -16.9034
   5   2.0000      -0.550002       -14.9663
   6   2.0000      -0.539133       -14.6705
   7   2.0000      -0.428950       -11.6723
   8   2.0000      -0.369455       -10.0534
   9   0.0000       0.096806         2.6342
  10   0.0000       0.118097         3.2136
  11   0.0000       0.157157         4.2765
  12   0.0000       0.192661         5.2426
  13   0.0000       0.201657         5.4874

MULLIKEN ATOMIC CHARGES
-----------------------
   0 C :   -0.000497
   1 O :    0.004399
   2 H :   -0.017075
   3 H :    0.000002
   4 H :   -0.000172
   5 H :    0.000175
   6 C :   -0.143383
   7 O :   -0.451532
   8 H :    0.316512
   9 H :    0.113908
  10 H :    0.088011
  11 H :    0.089653
Sum of atomic charges:   -0.0000000

LOEWDIN ATOMIC CHARGES
----------------------
   0 C :   -0.001806
   1 O :   -0.009028
   2 H :   -0.048618
   3 H :   -0.000063
   4 H :   -0.000055
   5 H :   -0.000079
   6 C :   -0.420957
   7 O :    0.001295
   8 H :    0.189847
   9 H :    0.100342
  10 H :    0.093934
  11 H :    0.095186

  Mayer bond orders larger than 0.1
B(  6-C ,  7-O ) :   0.9984 B(  6-C ,  9-H ) :   0.9780 B(  6-C , 10-H ) :   0.9928
B(  6-C , 11-H ) :   0.9723 B(  7-O ,  8-H ) :   0.8953

Dispersion correction           -0.000205406
FINAL SINGLE POINT ENERGY      -115.730691474454

DIPOLE MOMENT
-------------
                                X             Y             Z
Electronic contribution:      0.42596       0.91899       1.49191
Nuclear contribution   :     -0.06392      -0.90007      -2.09415
                        -----------------------------------------
Total Dipole Moment    :      0.36204       0.01892      -0.60224
                        -----------------------------------------
Magnitude (a.u.)       :      0.70294
Magnitude (Debye)      :      1.78672

Rotational constants in cm-1:     4.254695     0.898111     0.863864
Rotational constants in MHz : 127552.548578 26924.704546 25897.983103

                             ****ORCA TERMINATED NORMALLY****
TOTAL RUN TIME: 0 days 0 hours 0 minutes 55 seconds 777 msec
