                         Program Version 4.1.2  - RELEASE  -
|  1> #Run DFT-D3 single point of the dimer
|  2> ! wB97X-D3 def2-TZVP TIGHTSCF CHELPG PMODEL PAL8
|  3>
|  4> %base "21-83_DFT_AB"
|  5>
|  6> %scf
|  7> MaxIter 1000
|  8> end
|  9>
| 10> * xyz 0 1
| 11>   C                      5.544735             -10.686815           11.416384
| 12>   O                      6.569693             -9.635221            11.320580
| 13>   H                      6.852224             -9.461157            10.453404
| 14>   H                      4.580030             -10.332522           11.784910
| 15>   H                      5.292785             -11.100604           10.397652
| 16>   H                      5.884410             -11.404736           12.195480
| 17>   C                      3.860026             -6.475431            9.711932
| 18>   O                      2.678822             -7.244921            9.537675
| 19>   H                      2.678059             -7.521312            8.614185
| 20>   H                      3.803624             -5.439931            9.299957
| 21>   H                      4.100571             -6.367934            10.805068
| 22>   H                      4.776502             -6.869798            9.342097
| 23> *
| 24>
| 25> #Run DFT-D3 single point of the molecule with dimer basis set
| 26> $new_job
| 27> %base "21-83_DFT_A"
| 28> ! wB97X-D3 def2-TZVP TIGHTSCF CHELPG PMODEL
| 29>
| 30> %scf
| 31> MaxIter 1000
| 32> end
| 33>
| 34> * xyz 0 1
| 35>   C                      5.544735             -10.686815           11.416384
| 36>   O                      6.569693             -9.635221            11.320580
| 37>   H                      6.852224             -9.461157            10.453404
| 38>   H                      4.580030             -10.332522           11.784910
| 39>   H                      5.292785             -11.100604           10.397652
| 40>   H                      5.884410             -11.404736           12.195480
| 41>   C                    : 3.860026             -6.475431            9.711932
| 42>   O                    : 2.678822             -7.244921            9.537675
| 43>   H                    : 2.678059             -7.521312            8.614185
| 44>   H                    : 3.803624             -5.439931            9.299957
| 45>   H                    : 4.100571             -6.367934            10.805068
| 46>   H                    : 4.776502             -6.869798            9.342097
| 47> *
| 48>
| 49> #Run DFT-D3 single point of the particle with dimer basis set
| 50> $new_job
| 51> %base "21-83_DFT_B"
| 52> ! wB97X-D3 def2-TZVP TIGHTSCF CHELPG PMODEL
| 53>
| 54> %scf
| 55> MaxIter 1000
| 56> end
| 57>
| 58> * xyz 0 1
| 59>   C                    : 5.544735             -10.686815           11.416384
| 60>   O                    : 6.569693             -9.635221            11.320580
| 61>   H                    : 6.852224             -9.461157            10.453404
| 62>   H                    : 4.580030             -10.332522           11.784910
| 63>   H                    : 5.292785             -11.100604           10.397652
| 64>   H                    : 5.884410             -11.404736           12.195480
| 65>   C                      3.860026             -6.475431            9.711932
| 66>   O                      2.678822             -7.244921            9.537675
| 67>   H                      2.678059             -7.521312            8.614185
| 68>   H                      3.803624             -5.439931            9.299957
| 69>   H                      4.100571             -6.367934            10.805068
| 70>   H                      4.776502             -6.869798            9.342097
| 71> *
| 72>
| 73>                          ****END OF INPUT****
 Total Charge           Charge          ....    0
 Multiplicity           Mult            ....    1
 Number of Electrons    NEL             ....   36
Dispersion correction           -0.001107157
FINAL SINGLE POINT ENERGY      -231.461778948309
Dispersion correction           -0.000289160
FINAL SINGLE POINT ENERGY      -115.728228999199

CARTESIAN COORDINATES (ANGSTROEM)
---------------------------------
  C      5.544735  -10.686815   11.416384
  O      6.569693   -9.635221   11.320580
  H      6.852224   -9.461157   10.453404
  H      4.580030  -10.332522   11.784910
  H      5.292785  -11.100604   10.397652
  H      5.884410  -11.404736   12.195480
  C      3.860026   -6.475431    9.711932
  O      2.678822   -7.244921    9.537675
  H      2.678059   -7.521312    8.614185
  H      3.803624   -5.439931    9.299957
  H      4.100571   -6.367934   10.805068
  H      4.776502   -6.869798    9.342097

 Multiplicity           Mult            ....    1
 Number of Electrons    NEL             ....   18
 Basis Dimension        Dim             ....  172

ORBITAL ENERGIES
----------------

  NO   OCC          E(Eh)            E(eV)
   0   2.0000     -19.236984      -523.4649
   1   2.0000     -10.315452      -280.6977
   2   2.0000      -1.137248       -30.9461
   3   2.0000      -0.796115       -21.6634
   4   2.0000      -0.614467       -16.7205
   5   2.0000      -0.537366       -14.6225
   6   2.0000      -0.520987       -14.1768
   7   2.0000      -0.436084       -11.8664
   8   2.0000      -0.377914       -10.2836
   9   0.0000       0.084178         2.2906
  10   0.0000       0.120235         3.2718
  11   0.0000       0.142708         3.8833
  12   0.0000       0.167909         4.5690
  13   0.0000       0.191594         5.2135

MULLIKEN ATOMIC CHARGES
-----------------------
   0 C :    0.000144
   1 O :   -0.000046
   2 H :   -0.000143
   3 H :   -0.000441
   4 H :   -0.000027
   5 H :   -0.000018
   6 C :   -0.173216
   7 O :   -0.466479
   8 H :    0.315622
   9 H :    0.100845
  10 H :    0.116841
  11 H :    0.106919
Sum of atomic charges:    0.0000000

LOEWDIN ATOMIC CHARGES
----------------------
   0 C :   -0.000198
   1 O :   -0.000072
   2 H :   -0.000246
   3 H :   -0.000179
   4 H :   -0.000021
   5 H :   -0.000009
   6 C :   -0.395431
   7 O :   -0.076927
   8 H :    0.173158
   9 H :    0.097868
  10 H :    0.115017
  11 H :    0.087040

  Mayer bond orders larger than 0.1
B(  6-C ,  7-O ) :   1.0046 B(  6-C ,  9-H ) :   0.9726 B(  6-C , 10-H ) :   0.9757
B(  6-C , 11-H ) :   0.9716 B(  7-O ,  8-H ) :   0.8992

Dispersion correction           -0.000266445
FINAL SINGLE POINT ENERGY      -115.732925082330

DIPOLE MOMENT
-------------
                                X             Y             Z
Electronic contribution:     -1.65574      -1.08732      -0.19495
Nuclear contribution   :      2.13789       1.19251      -0.31937
                        -----------------------------------------
Total Dipole Moment    :      0.48214       0.10519      -0.51431
                        -----------------------------------------
Magnitude (a.u.)       :      0.71277
Magnitude (Debye)      :      1.81172

Rotational constants in cm-1:     4.396324     0.810932     0.783305
Rotational constants in MHz : 131798.492765 24311.124414 23482.894981

                             ****ORCA TERMINATED NORMALLY****
TOTAL RUN TIME: 0 days 0 hours 0 minutes 55 seconds 166 msec
