                         Program Version 4.1.2  - RELEASE  -
|  1> #Run DFT-D3 single point of the dimer
|  2> ! wB97X-D3 def2-TZVP TIGHTSCF CHELPG PMODEL PAL8
|  3>
|  4> %base "11-153_DFT_AB"
|  5>
|  6> %scf
|  7> MaxIter 1000
|  8> end
|  9>
| 10> * xyz 0 1
| 11>   C                      -5.235882            3.625782             3.629223
| 12>   O                      -5.157352            3.575601             2.260142
| 13>   H                      -5.339816            4.474139             1.905838
| 14>   H                      -4.746919            2.763487             4.126884
| 15>   H                      -4.722941            4.481456             4.022618
| 16>   H                      -6.300535            3.639498             3.943306
| 17>   C                      -6.627658            7.081964             3.362169
| 18>   O                      -5.285582            6.645281             3.332176
| 19>   H                      -5.029885            6.674027             2.389215
| 20>   H                      -7.282603            6.314999             2.972260
| 21>   H                      -6.947798            7.487413             4.321601
| 22>   H                      -6.790034            7.846642             2.565367
| 23> *
| 24>
| 25> #Run DFT-D3 single point of the molecule with dimer basis set
| 26> $new_job
| 27> %base "11-153_DFT_A"
| 28> ! wB97X-D3 def2-TZVP TIGHTSCF CHELPG PMODEL
| 29>
| 30> %scf
| 31> MaxIter 1000
| 32> end
| 33>
| 34> * xyz 0 1
| 35>   C                      -5.235882            3.625782             3.629223
| 36>   O                      -5.157352            3.575601             2.260142
| 37>   H                      -5.339816            4.474139             1.905838
| 38>   H                      -4.746919            2.763487             4.126884
| 39>   H                      -4.722941            4.481456             4.022618
| 40>   H                      -6.300535            3.639498             3.943306
| 41>   C                    : -6.627658            7.081964             3.362169
| 42>   O                    : -5.285582            6.645281             3.332176
| 43>   H                    : -5.029885            6.674027             2.389215
| 44>   H                    : -7.282603            6.314999             2.972260
| 45>   H                    : -6.947798            7.487413             4.321601
| 46>   H                    : -6.790034            7.846642             2.565367
| 47> *
| 48>
| 49> #Run DFT-D3 single point of the particle with dimer basis set
| 50> $new_job
| 51> %base "11-153_DFT_B"
| 52> ! wB97X-D3 def2-TZVP TIGHTSCF CHELPG PMODEL
| 53>
| 54> %scf
| 55> MaxIter 1000
| 56> end
| 57>
| 58> * xyz 0 1
| 59>   C                    : -5.235882            3.625782             3.629223
| 60>   O                    : -5.157352            3.575601             2.260142
| 61>   H                    : -5.339816            4.474139             1.905838
| 62>   H                    : -4.746919            2.763487             4.126884
| 63>   H                    : -4.722941            4.481456             4.022618
| 64>   H                    : -6.300535            3.639498             3.943306
| 65>   C                      -6.627658            7.081964             3.362169
| 66>   O                      -5.285582            6.645281             3.332176
| 67>   H                      -5.029885            6.674027             2.389215
| 68>   H                      -7.282603            6.314999             2.972260
| 69>   H                      -6.947798            7.487413             4.321601
| 70>   H                      -6.790034            7.846642             2.565367
| 71> *
| 72>
| 73>                          ****END OF INPUT****
 Total Charge           Charge          ....    0
 Multiplicity           Mult            ....    1
 Number of Electrons    NEL             ....   36
Dispersion correction           -0.002303715
FINAL SINGLE POINT ENERGY      -231.465471186876
Dispersion correction           -0.000224264
FINAL SINGLE POINT ENERGY      -115.733863953237

CARTESIAN COORDINATES (ANGSTROEM)
---------------------------------
  C     -5.235882    3.625782    3.629223
  O     -5.157352    3.575601    2.260142
  H     -5.339816    4.474139    1.905838
  H     -4.746919    2.763487    4.126884
  H     -4.722941    4.481456    4.022618
  H     -6.300535    3.639498    3.943306
  C     -6.627658    7.081964    3.362169
  O     -5.285582    6.645281    3.332176
  H     -5.029885    6.674027    2.389215
  H     -7.282603    6.314999    2.972260
  H     -6.947798    7.487413    4.321601
  H     -6.790034    7.846642    2.565367

 Multiplicity           Mult            ....    1
 Number of Electrons    NEL             ....   18
 Basis Dimension        Dim             ....  172

ORBITAL ENERGIES
----------------

  NO   OCC          E(Eh)            E(eV)
   0   2.0000     -19.234549      -523.3987
   1   2.0000     -10.314928      -280.6835
   2   2.0000      -1.137409       -30.9505
   3   2.0000      -0.793505       -21.5924
   4   2.0000      -0.614504       -16.7215
   5   2.0000      -0.542251       -14.7554
   6   2.0000      -0.526245       -14.3198
   7   2.0000      -0.439830       -11.9684
   8   2.0000      -0.370123       -10.0716
   9   0.0000       0.090078         2.4512
  10   0.0000       0.129915         3.5352
  11   0.0000       0.151059         4.1105
  12   0.0000       0.174079         4.7369
  13   0.0000       0.196005         5.3336

MULLIKEN ATOMIC CHARGES
-----------------------
   0 C :    0.007750
   1 O :    0.000444
   2 H :   -0.012683
   3 H :   -0.000228
   4 H :   -0.008759
   5 H :   -0.001211
   6 C :   -0.171972
   7 O :   -0.461926
   8 H :    0.320050
   9 H :    0.107175
  10 H :    0.124443
  11 H :    0.096917
Sum of atomic charges:   -0.0000000

LOEWDIN ATOMIC CHARGES
----------------------
   0 C :   -0.017346
   1 O :   -0.001443
   2 H :   -0.009227
   3 H :   -0.000154
   4 H :   -0.016882
   5 H :   -0.000911
   6 C :   -0.389252
   7 O :   -0.048634
   8 H :    0.184821
   9 H :    0.092910
  10 H :    0.106745
  11 H :    0.099373

  Mayer bond orders larger than 0.1
B(  6-C ,  7-O ) :   0.9949 B(  6-C ,  9-H ) :   0.9720 B(  6-C , 10-H ) :   0.9723
B(  6-C , 11-H ) :   0.9849 B(  7-O ,  8-H ) :   0.8934

Dispersion correction           -0.000225275
FINAL SINGLE POINT ENERGY      -115.731828169126

DIPOLE MOMENT
-------------
                                X             Y             Z
Electronic contribution:      1.75769      -0.59968       0.34342
Nuclear contribution   :     -2.12751       0.81110      -0.92780
                        -----------------------------------------
Total Dipole Moment    :     -0.36983       0.21142      -0.58438
                        -----------------------------------------
Magnitude (a.u.)       :      0.72317
Magnitude (Debye)      :      1.83815

Rotational constants in cm-1:     4.251060     0.841102     0.797193
Rotational constants in MHz : 127443.562654 25215.598704 23899.249198

                             ****ORCA TERMINATED NORMALLY****
TOTAL RUN TIME: 0 days 0 hours 1 minutes 12 seconds 676 msec
