                         Program Version 4.1.2  - RELEASE  -
|  1> #Run DFT-D3 single point of the dimer
|  2> ! wB97X-D3 def2-TZVP TIGHTSCF CHELPG PMODEL PAL8
|  3>
|  4> %base "8-27_DFT_AB"
|  5>
|  6> %scf
|  7> MaxIter 1000
|  8> end
|  9>
| 10> * xyz 0 1
| 11>   C                      1.242681             -1.490844            -1.242399
| 12>   O                      2.017750             -2.223303            -0.392427
| 13>   H                      2.854270             -2.385998            -0.915143
| 14>   H                      0.235646             -1.382705            -0.890573
| 15>   H                      1.563453             -0.460555            -1.422829
| 16>   H                      1.015853             -1.921014            -2.215583
| 17>   C                      -0.915505            -1.309823            3.665352
| 18>   O                      -0.468235            -0.920352            5.001852
| 19>   H                      0.109127             -0.150071            5.001110
| 20>   H                      -1.528910            -2.242467            3.688094
| 21>   H                      -1.449078            -0.451866            3.227574
| 22>   H                      -0.109767            -1.463050            2.909293
| 23> *
| 24>
| 25> #Run DFT-D3 single point of the molecule with dimer basis set
| 26> $new_job
| 27> %base "8-27_DFT_A"
| 28> ! wB97X-D3 def2-TZVP TIGHTSCF CHELPG PMODEL
| 29>
| 30> %scf
| 31> MaxIter 1000
| 32> end
| 33>
| 34> * xyz 0 1
| 35>   C                      1.242681             -1.490844            -1.242399
| 36>   O                      2.017750             -2.223303            -0.392427
| 37>   H                      2.854270             -2.385998            -0.915143
| 38>   H                      0.235646             -1.382705            -0.890573
| 39>   H                      1.563453             -0.460555            -1.422829
| 40>   H                      1.015853             -1.921014            -2.215583
| 41>   C                    : -0.915505            -1.309823            3.665352
| 42>   O                    : -0.468235            -0.920352            5.001852
| 43>   H                    : 0.109127             -0.150071            5.001110
| 44>   H                    : -1.528910            -2.242467            3.688094
| 45>   H                    : -1.449078            -0.451866            3.227574
| 46>   H                    : -0.109767            -1.463050            2.909293
| 47> *
| 48>
| 49> #Run DFT-D3 single point of the particle with dimer basis set
| 50> $new_job
| 51> %base "8-27_DFT_B"
| 52> ! wB97X-D3 def2-TZVP TIGHTSCF CHELPG PMODEL
| 53>
| 54> %scf
| 55> MaxIter 1000
| 56> end
| 57>
| 58> * xyz 0 1
| 59>   C                    : 1.242681             -1.490844            -1.242399
| 60>   O                    : 2.017750             -2.223303            -0.392427
| 61>   H                    : 2.854270             -2.385998            -0.915143
| 62>   H                    : 0.235646             -1.382705            -0.890573
| 63>   H                    : 1.563453             -0.460555            -1.422829
| 64>   H                    : 1.015853             -1.921014            -2.215583
| 65>   C                      -0.915505            -1.309823            3.665352
| 66>   O                      -0.468235            -0.920352            5.001852
| 67>   H                      0.109127             -0.150071            5.001110
| 68>   H                      -1.528910            -2.242467            3.688094
| 69>   H                      -1.449078            -0.451866            3.227574
| 70>   H                      -0.109767            -1.463050            2.909293
| 71> *
| 72>
| 73>                          ****END OF INPUT****
 Total Charge           Charge          ....    0
 Multiplicity           Mult            ....    1
 Number of Electrons    NEL             ....   36
Dispersion correction           -0.000772087
FINAL SINGLE POINT ENERGY      -231.460785025357
Dispersion correction           -0.000235095
FINAL SINGLE POINT ENERGY      -115.729771833182

CARTESIAN COORDINATES (ANGSTROEM)
---------------------------------
  C      1.242681   -1.490844   -1.242399
  O      2.017750   -2.223303   -0.392427
  H      2.854270   -2.385998   -0.915143
  H      0.235646   -1.382705   -0.890573
  H      1.563453   -0.460555   -1.422829
  H      1.015853   -1.921014   -2.215583
  C     -0.915505   -1.309823    3.665352
  O     -0.468235   -0.920352    5.001852
  H      0.109127   -0.150071    5.001110
  H     -1.528910   -2.242467    3.688094
  H     -1.449078   -0.451866    3.227574
  H     -0.109767   -1.463050    2.909293

 Multiplicity           Mult            ....    1
 Number of Electrons    NEL             ....   18
 Basis Dimension        Dim             ....  172

ORBITAL ENERGIES
----------------

  NO   OCC          E(Eh)            E(eV)
   0   2.0000     -19.229109      -523.2506
   1   2.0000     -10.324161      -280.9347
   2   2.0000      -1.118545       -30.4372
   3   2.0000      -0.796036       -21.6612
   4   2.0000      -0.605932       -16.4882
   5   2.0000      -0.533018       -14.5041
   6   2.0000      -0.516379       -14.0514
   7   2.0000      -0.433524       -11.7968
   8   2.0000      -0.371197       -10.1008
   9   0.0000       0.080267         2.1842
  10   0.0000       0.115187         3.1344
  11   0.0000       0.139237         3.7888
  12   0.0000       0.162767         4.4291
  13   0.0000       0.179774         4.8919

MULLIKEN ATOMIC CHARGES
-----------------------
   0 C :   -0.000053
   1 O :    0.000011
   2 H :    0.000002
   3 H :   -0.000104
   4 H :   -0.000002
   5 H :   -0.000005
   6 C :   -0.171293
   7 O :   -0.490658
   8 H :    0.316079
   9 H :    0.131559
  10 H :    0.110266
  11 H :    0.104199
Sum of atomic charges:    0.0000000

LOEWDIN ATOMIC CHARGES
----------------------
   0 C :   -0.000187
   1 O :   -0.000060
   2 H :   -0.000003
   3 H :   -0.000107
   4 H :   -0.000003
   5 H :   -0.000003
   6 C :   -0.358802
   7 O :   -0.115242
   8 H :    0.164552
   9 H :    0.115277
  10 H :    0.097514
  11 H :    0.097065

  Mayer bond orders larger than 0.1
B(  6-C ,  7-O ) :   0.9872 B(  6-C ,  9-H ) :   0.9687 B(  6-C , 10-H ) :   0.9793
B(  6-C , 11-H ) :   0.9678 B(  7-O ,  8-H ) :   0.8953

Dispersion correction           -0.000284327
FINAL SINGLE POINT ENERGY      -115.730436438957

DIPOLE MOMENT
-------------
                                X             Y             Z
Electronic contribution:      0.45817       0.29913       1.77534
Nuclear contribution   :     -0.27463       0.03689      -2.35944
                        -----------------------------------------
Total Dipole Moment    :      0.18355       0.33602      -0.58410
                        -----------------------------------------
Magnitude (a.u.)       :      0.69840
Magnitude (Debye)      :      1.77520

Rotational constants in cm-1:     4.296033     0.777888     0.743512
Rotational constants in MHz : 128791.827141 23320.508207 22289.941281

                             ****ORCA TERMINATED NORMALLY****
TOTAL RUN TIME: 0 days 0 hours 0 minutes 40 seconds 4 msec
