                         Program Version 4.1.2  - RELEASE  -
|  1> #Run DFT-D3 single point of the dimer
|  2> ! wB97X-D3 def2-TZVP TIGHTSCF CHELPG PMODEL PAL8
|  3>
|  4> %base "8-121_DFT_AB"
|  5>
|  6> %scf
|  7> MaxIter 1000
|  8> end
|  9>
| 10> * xyz 0 1
| 11>   C                      -6.308179            -5.387465            -2.161918
| 12>   O                      -4.901234            -5.451709            -1.749648
| 13>   H                      -4.873933            -6.027285            -0.960875
| 14>   H                      -6.791508            -4.616564            -1.659120
| 15>   H                      -6.432112            -5.097386            -3.261564
| 16>   H                      -6.785034            -6.313867            -1.949980
| 17>   C                      -1.927420            -4.681478            -0.819635
| 18>   O                      -1.601244            -3.450223            -0.213688
| 19>   H                      -0.920131            -3.522494            0.448102
| 20>   H                      -0.976342            -5.266866            -0.868850
| 21>   H                      -2.627015            -5.271775            -0.204945
| 22>   H                      -2.341092            -4.634469            -1.832706
| 23> *
| 24>
| 25> #Run DFT-D3 single point of the molecule with dimer basis set
| 26> $new_job
| 27> %base "8-121_DFT_A"
| 28> ! wB97X-D3 def2-TZVP TIGHTSCF CHELPG PMODEL
| 29>
| 30> %scf
| 31> MaxIter 1000
| 32> end
| 33>
| 34> * xyz 0 1
| 35>   C                      -6.308179            -5.387465            -2.161918
| 36>   O                      -4.901234            -5.451709            -1.749648
| 37>   H                      -4.873933            -6.027285            -0.960875
| 38>   H                      -6.791508            -4.616564            -1.659120
| 39>   H                      -6.432112            -5.097386            -3.261564
| 40>   H                      -6.785034            -6.313867            -1.949980
| 41>   C                    : -1.927420            -4.681478            -0.819635
| 42>   O                    : -1.601244            -3.450223            -0.213688
| 43>   H                    : -0.920131            -3.522494            0.448102
| 44>   H                    : -0.976342            -5.266866            -0.868850
| 45>   H                    : -2.627015            -5.271775            -0.204945
| 46>   H                    : -2.341092            -4.634469            -1.832706
| 47> *
| 48>
| 49> #Run DFT-D3 single point of the particle with dimer basis set
| 50> $new_job
| 51> %base "8-121_DFT_B"
| 52> ! wB97X-D3 def2-TZVP TIGHTSCF CHELPG PMODEL
| 53>
| 54> %scf
| 55> MaxIter 1000
| 56> end
| 57>
| 58> * xyz 0 1
| 59>   C                    : -6.308179            -5.387465            -2.161918
| 60>   O                    : -4.901234            -5.451709            -1.749648
| 61>   H                    : -4.873933            -6.027285            -0.960875
| 62>   H                    : -6.791508            -4.616564            -1.659120
| 63>   H                    : -6.432112            -5.097386            -3.261564
| 64>   H                    : -6.785034            -6.313867            -1.949980
| 65>   C                      -1.927420            -4.681478            -0.819635
| 66>   O                      -1.601244            -3.450223            -0.213688
| 67>   H                      -0.920131            -3.522494            0.448102
| 68>   H                      -0.976342            -5.266866            -0.868850
| 69>   H                      -2.627015            -5.271775            -0.204945
| 70>   H                      -2.341092            -4.634469            -1.832706
| 71> *
| 72>
| 73>                          ****END OF INPUT****
 Total Charge           Charge          ....    0
 Multiplicity           Mult            ....    1
 Number of Electrons    NEL             ....   36
Dispersion correction           -0.001495344
FINAL SINGLE POINT ENERGY      -231.462080183643
Dispersion correction           -0.000252693
FINAL SINGLE POINT ENERGY      -115.729285999687

CARTESIAN COORDINATES (ANGSTROEM)
---------------------------------
  C     -6.308179   -5.387465   -2.161918
  O     -4.901234   -5.451709   -1.749648
  H     -4.873933   -6.027285   -0.960875
  H     -6.791508   -4.616564   -1.659120
  H     -6.432112   -5.097386   -3.261564
  H     -6.785034   -6.313867   -1.949980
  C     -1.927420   -4.681478   -0.819635
  O     -1.601244   -3.450223   -0.213688
  H     -0.920131   -3.522494    0.448102
  H     -0.976342   -5.266866   -0.868850
  H     -2.627015   -5.271775   -0.204945
  H     -2.341092   -4.634469   -1.832706

 Multiplicity           Mult            ....    1
 Number of Electrons    NEL             ....   18
 Basis Dimension        Dim             ....  172

ORBITAL ENERGIES
----------------

  NO   OCC          E(Eh)            E(eV)
   0   2.0000     -19.226812      -523.1882
   1   2.0000     -10.317972      -280.7663
   2   2.0000      -1.135136       -30.8886
   3   2.0000      -0.795993       -21.6601
   4   2.0000      -0.612256       -16.6603
   5   2.0000      -0.537247       -14.6192
   6   2.0000      -0.536222       -14.5914
   7   2.0000      -0.422268       -11.4905
   8   2.0000      -0.371253       -10.1023
   9   0.0000       0.087830         2.3900
  10   0.0000       0.114984         3.1289
  11   0.0000       0.145896         3.9700
  12   0.0000       0.175573         4.7776
  13   0.0000       0.197647         5.3783

MULLIKEN ATOMIC CHARGES
-----------------------
   0 C :   -0.000785
   1 O :   -0.001506
   2 H :   -0.000066
   3 H :    0.000017
   4 H :   -0.000001
   5 H :    0.000019
   6 C :   -0.155771
   7 O :   -0.480633
   8 H :    0.319724
   9 H :    0.097627
  10 H :    0.097625
  11 H :    0.123749
Sum of atomic charges:    0.0000000

LOEWDIN ATOMIC CHARGES
----------------------
   0 C :   -0.000271
   1 O :   -0.005293
   2 H :   -0.003956
   3 H :   -0.000009
   4 H :   -0.000012
   5 H :   -0.000006
   6 C :   -0.384407
   7 O :   -0.075030
   8 H :    0.164006
   9 H :    0.099961
  10 H :    0.096548
  11 H :    0.108468

  Mayer bond orders larger than 0.1
B(  6-C ,  7-O ) :   0.9957 B(  6-C ,  9-H ) :   0.9860 B(  6-C , 10-H ) :   0.9726
B(  6-C , 11-H ) :   0.9665 B(  7-O ,  8-H ) :   0.8943

Dispersion correction           -0.000250231
FINAL SINGLE POINT ENERGY      -115.732350795165

DIPOLE MOMENT
-------------
                                X             Y             Z
Electronic contribution:      0.24393       1.72976       0.63712
Nuclear contribution   :      0.08393      -2.27314      -0.45869
                        -----------------------------------------
Total Dipole Moment    :      0.32785      -0.54337       0.17843
                        -----------------------------------------
Magnitude (a.u.)       :      0.65923
Magnitude (Debye)      :      1.67562

Rotational constants in cm-1:     4.359020     0.822935     0.795695
Rotational constants in MHz : 130680.121596 24670.967634 23854.336796

                             ****ORCA TERMINATED NORMALLY****
TOTAL RUN TIME: 0 days 0 hours 0 minutes 45 seconds 660 msec
