                         Program Version 4.1.2  - RELEASE  -
|  1> #Run DFT-D3 single point of the dimer
|  2> ! wB97X-D3 def2-TZVP TIGHTSCF CHELPG PMODEL PAL8
|  3>
|  4> %base "4-37_DFT_AB"
|  5>
|  6> %scf
|  7> MaxIter 1000
|  8> end
|  9>
| 10> * xyz 0 1
| 11>   C                      -5.192736            -2.225288            6.637700
| 12>   O                      -5.408181            -1.507434            5.386835
| 13>   H                      -4.517370            -1.420161            5.041826
| 14>   H                      -4.838058            -1.544956            7.408872
| 15>   H                      -6.004383            -2.688830            7.117625
| 16>   H                      -4.338427            -2.918640            6.592779
| 17>   C                      -7.985396            -3.798873            10.989212
| 18>   O                      -7.664392            -3.591884            9.637460
| 19>   H                      -7.371068            -4.428012            9.202452
| 20>   H                      -7.288167            -4.364246            11.503293
| 21>   H                      -7.978020            -2.836833            11.520532
| 22>   H                      -8.870220            -4.320717            11.269643
| 23> *
| 24>
| 25> #Run DFT-D3 single point of the molecule with dimer basis set
| 26> $new_job
| 27> %base "4-37_DFT_A"
| 28> ! wB97X-D3 def2-TZVP TIGHTSCF CHELPG PMODEL
| 29>
| 30> %scf
| 31> MaxIter 1000
| 32> end
| 33>
| 34> * xyz 0 1
| 35>   C                      -5.192736            -2.225288            6.637700
| 36>   O                      -5.408181            -1.507434            5.386835
| 37>   H                      -4.517370            -1.420161            5.041826
| 38>   H                      -4.838058            -1.544956            7.408872
| 39>   H                      -6.004383            -2.688830            7.117625
| 40>   H                      -4.338427            -2.918640            6.592779
| 41>   C                    : -7.985396            -3.798873            10.989212
| 42>   O                    : -7.664392            -3.591884            9.637460
| 43>   H                    : -7.371068            -4.428012            9.202452
| 44>   H                    : -7.288167            -4.364246            11.503293
| 45>   H                    : -7.978020            -2.836833            11.520532
| 46>   H                    : -8.870220            -4.320717            11.269643
| 47> *
| 48>
| 49> #Run DFT-D3 single point of the particle with dimer basis set
| 50> $new_job
| 51> %base "4-37_DFT_B"
| 52> ! wB97X-D3 def2-TZVP TIGHTSCF CHELPG PMODEL
| 53>
| 54> %scf
| 55> MaxIter 1000
| 56> end
| 57>
| 58> * xyz 0 1
| 59>   C                    : -5.192736            -2.225288            6.637700
| 60>   O                    : -5.408181            -1.507434            5.386835
| 61>   H                    : -4.517370            -1.420161            5.041826
| 62>   H                    : -4.838058            -1.544956            7.408872
| 63>   H                    : -6.004383            -2.688830            7.117625
| 64>   H                    : -4.338427            -2.918640            6.592779
| 65>   C                      -7.985396            -3.798873            10.989212
| 66>   O                      -7.664392            -3.591884            9.637460
| 67>   H                      -7.371068            -4.428012            9.202452
| 68>   H                      -7.288167            -4.364246            11.503293
| 69>   H                      -7.978020            -2.836833            11.520532
| 70>   H                      -8.870220            -4.320717            11.269643
| 71> *
| 72>
| 73>                          ****END OF INPUT****
 Total Charge           Charge          ....    0
 Multiplicity           Mult            ....    1
 Number of Electrons    NEL             ....   36
Dispersion correction           -0.001002111
FINAL SINGLE POINT ENERGY      -231.455912801301
Dispersion correction           -0.000252548
FINAL SINGLE POINT ENERGY      -115.726889144706

CARTESIAN COORDINATES (ANGSTROEM)
---------------------------------
  C     -5.192736   -2.225288    6.637700
  O     -5.408181   -1.507434    5.386835
  H     -4.517370   -1.420161    5.041826
  H     -4.838058   -1.544956    7.408872
  H     -6.004383   -2.688830    7.117625
  H     -4.338427   -2.918640    6.592779
  C     -7.985396   -3.798873   10.989212
  O     -7.664392   -3.591884    9.637460
  H     -7.371068   -4.428012    9.202452
  H     -7.288167   -4.364246   11.503293
  H     -7.978020   -2.836833   11.520532
  H     -8.870220   -4.320717   11.269643

 Multiplicity           Mult            ....    1
 Number of Electrons    NEL             ....   18
 Basis Dimension        Dim             ....  172

ORBITAL ENERGIES
----------------

  NO   OCC          E(Eh)            E(eV)
   0   2.0000     -19.235421      -523.4224
   1   2.0000     -10.302476      -280.3446
   2   2.0000      -1.133079       -30.8326
   3   2.0000      -0.805015       -21.9056
   4   2.0000      -0.621911       -16.9231
   5   2.0000      -0.536353       -14.5949
   6   2.0000      -0.526352       -14.3228
   7   2.0000      -0.433148       -11.7866
   8   2.0000      -0.374509       -10.1909
   9   0.0000       0.090606         2.4655
  10   0.0000       0.116450         3.1688
  11   0.0000       0.149056         4.0560
  12   0.0000       0.182307         4.9608
  13   0.0000       0.198609         5.4044

MULLIKEN ATOMIC CHARGES
-----------------------
   0 C :    0.000542
   1 O :   -0.000039
   2 H :   -0.000006
   3 H :   -0.000247
   4 H :   -0.003608
   5 H :    0.000025
   6 C :   -0.158009
   7 O :   -0.476911
   8 H :    0.320088
   9 H :    0.104028
  10 H :    0.117007
  11 H :    0.097129
Sum of atomic charges:    0.0000000

LOEWDIN ATOMIC CHARGES
----------------------
   0 C :   -0.001281
   1 O :   -0.000013
   2 H :   -0.000006
   3 H :   -0.000120
   4 H :   -0.002337
   5 H :   -0.000007
   6 C :   -0.392280
   7 O :   -0.074923
   8 H :    0.185874
   9 H :    0.082989
  10 H :    0.113346
  11 H :    0.088758

  Mayer bond orders larger than 0.1
B(  6-C ,  7-O ) :   1.0061 B(  6-C ,  9-H ) :   0.9807 B(  6-C , 10-H ) :   0.9787
B(  6-C , 11-H ) :   0.9679 B(  7-O ,  8-H ) :   0.8890

Dispersion correction           -0.000258468
FINAL SINGLE POINT ENERGY      -115.728263648788

DIPOLE MOMENT
-------------
                                X             Y             Z
Electronic contribution:      0.32963       0.36640      -1.85792
Nuclear contribution   :     -0.24329      -1.00460       2.14507
                        -----------------------------------------
Total Dipole Moment    :      0.08634      -0.63820       0.28715
                        -----------------------------------------
Magnitude (a.u.)       :      0.70513
Magnitude (Debye)      :      1.79229

Rotational constants in cm-1:     4.690050     0.829273     0.792191
Rotational constants in MHz : 140604.176381 24860.982413 23749.281333

                             ****ORCA TERMINATED NORMALLY****
TOTAL RUN TIME: 0 days 0 hours 1 minutes 35 seconds 99 msec
