                         Program Version 4.1.2  - RELEASE  -
|  1> #Run DFT-D3 single point of the dimer
|  2> ! wB97X-D3 def2-TZVP TIGHTSCF CHELPG PMODEL PAL8
|  3>
|  4> %base "11-67_DFT_AB"
|  5>
|  6> %scf
|  7> MaxIter 1000
|  8> end
|  9>
| 10> * xyz 0 1
| 11>   C                      0.029205             -3.305085            5.575801
| 12>   O                      -1.152025            -2.596991            5.492510
| 13>   H                      -0.980307            -2.042697            4.669758
| 14>   H                      0.889800             -2.641096            5.935441
| 15>   H                      -0.058726            -4.169142            6.203153
| 16>   H                      0.260555             -3.587206            4.550461
| 17>   C                      2.443280             -3.896097            2.062216
| 18>   O                      2.661415             -3.332506            3.344944
| 19>   H                      3.268788             -2.599194            3.246094
| 20>   H                      1.359820             -3.701872            1.647526
| 21>   H                      3.158878             -3.545398            1.223929
| 22>   H                      2.509380             -4.999618            2.043421
| 23> *
| 24>
| 25> #Run DFT-D3 single point of the molecule with dimer basis set
| 26> $new_job
| 27> %base "11-67_DFT_A"
| 28> ! wB97X-D3 def2-TZVP TIGHTSCF CHELPG PMODEL
| 29>
| 30> %scf
| 31> MaxIter 1000
| 32> end
| 33>
| 34> * xyz 0 1
| 35>   C                      0.029205             -3.305085            5.575801
| 36>   O                      -1.152025            -2.596991            5.492510
| 37>   H                      -0.980307            -2.042697            4.669758
| 38>   H                      0.889800             -2.641096            5.935441
| 39>   H                      -0.058726            -4.169142            6.203153
| 40>   H                      0.260555             -3.587206            4.550461
| 41>   C                    : 2.443280             -3.896097            2.062216
| 42>   O                    : 2.661415             -3.332506            3.344944
| 43>   H                    : 3.268788             -2.599194            3.246094
| 44>   H                    : 1.359820             -3.701872            1.647526
| 45>   H                    : 3.158878             -3.545398            1.223929
| 46>   H                    : 2.509380             -4.999618            2.043421
| 47> *
| 48>
| 49> #Run DFT-D3 single point of the particle with dimer basis set
| 50> $new_job
| 51> %base "11-67_DFT_B"
| 52> ! wB97X-D3 def2-TZVP TIGHTSCF CHELPG PMODEL
| 53>
| 54> %scf
| 55> MaxIter 1000
| 56> end
| 57>
| 58> * xyz 0 1
| 59>   C                    : 0.029205             -3.305085            5.575801
| 60>   O                    : -1.152025            -2.596991            5.492510
| 61>   H                    : -0.980307            -2.042697            4.669758
| 62>   H                    : 0.889800             -2.641096            5.935441
| 63>   H                    : -0.058726            -4.169142            6.203153
| 64>   H                    : 0.260555             -3.587206            4.550461
| 65>   C                      2.443280             -3.896097            2.062216
| 66>   O                      2.661415             -3.332506            3.344944
| 67>   H                      3.268788             -2.599194            3.246094
| 68>   H                      1.359820             -3.701872            1.647526
| 69>   H                      3.158878             -3.545398            1.223929
| 70>   H                      2.509380             -4.999618            2.043421
| 71> *
| 72>
| 73>                          ****END OF INPUT****
 Total Charge           Charge          ....    0
 Multiplicity           Mult            ....    1
 Number of Electrons    NEL             ....   36
Dispersion correction           -0.001575863
FINAL SINGLE POINT ENERGY      -231.458120816087
Dispersion correction           -0.000203093
FINAL SINGLE POINT ENERGY      -115.727922574579

CARTESIAN COORDINATES (ANGSTROEM)
---------------------------------
  C      0.029205   -3.305085    5.575801
  O     -1.152025   -2.596991    5.492510
  H     -0.980307   -2.042697    4.669758
  H      0.889800   -2.641096    5.935441
  H     -0.058726   -4.169142    6.203153
  H      0.260555   -3.587206    4.550461
  C      2.443280   -3.896097    2.062216
  O      2.661415   -3.332506    3.344944
  H      3.268788   -2.599194    3.246094
  H      1.359820   -3.701872    1.647526
  H      3.158878   -3.545398    1.223929
  H      2.509380   -4.999618    2.043421

 Multiplicity           Mult            ....    1
 Number of Electrons    NEL             ....   18
 Basis Dimension        Dim             ....  172

ORBITAL ENERGIES
----------------

  NO   OCC          E(Eh)            E(eV)
   0   2.0000     -19.238360      -523.5024
   1   2.0000     -10.331047      -281.1221
   2   2.0000      -1.140148       -31.0250
   3   2.0000      -0.787760       -21.4360
   4   2.0000      -0.613233       -16.6869
   5   2.0000      -0.529921       -14.4199
   6   2.0000      -0.523189       -14.2367
   7   2.0000      -0.434724       -11.8294
   8   2.0000      -0.373796       -10.1715
   9   0.0000       0.096458         2.6247
  10   0.0000       0.122698         3.3388
  11   0.0000       0.141627         3.8539
  12   0.0000       0.177107         4.8193
  13   0.0000       0.187906         5.1132

MULLIKEN ATOMIC CHARGES
-----------------------
   0 C :   -0.000035
   1 O :    0.000043
   2 H :   -0.000354
   3 H :   -0.002460
   4 H :   -0.000437
   5 H :    0.000171
   6 C :   -0.196558
   7 O :   -0.456270
   8 H :    0.319562
   9 H :    0.103506
  10 H :    0.110937
  11 H :    0.121896
Sum of atomic charges:   -0.0000000

LOEWDIN ATOMIC CHARGES
----------------------
   0 C :   -0.007459
   1 O :   -0.000032
   2 H :   -0.000075
   3 H :   -0.001757
   4 H :   -0.000102
   5 H :   -0.005396
   6 C :   -0.409531
   7 O :   -0.062085
   8 H :    0.170205
   9 H :    0.107608
  10 H :    0.106668
  11 H :    0.101956

  Mayer bond orders larger than 0.1
B(  6-C ,  7-O ) :   1.0115 B(  6-C ,  9-H ) :   0.9710 B(  6-C , 10-H ) :   0.9721
B(  6-C , 11-H ) :   0.9717 B(  7-O ,  8-H ) :   0.8965

Dispersion correction           -0.000295543
FINAL SINGLE POINT ENERGY      -115.728708153791

DIPOLE MOMENT
-------------
                                X             Y             Z
Electronic contribution:      0.32474       0.69589       1.91619
Nuclear contribution   :      0.02217      -0.44671      -2.46609
                        -----------------------------------------
Total Dipole Moment    :      0.34691       0.24917      -0.54990
                        -----------------------------------------
Magnitude (a.u.)       :      0.69629
Magnitude (Debye)      :      1.76984

Rotational constants in cm-1:     4.153470     0.803156     0.772868
Rotational constants in MHz : 124517.894221 24078.013067 23170.013146

                             ****ORCA TERMINATED NORMALLY****
TOTAL RUN TIME: 0 days 0 hours 1 minutes 12 seconds 929 msec
