                         Program Version 4.1.2  - RELEASE  -
|  1> #Run DFT-D3 single point of the dimer
|  2> ! wB97X-D3 def2-TZVP TIGHTSCF CHELPG PMODEL PAL8
|  3>
|  4> %base "5-36_DFT_AB"
|  5>
|  6> %scf
|  7> MaxIter 1000
|  8> end
|  9>
| 10> * xyz 0 1
| 11>   C                      0.049032             -10.783737           -3.547147
| 12>   O                      -1.245113            -10.968864           -2.996254
| 13>   H                      -1.364851            -11.804296           -2.480069
| 14>   H                      0.119904             -9.931125            -4.234255
| 15>   H                      0.661525             -10.373009           -2.824909
| 16>   H                      0.387264             -11.742814           -4.004112
| 17>   C                      2.145759             -7.640377            -5.295091
| 18>   O                      1.602418             -6.643994            -4.406657
| 19>   H                      1.492877             -5.865634            -4.983985
| 20>   H                      2.613263             -8.329677            -4.566801
| 21>   H                      1.370464             -8.215374            -5.818654
| 22>   H                      2.981365             -7.362654            -5.935000
| 23> *
| 24>
| 25> #Run DFT-D3 single point of the molecule with dimer basis set
| 26> $new_job
| 27> %base "5-36_DFT_A"
| 28> ! wB97X-D3 def2-TZVP TIGHTSCF CHELPG PMODEL
| 29>
| 30> %scf
| 31> MaxIter 1000
| 32> end
| 33>
| 34> * xyz 0 1
| 35>   C                      0.049032             -10.783737           -3.547147
| 36>   O                      -1.245113            -10.968864           -2.996254
| 37>   H                      -1.364851            -11.804296           -2.480069
| 38>   H                      0.119904             -9.931125            -4.234255
| 39>   H                      0.661525             -10.373009           -2.824909
| 40>   H                      0.387264             -11.742814           -4.004112
| 41>   C                    : 2.145759             -7.640377            -5.295091
| 42>   O                    : 1.602418             -6.643994            -4.406657
| 43>   H                    : 1.492877             -5.865634            -4.983985
| 44>   H                    : 2.613263             -8.329677            -4.566801
| 45>   H                    : 1.370464             -8.215374            -5.818654
| 46>   H                    : 2.981365             -7.362654            -5.935000
| 47> *
| 48>
| 49> #Run DFT-D3 single point of the particle with dimer basis set
| 50> $new_job
| 51> %base "5-36_DFT_B"
| 52> ! wB97X-D3 def2-TZVP TIGHTSCF CHELPG PMODEL
| 53>
| 54> %scf
| 55> MaxIter 1000
| 56> end
| 57>
| 58> * xyz 0 1
| 59>   C                    : 0.049032             -10.783737           -3.547147
| 60>   O                    : -1.245113            -10.968864           -2.996254
| 61>   H                    : -1.364851            -11.804296           -2.480069
| 62>   H                    : 0.119904             -9.931125            -4.234255
| 63>   H                    : 0.661525             -10.373009           -2.824909
| 64>   H                    : 0.387264             -11.742814           -4.004112
| 65>   C                      2.145759             -7.640377            -5.295091
| 66>   O                      1.602418             -6.643994            -4.406657
| 67>   H                      1.492877             -5.865634            -4.983985
| 68>   H                      2.613263             -8.329677            -4.566801
| 69>   H                      1.370464             -8.215374            -5.818654
| 70>   H                      2.981365             -7.362654            -5.935000
| 71> *
| 72>
| 73>                          ****END OF INPUT****
 Total Charge           Charge          ....    0
 Multiplicity           Mult            ....    1
 Number of Electrons    NEL             ....   36
Dispersion correction           -0.001361475
FINAL SINGLE POINT ENERGY      -231.456287636390
Dispersion correction           -0.000251193
FINAL SINGLE POINT ENERGY      -115.724142554772

CARTESIAN COORDINATES (ANGSTROEM)
---------------------------------
  C      0.049032  -10.783737   -3.547147
  O     -1.245113  -10.968864   -2.996254
  H     -1.364851  -11.804296   -2.480069
  H      0.119904   -9.931125   -4.234255
  H      0.661525  -10.373009   -2.824909
  H      0.387264  -11.742814   -4.004112
  C      2.145759   -7.640377   -5.295091
  O      1.602418   -6.643994   -4.406657
  H      1.492877   -5.865634   -4.983985
  H      2.613263   -8.329677   -4.566801
  H      1.370464   -8.215374   -5.818654
  H      2.981365   -7.362654   -5.935000

 Multiplicity           Mult            ....    1
 Number of Electrons    NEL             ....   18
 Basis Dimension        Dim             ....  172

ORBITAL ENERGIES
----------------

  NO   OCC          E(Eh)            E(eV)
   0   2.0000     -19.235109      -523.4139
   1   2.0000     -10.314628      -280.6753
   2   2.0000      -1.129123       -30.7250
   3   2.0000      -0.793370       -21.5887
   4   2.0000      -0.604570       -16.4512
   5   2.0000      -0.544502       -14.8166
   6   2.0000      -0.511324       -13.9138
   7   2.0000      -0.437943       -11.9170
   8   2.0000      -0.378604       -10.3023
   9   0.0000       0.090507         2.4628
  10   0.0000       0.116981         3.1832
  11   0.0000       0.147179         4.0049
  12   0.0000       0.175186         4.7670
  13   0.0000       0.184653         5.0247

MULLIKEN ATOMIC CHARGES
-----------------------
   0 C :   -0.001923
   1 O :    0.000019
   2 H :    0.000001
   3 H :    0.003043
   4 H :    0.000123
   5 H :    0.000167
   6 C :   -0.193778
   7 O :   -0.468352
   8 H :    0.310847
   9 H :    0.119261
  10 H :    0.108528
  11 H :    0.122063
Sum of atomic charges:   -0.0000000

LOEWDIN ATOMIC CHARGES
----------------------
   0 C :   -0.001285
   1 O :   -0.000009
   2 H :   -0.000002
   3 H :   -0.001810
   4 H :   -0.000230
   5 H :   -0.000013
   6 C :   -0.381070
   7 O :   -0.098541
   8 H :    0.175028
   9 H :    0.114316
  10 H :    0.097570
  11 H :    0.096045

  Mayer bond orders larger than 0.1
B(  6-C ,  7-O ) :   1.0032 B(  6-C ,  9-H ) :   0.9810 B(  6-C , 10-H ) :   0.9704
B(  6-C , 11-H ) :   0.9640 B(  7-O ,  8-H ) :   0.9041

Dispersion correction           -0.000261863
FINAL SINGLE POINT ENERGY      -115.731417721838

DIPOLE MOMENT
-------------
                                X             Y             Z
Electronic contribution:     -0.73898       1.29687       1.07099
Nuclear contribution   :      0.91156      -1.21359      -1.75985
                        -----------------------------------------
Total Dipole Moment    :      0.17259       0.08327      -0.68886
                        -----------------------------------------
Magnitude (a.u.)       :      0.71501
Magnitude (Debye)      :      1.81742

Rotational constants in cm-1:     4.230834     0.805623     0.783147
Rotational constants in MHz : 126837.208662 24151.979238 23478.161064

                             ****ORCA TERMINATED NORMALLY****
TOTAL RUN TIME: 0 days 0 hours 0 minutes 53 seconds 721 msec
