                         Program Version 4.1.2  - RELEASE  -
|  1> #Run DFT-D3 single point of the dimer
|  2> ! wB97X-D3 def2-TZVP TIGHTSCF CHELPG PMODEL PAL8
|  3>
|  4> %base "5-175_DFT_AB"
|  5>
|  6> %scf
|  7> MaxIter 1000
|  8> end
|  9>
| 10> * xyz 0 1
| 11>   C                      7.263758             -1.690919            6.811487
| 12>   O                      8.265075             -0.704323            6.669180
| 13>   H                      7.838670             -0.036129            6.110007
| 14>   H                      6.411662             -1.323292            7.479096
| 15>   H                      6.727346             -1.871947            5.897698
| 16>   H                      7.798512             -2.602327            7.203925
| 17>   C                      6.954684             0.635758             3.247470
| 18>   O                      6.892328             0.989870             4.614692
| 19>   H                      6.180510             1.617700             4.690665
| 20>   H                      7.613959             -0.178764            3.063647
| 21>   H                      5.953373             0.385232             2.847718
| 22>   H                      7.251715             1.493073             2.649528
| 23> *
| 24>
| 25> #Run DFT-D3 single point of the molecule with dimer basis set
| 26> $new_job
| 27> %base "5-175_DFT_A"
| 28> ! wB97X-D3 def2-TZVP TIGHTSCF CHELPG PMODEL
| 29>
| 30> %scf
| 31> MaxIter 1000
| 32> end
| 33>
| 34> * xyz 0 1
| 35>   C                      7.263758             -1.690919            6.811487
| 36>   O                      8.265075             -0.704323            6.669180
| 37>   H                      7.838670             -0.036129            6.110007
| 38>   H                      6.411662             -1.323292            7.479096
| 39>   H                      6.727346             -1.871947            5.897698
| 40>   H                      7.798512             -2.602327            7.203925
| 41>   C                    : 6.954684             0.635758             3.247470
| 42>   O                    : 6.892328             0.989870             4.614692
| 43>   H                    : 6.180510             1.617700             4.690665
| 44>   H                    : 7.613959             -0.178764            3.063647
| 45>   H                    : 5.953373             0.385232             2.847718
| 46>   H                    : 7.251715             1.493073             2.649528
| 47> *
| 48>
| 49> #Run DFT-D3 single point of the particle with dimer basis set
| 50> $new_job
| 51> %base "5-175_DFT_B"
| 52> ! wB97X-D3 def2-TZVP TIGHTSCF CHELPG PMODEL
| 53>
| 54> %scf
| 55> MaxIter 1000
| 56> end
| 57>
| 58> * xyz 0 1
| 59>   C                    : 7.263758             -1.690919            6.811487
| 60>   O                    : 8.265075             -0.704323            6.669180
| 61>   H                    : 7.838670             -0.036129            6.110007
| 62>   H                    : 6.411662             -1.323292            7.479096
| 63>   H                    : 6.727346             -1.871947            5.897698
| 64>   H                    : 7.798512             -2.602327            7.203925
| 65>   C                      6.954684             0.635758             3.247470
| 66>   O                      6.892328             0.989870             4.614692
| 67>   H                      6.180510             1.617700             4.690665
| 68>   H                      7.613959             -0.178764            3.063647
| 69>   H                      5.953373             0.385232             2.847718
| 70>   H                      7.251715             1.493073             2.649528
| 71> *
| 72>
| 73>                          ****END OF INPUT****
 Total Charge           Charge          ....    0
 Multiplicity           Mult            ....    1
 Number of Electrons    NEL             ....   36
Dispersion correction           -0.001809395
FINAL SINGLE POINT ENERGY      -231.475920591114
Dispersion correction           -0.000229662
FINAL SINGLE POINT ENERGY      -115.731458936369

CARTESIAN COORDINATES (ANGSTROEM)
---------------------------------
  C      7.263758   -1.690919    6.811487
  O      8.265075   -0.704323    6.669180
  H      7.838670   -0.036129    6.110007
  H      6.411662   -1.323292    7.479096
  H      6.727346   -1.871947    5.897698
  H      7.798512   -2.602327    7.203925
  C      6.954684    0.635758    3.247470
  O      6.892328    0.989870    4.614692
  H      6.180510    1.617700    4.690665
  H      7.613959   -0.178764    3.063647
  H      5.953373    0.385232    2.847718
  H      7.251715    1.493073    2.649528

 Multiplicity           Mult            ....    1
 Number of Electrons    NEL             ....   18
 Basis Dimension        Dim             ....  172

ORBITAL ENERGIES
----------------

  NO   OCC          E(Eh)            E(eV)
   0   2.0000     -19.230599      -523.2912
   1   2.0000     -10.311196      -280.5819
   2   2.0000      -1.139751       -31.0142
   3   2.0000      -0.798103       -21.7175
   4   2.0000      -0.614098       -16.7105
   5   2.0000      -0.538993       -14.6667
   6   2.0000      -0.532887       -14.5006
   7   2.0000      -0.440858       -11.9964
   8   2.0000      -0.371583       -10.1113
   9   0.0000       0.098235         2.6731
  10   0.0000       0.125989         3.4283
  11   0.0000       0.154240         4.1971
  12   0.0000       0.189871         5.1667
  13   0.0000       0.202299         5.5048

MULLIKEN ATOMIC CHARGES
-----------------------
   0 C :    0.002737
   1 O :   -0.000221
   2 H :   -0.008968
   3 H :   -0.001025
   4 H :   -0.003336
   5 H :   -0.000270
   6 C :   -0.164200
   7 O :   -0.461386
   8 H :    0.310555
   9 H :    0.126020
  10 H :    0.095845
  11 H :    0.104250
Sum of atomic charges:   -0.0000000

LOEWDIN ATOMIC CHARGES
----------------------
   0 C :   -0.005212
   1 O :   -0.002984
   2 H :   -0.032581
   3 H :   -0.000322
   4 H :   -0.001733
   5 H :   -0.000076
   6 C :   -0.378860
   7 O :   -0.037544
   8 H :    0.165506
   9 H :    0.102436
  10 H :    0.096867
  11 H :    0.094502

  Mayer bond orders larger than 0.1
B(  6-C ,  7-O ) :   0.9855 B(  6-C ,  9-H ) :   0.9761 B(  6-C , 10-H ) :   0.9782
B(  6-C , 11-H ) :   0.9746 B(  7-O ,  8-H ) :   0.9008

Dispersion correction           -0.000225244
FINAL SINGLE POINT ENERGY      -115.735482549325

DIPOLE MOMENT
-------------
                                X             Y             Z
Electronic contribution:      0.13251       0.28528       1.82966
Nuclear contribution   :     -0.55507      -0.02632      -2.33726
                        -----------------------------------------
Total Dipole Moment    :     -0.42256       0.25896      -0.50760
                        -----------------------------------------
Magnitude (a.u.)       :      0.70942
Magnitude (Debye)      :      1.80320

Rotational constants in cm-1:     4.363945     0.836769     0.801467
Rotational constants in MHz : 130827.788673 25085.717416 24027.369283

                             ****ORCA TERMINATED NORMALLY****
TOTAL RUN TIME: 0 days 0 hours 0 minutes 55 seconds 425 msec
