                         Program Version 4.1.2  - RELEASE  -
|  1> #Run DFT-D3 single point of the dimer
|  2> ! wB97X-D3 def2-TZVP TIGHTSCF CHELPG PMODEL PAL8
|  3>
|  4> %base "9-16_DFT_AB"
|  5>
|  6> %scf
|  7> MaxIter 1000
|  8> end
|  9>
| 10> * xyz 0 1
| 11>   C                      1.487376             -0.428665            4.266690
| 12>   O                      2.630056             -0.194025            5.057445
| 13>   H                      2.762876             -0.876611            5.745413
| 14>   H                      1.308714             0.285588             3.519412
| 15>   H                      1.633911             -1.323911            3.744331
| 16>   H                      0.553844             -0.624710            4.835763
| 17>   C                      1.679776             -3.546201            0.676951
| 18>   O                      0.715683             -2.560960            0.566006
| 19>   H                      1.174141             -1.743596            0.382833
| 20>   H                      2.370658             -3.287889            1.424318
| 21>   H                      1.297961             -4.499157            0.996631
| 22>   H                      2.239425             -3.799190            -0.274607
| 23> *
| 24>
| 25> #Run DFT-D3 single point of the molecule with dimer basis set
| 26> $new_job
| 27> %base "9-16_DFT_A"
| 28> ! wB97X-D3 def2-TZVP TIGHTSCF CHELPG PMODEL
| 29>
| 30> %scf
| 31> MaxIter 1000
| 32> end
| 33>
| 34> * xyz 0 1
| 35>   C                      1.487376             -0.428665            4.266690
| 36>   O                      2.630056             -0.194025            5.057445
| 37>   H                      2.762876             -0.876611            5.745413
| 38>   H                      1.308714             0.285588             3.519412
| 39>   H                      1.633911             -1.323911            3.744331
| 40>   H                      0.553844             -0.624710            4.835763
| 41>   C                    : 1.679776             -3.546201            0.676951
| 42>   O                    : 0.715683             -2.560960            0.566006
| 43>   H                    : 1.174141             -1.743596            0.382833
| 44>   H                    : 2.370658             -3.287889            1.424318
| 45>   H                    : 1.297961             -4.499157            0.996631
| 46>   H                    : 2.239425             -3.799190            -0.274607
| 47> *
| 48>
| 49> #Run DFT-D3 single point of the particle with dimer basis set
| 50> $new_job
| 51> %base "9-16_DFT_B"
| 52> ! wB97X-D3 def2-TZVP TIGHTSCF CHELPG PMODEL
| 53>
| 54> %scf
| 55> MaxIter 1000
| 56> end
| 57>
| 58> * xyz 0 1
| 59>   C                    : 1.487376             -0.428665            4.266690
| 60>   O                    : 2.630056             -0.194025            5.057445
| 61>   H                    : 2.762876             -0.876611            5.745413
| 62>   H                    : 1.308714             0.285588             3.519412
| 63>   H                    : 1.633911             -1.323911            3.744331
| 64>   H                    : 0.553844             -0.624710            4.835763
| 65>   C                      1.679776             -3.546201            0.676951
| 66>   O                      0.715683             -2.560960            0.566006
| 67>   H                      1.174141             -1.743596            0.382833
| 68>   H                      2.370658             -3.287889            1.424318
| 69>   H                      1.297961             -4.499157            0.996631
| 70>   H                      2.239425             -3.799190            -0.274607
| 71> *
| 72>
| 73>                          ****END OF INPUT****
 Total Charge           Charge          ....    0
 Multiplicity           Mult            ....    1
 Number of Electrons    NEL             ....   36
Dispersion correction           -0.001116323
FINAL SINGLE POINT ENERGY      -231.463096807981
Dispersion correction           -0.000243512
FINAL SINGLE POINT ENERGY      -115.729516621211

CARTESIAN COORDINATES (ANGSTROEM)
---------------------------------
  C      1.487376   -0.428665    4.266690
  O      2.630056   -0.194025    5.057445
  H      2.762876   -0.876611    5.745413
  H      1.308714    0.285588    3.519412
  H      1.633911   -1.323911    3.744331
  H      0.553844   -0.624710    4.835763
  C      1.679776   -3.546201    0.676951
  O      0.715683   -2.560960    0.566006
  H      1.174141   -1.743596    0.382833
  H      2.370658   -3.287889    1.424318
  H      1.297961   -4.499157    0.996631
  H      2.239425   -3.799190   -0.274607

 Multiplicity           Mult            ....    1
 Number of Electrons    NEL             ....   18
 Basis Dimension        Dim             ....  172

ORBITAL ENERGIES
----------------

  NO   OCC          E(Eh)            E(eV)
   0   2.0000     -19.232822      -523.3517
   1   2.0000     -10.307137      -280.4715
   2   2.0000      -1.149316       -31.2745
   3   2.0000      -0.798628       -21.7318
   4   2.0000      -0.618320       -16.8253
   5   2.0000      -0.547497       -14.8982
   6   2.0000      -0.534493       -14.5443
   7   2.0000      -0.430340       -11.7101
   8   2.0000      -0.374625       -10.1941
   9   0.0000       0.083515         2.2726
  10   0.0000       0.120914         3.2902
  11   0.0000       0.150298         4.0898
  12   0.0000       0.173568         4.7230
  13   0.0000       0.191594         5.2135

MULLIKEN ATOMIC CHARGES
-----------------------
   0 C :   -0.000032
   1 O :   -0.000024
   2 H :   -0.000000
   3 H :   -0.000220
   4 H :   -0.000998
   5 H :   -0.000092
   6 C :   -0.169924
   7 O :   -0.461110
   8 H :    0.317579
   9 H :    0.106223
  10 H :    0.113456
  11 H :    0.095142
Sum of atomic charges:   -0.0000000

LOEWDIN ATOMIC CHARGES
----------------------
   0 C :   -0.001007
   1 O :   -0.000017
   2 H :   -0.000002
   3 H :   -0.000159
   4 H :   -0.000967
   5 H :   -0.000014
   6 C :   -0.411914
   7 O :   -0.046426
   8 H :    0.171405
   9 H :    0.085555
  10 H :    0.104072
  11 H :    0.099474

  Mayer bond orders larger than 0.1
B(  6-C ,  7-O ) :   1.0075 B(  6-C ,  9-H ) :   0.9833 B(  6-C , 10-H ) :   0.9737
B(  6-C , 11-H ) :   0.9763 B(  7-O ,  8-H ) :   0.8978

Dispersion correction           -0.000231744
FINAL SINGLE POINT ENERGY      -115.732569231057

DIPOLE MOMENT
-------------
                                X             Y             Z
Electronic contribution:     -1.44931       1.27576      -0.10427
Nuclear contribution   :      2.09696      -1.13804       0.06065
                        -----------------------------------------
Total Dipole Moment    :      0.64765       0.13771      -0.04362
                        -----------------------------------------
Magnitude (a.u.)       :      0.66356
Magnitude (Debye)      :      1.68664

Rotational constants in cm-1:     4.482342     0.851573     0.827358
Rotational constants in MHz : 134377.226919 25529.505066 24803.575501

                             ****ORCA TERMINATED NORMALLY****
TOTAL RUN TIME: 0 days 0 hours 0 minutes 42 seconds 450 msec
