                         Program Version 4.1.2  - RELEASE  -
|  1> #Run DFT-D3 single point of the dimer
|  2> ! wB97X-D3 def2-TZVP TIGHTSCF CHELPG PMODEL PAL8
|  3>
|  4> %base "1-150_DFT_AB"
|  5>
|  6> %scf
|  7> MaxIter 1000
|  8> end
|  9>
| 10> * xyz 0 1
| 11>   C                      9.668061             -3.866281            -6.976412
| 12>   O                      8.552818             -3.581596            -6.200644
| 13>   H                      8.019114             -2.985444            -6.708306
| 14>   H                      10.315615            -4.650284            -6.516347
| 15>   H                      9.364548             -4.279350            -7.979582
| 16>   H                      10.229104            -2.945901            -7.121084
| 17>   C                      5.063099             -1.500940            -9.334182
| 18>   O                      4.808947             -0.973593            -8.100371
| 19>   H                      5.054176             -1.569019            -7.353234
| 20>   H                      6.141937             -1.618277            -9.421419
| 21>   H                      4.541301             -2.439187            -9.608588
| 22>   H                      4.776940             -0.855996            -10.258623
| 23> *
| 24>
| 25> #Run DFT-D3 single point of the molecule with dimer basis set
| 26> $new_job
| 27> %base "1-150_DFT_A"
| 28> ! wB97X-D3 def2-TZVP TIGHTSCF CHELPG PMODEL
| 29>
| 30> %scf
| 31> MaxIter 1000
| 32> end
| 33>
| 34> * xyz 0 1
| 35>   C                      9.668061             -3.866281            -6.976412
| 36>   O                      8.552818             -3.581596            -6.200644
| 37>   H                      8.019114             -2.985444            -6.708306
| 38>   H                      10.315615            -4.650284            -6.516347
| 39>   H                      9.364548             -4.279350            -7.979582
| 40>   H                      10.229104            -2.945901            -7.121084
| 41>   C                    : 5.063099             -1.500940            -9.334182
| 42>   O                    : 4.808947             -0.973593            -8.100371
| 43>   H                    : 5.054176             -1.569019            -7.353234
| 44>   H                    : 6.141937             -1.618277            -9.421419
| 45>   H                    : 4.541301             -2.439187            -9.608588
| 46>   H                    : 4.776940             -0.855996            -10.258623
| 47> *
| 48>
| 49> #Run DFT-D3 single point of the particle with dimer basis set
| 50> $new_job
| 51> %base "1-150_DFT_B"
| 52> ! wB97X-D3 def2-TZVP TIGHTSCF CHELPG PMODEL
| 53>
| 54> %scf
| 55> MaxIter 1000
| 56> end
| 57>
| 58> * xyz 0 1
| 59>   C                    : 9.668061             -3.866281            -6.976412
| 60>   O                    : 8.552818             -3.581596            -6.200644
| 61>   H                    : 8.019114             -2.985444            -6.708306
| 62>   H                    : 10.315615            -4.650284            -6.516347
| 63>   H                    : 9.364548             -4.279350            -7.979582
| 64>   H                    : 10.229104            -2.945901            -7.121084
| 65>   C                      5.063099             -1.500940            -9.334182
| 66>   O                      4.808947             -0.973593            -8.100371
| 67>   H                      5.054176             -1.569019            -7.353234
| 68>   H                      6.141937             -1.618277            -9.421419
| 69>   H                      4.541301             -2.439187            -9.608588
| 70>   H                      4.776940             -0.855996            -10.258623
| 71> *
| 72>
| 73>                          ****END OF INPUT****
 Total Charge           Charge          ....    0
 Multiplicity           Mult            ....    1
 Number of Electrons    NEL             ....   36
Dispersion correction           -0.000849752
FINAL SINGLE POINT ENERGY      -231.460747311123
Dispersion correction           -0.000220055
FINAL SINGLE POINT ENERGY      -115.734541728562

CARTESIAN COORDINATES (ANGSTROEM)
---------------------------------
  C      9.668061   -3.866281   -6.976412
  O      8.552818   -3.581596   -6.200644
  H      8.019114   -2.985444   -6.708306
  H     10.315615   -4.650284   -6.516347
  H      9.364548   -4.279350   -7.979582
  H     10.229104   -2.945901   -7.121084
  C      5.063099   -1.500940   -9.334182
  O      4.808947   -0.973593   -8.100371
  H      5.054176   -1.569019   -7.353234
  H      6.141937   -1.618277   -9.421419
  H      4.541301   -2.439187   -9.608588
  H      4.776940   -0.855996  -10.258623

 Multiplicity           Mult            ....    1
 Number of Electrons    NEL             ....   18
 Basis Dimension        Dim             ....  172

ORBITAL ENERGIES
----------------

  NO   OCC          E(Eh)            E(eV)
   0   2.0000     -19.233779      -523.3777
   1   2.0000     -10.316939      -280.7382
   2   2.0000      -1.145645       -31.1746
   3   2.0000      -0.789825       -21.4922
   4   2.0000      -0.618682       -16.8352
   5   2.0000      -0.550638       -14.9836
   6   2.0000      -0.527077       -14.3425
   7   2.0000      -0.411855       -11.2071
   8   2.0000      -0.372053       -10.1241
   9   0.0000       0.076302         2.0763
  10   0.0000       0.112161         3.0520
  11   0.0000       0.145011         3.9459
  12   0.0000       0.175255         4.7689
  13   0.0000       0.187981         5.1152

MULLIKEN ATOMIC CHARGES
-----------------------
   0 C :   -0.000100
   1 O :    0.000069
   2 H :   -0.000519
   3 H :   -0.000003
   4 H :   -0.000005
   5 H :    0.000010
   6 C :   -0.158363
   7 O :   -0.474192
   8 H :    0.327201
   9 H :    0.099914
  10 H :    0.093690
  11 H :    0.112298
Sum of atomic charges:   -0.0000000

LOEWDIN ATOMIC CHARGES
----------------------
   0 C :   -0.000061
   1 O :   -0.000011
   2 H :   -0.000455
   3 H :   -0.000002
   4 H :   -0.000020
   5 H :   -0.000002
   6 C :   -0.440820
   7 O :   -0.052832
   8 H :    0.190388
   9 H :    0.091315
  10 H :    0.092357
  11 H :    0.120144

  Mayer bond orders larger than 0.1
B(  6-C ,  7-O ) :   1.0068 B(  6-C ,  9-H ) :   0.9868 B(  6-C , 10-H ) :   0.9698
B(  6-C , 11-H ) :   0.9658 B(  7-O ,  8-H ) :   0.8820

Dispersion correction           -0.000257958
FINAL SINGLE POINT ENERGY      -115.726365614456

DIPOLE MOMENT
-------------
                                X             Y             Z
Electronic contribution:     -0.43456       0.79651       1.75881
Nuclear contribution   :      0.68906      -1.37661      -1.73320
                        -----------------------------------------
Total Dipole Moment    :      0.25450      -0.58010       0.02561
                        -----------------------------------------
Magnitude (a.u.)       :      0.63399
Magnitude (Debye)      :      1.61148

Rotational constants in cm-1:     4.384949     0.846401     0.822475
Rotational constants in MHz : 131457.470964 25374.454461 24657.191649

                             ****ORCA TERMINATED NORMALLY****
TOTAL RUN TIME: 0 days 0 hours 5 minutes 50 seconds 458 msec
