                         Program Version 4.1.2  - RELEASE  -
|  1> #Run DFT-D3 single point of the dimer
|  2> ! wB97X-D3 def2-TZVP TIGHTSCF CHELPG PMODEL PAL8
|  3>
|  4> %base "17-99_DFT_AB"
|  5>
|  6> %scf
|  7> MaxIter 1000
|  8> end
|  9>
| 10> * xyz 0 1
| 11>   C                      6.352193             4.195746             -4.190666
| 12>   O                      5.100575             4.500113             -4.616961
| 13>   H                      4.495087             4.304367             -3.860152
| 14>   H                      7.093230             4.700914             -4.815245
| 15>   H                      6.551793             4.589563             -3.174605
| 16>   H                      6.623159             3.143777             -4.209572
| 17>   C                      0.867542             3.912928             -3.182663
| 18>   O                      2.242398             3.624090             -3.323896
| 19>   H                      2.326476             3.199194             -4.209567
| 20>   H                      0.454290             2.951350             -2.958725
| 21>   H                      0.678797             4.536893             -2.275241
| 22>   H                      0.363630             4.368854             -4.072581
| 23> *
| 24>
| 25> #Run DFT-D3 single point of the molecule with dimer basis set
| 26> $new_job
| 27> %base "17-99_DFT_A"
| 28> ! wB97X-D3 def2-TZVP TIGHTSCF CHELPG PMODEL
| 29>
| 30> %scf
| 31> MaxIter 1000
| 32> end
| 33>
| 34> * xyz 0 1
| 35>   C                      6.352193             4.195746             -4.190666
| 36>   O                      5.100575             4.500113             -4.616961
| 37>   H                      4.495087             4.304367             -3.860152
| 38>   H                      7.093230             4.700914             -4.815245
| 39>   H                      6.551793             4.589563             -3.174605
| 40>   H                      6.623159             3.143777             -4.209572
| 41>   C                    : 0.867542             3.912928             -3.182663
| 42>   O                    : 2.242398             3.624090             -3.323896
| 43>   H                    : 2.326476             3.199194             -4.209567
| 44>   H                    : 0.454290             2.951350             -2.958725
| 45>   H                    : 0.678797             4.536893             -2.275241
| 46>   H                    : 0.363630             4.368854             -4.072581
| 47> *
| 48>
| 49> #Run DFT-D3 single point of the particle with dimer basis set
| 50> $new_job
| 51> %base "17-99_DFT_B"
| 52> ! wB97X-D3 def2-TZVP TIGHTSCF CHELPG PMODEL
| 53>
| 54> %scf
| 55> MaxIter 1000
| 56> end
| 57>
| 58> * xyz 0 1
| 59>   C                    : 6.352193             4.195746             -4.190666
| 60>   O                    : 5.100575             4.500113             -4.616961
| 61>   H                    : 4.495087             4.304367             -3.860152
| 62>   H                    : 7.093230             4.700914             -4.815245
| 63>   H                    : 6.551793             4.589563             -3.174605
| 64>   H                    : 6.623159             3.143777             -4.209572
| 65>   C                      0.867542             3.912928             -3.182663
| 66>   O                      2.242398             3.624090             -3.323896
| 67>   H                      2.326476             3.199194             -4.209567
| 68>   H                      0.454290             2.951350             -2.958725
| 69>   H                      0.678797             4.536893             -2.275241
| 70>   H                      0.363630             4.368854             -4.072581
| 71> *
| 72>
| 73>                          ****END OF INPUT****
 Total Charge           Charge          ....    0
 Multiplicity           Mult            ....    1
 Number of Electrons    NEL             ....   36
Dispersion correction           -0.001218716
FINAL SINGLE POINT ENERGY      -231.470349889294
Dispersion correction           -0.000226117
FINAL SINGLE POINT ENERGY      -115.733393856678

CARTESIAN COORDINATES (ANGSTROEM)
---------------------------------
  C      6.352193    4.195746   -4.190666
  O      5.100575    4.500113   -4.616961
  H      4.495087    4.304367   -3.860152
  H      7.093230    4.700914   -4.815245
  H      6.551793    4.589563   -3.174605
  H      6.623159    3.143777   -4.209572
  C      0.867542    3.912928   -3.182663
  O      2.242398    3.624090   -3.323896
  H      2.326476    3.199194   -4.209567
  H      0.454290    2.951350   -2.958725
  H      0.678797    4.536893   -2.275241
  H      0.363630    4.368854   -4.072581

 Multiplicity           Mult            ....    1
 Number of Electrons    NEL             ....   18
 Basis Dimension        Dim             ....  172

ORBITAL ENERGIES
----------------

  NO   OCC          E(Eh)            E(eV)
   0   2.0000     -19.232265      -523.3365
   1   2.0000     -10.314824      -280.6806
   2   2.0000      -1.134442       -30.8697
   3   2.0000      -0.789262       -21.4769
   4   2.0000      -0.605346       -16.4723
   5   2.0000      -0.545819       -14.8525
   6   2.0000      -0.525032       -14.2869
   7   2.0000      -0.435010       -11.8372
   8   2.0000      -0.369568       -10.0565
   9   0.0000       0.093169         2.5353
  10   0.0000       0.116598         3.1728
  11   0.0000       0.152778         4.1573
  12   0.0000       0.193361         5.2616
  13   0.0000       0.200281         5.4499

MULLIKEN ATOMIC CHARGES
-----------------------
   0 C :    0.000490
   1 O :   -0.000802
   2 H :   -0.009319
   3 H :    0.000025
   4 H :   -0.000087
   5 H :   -0.000040
   6 C :   -0.171336
   7 O :   -0.464271
   8 H :    0.318009
   9 H :    0.105642
  10 H :    0.118796
  11 H :    0.102893
Sum of atomic charges:   -0.0000000

LOEWDIN ATOMIC CHARGES
----------------------
   0 C :   -0.000259
   1 O :   -0.002181
   2 H :   -0.016334
   3 H :   -0.000003
   4 H :   -0.000008
   5 H :   -0.000005
   6 C :   -0.395334
   7 O :   -0.077738
   8 H :    0.187671
   9 H :    0.092646
  10 H :    0.112847
  11 H :    0.098699

  Mayer bond orders larger than 0.1
B(  6-C ,  7-O ) :   0.9868 B(  6-C ,  9-H ) :   0.9862 B(  6-C , 10-H ) :   0.9728
B(  6-C , 11-H ) :   0.9680 B(  7-O ,  8-H ) :   0.8929

Dispersion correction           -0.000229314
FINAL SINGLE POINT ENERGY      -115.731016096526

DIPOLE MOMENT
-------------
                                X             Y             Z
Electronic contribution:      1.77775      -0.21784      -0.09525
Nuclear contribution   :     -2.27663       0.05104      -0.38022
                        -----------------------------------------
Total Dipole Moment    :     -0.49888      -0.16680      -0.47547
                        -----------------------------------------
Magnitude (a.u.)       :      0.70907
Magnitude (Debye)      :      1.80230

Rotational constants in cm-1:     4.169019     0.839840     0.802557
Rotational constants in MHz : 124984.039164 25177.775859 24060.065254

                             ****ORCA TERMINATED NORMALLY****
TOTAL RUN TIME: 0 days 0 hours 1 minutes 6 seconds 423 msec
