                         Program Version 4.1.2  - RELEASE  -
|  1> #Run DFT-D3 single point of the dimer
|  2> ! wB97X-D3 def2-TZVP TIGHTSCF CHELPG PMODEL PAL8
|  3>
|  4> %base "8-199_DFT_AB"
|  5>
|  6> %scf
|  7> MaxIter 1000
|  8> end
|  9>
| 10> * xyz 0 1
| 11>   C                      -7.880598            -11.079361           -8.845957
| 12>   O                      -9.145112            -10.554833           -8.505144
| 13>   H                      -9.916251            -11.119350           -8.583174
| 14>   H                      -7.173620            -10.339800           -9.127684
| 15>   H                      -7.395016            -11.633924           -8.037337
| 16>   H                      -7.922735            -11.802137           -9.705003
| 17>   C                      -8.183820            -8.890528            -5.592475
| 18>   O                      -8.780247            -8.304853            -6.702268
| 19>   H                      -8.825074            -8.889431            -7.467641
| 20>   H                      -8.462808            -9.888458            -5.483758
| 21>   H                      -7.092335            -8.916244            -5.847130
| 22>   H                      -8.420054            -8.462473            -4.565540
| 23> *
| 24>
| 25> #Run DFT-D3 single point of the molecule with dimer basis set
| 26> $new_job
| 27> %base "8-199_DFT_A"
| 28> ! wB97X-D3 def2-TZVP TIGHTSCF CHELPG PMODEL
| 29>
| 30> %scf
| 31> MaxIter 1000
| 32> end
| 33>
| 34> * xyz 0 1
| 35>   C                      -7.880598            -11.079361           -8.845957
| 36>   O                      -9.145112            -10.554833           -8.505144
| 37>   H                      -9.916251            -11.119350           -8.583174
| 38>   H                      -7.173620            -10.339800           -9.127684
| 39>   H                      -7.395016            -11.633924           -8.037337
| 40>   H                      -7.922735            -11.802137           -9.705003
| 41>   C                    : -8.183820            -8.890528            -5.592475
| 42>   O                    : -8.780247            -8.304853            -6.702268
| 43>   H                    : -8.825074            -8.889431            -7.467641
| 44>   H                    : -8.462808            -9.888458            -5.483758
| 45>   H                    : -7.092335            -8.916244            -5.847130
| 46>   H                    : -8.420054            -8.462473            -4.565540
| 47> *
| 48>
| 49> #Run DFT-D3 single point of the particle with dimer basis set
| 50> $new_job
| 51> %base "8-199_DFT_B"
| 52> ! wB97X-D3 def2-TZVP TIGHTSCF CHELPG PMODEL
| 53>
| 54> %scf
| 55> MaxIter 1000
| 56> end
| 57>
| 58> * xyz 0 1
| 59>   C                    : -7.880598            -11.079361           -8.845957
| 60>   O                    : -9.145112            -10.554833           -8.505144
| 61>   H                    : -9.916251            -11.119350           -8.583174
| 62>   H                    : -7.173620            -10.339800           -9.127684
| 63>   H                    : -7.395016            -11.633924           -8.037337
| 64>   H                    : -7.922735            -11.802137           -9.705003
| 65>   C                      -8.183820            -8.890528            -5.592475
| 66>   O                      -8.780247            -8.304853            -6.702268
| 67>   H                      -8.825074            -8.889431            -7.467641
| 68>   H                      -8.462808            -9.888458            -5.483758
| 69>   H                      -7.092335            -8.916244            -5.847130
| 70>   H                      -8.420054            -8.462473            -4.565540
| 71> *
| 72>
| 73>                          ****END OF INPUT****
 Total Charge           Charge          ....    0
 Multiplicity           Mult            ....    1
 Number of Electrons    NEL             ....   36
Dispersion correction           -0.002111657
FINAL SINGLE POINT ENERGY      -231.465854335621
Dispersion correction           -0.000278792
FINAL SINGLE POINT ENERGY      -115.731941395039

CARTESIAN COORDINATES (ANGSTROEM)
---------------------------------
  C     -7.880598  -11.079361   -8.845957
  O     -9.145112  -10.554833   -8.505144
  H     -9.916251  -11.119350   -8.583174
  H     -7.173620  -10.339800   -9.127684
  H     -7.395016  -11.633924   -8.037337
  H     -7.922735  -11.802137   -9.705003
  C     -8.183820   -8.890528   -5.592475
  O     -8.780247   -8.304853   -6.702268
  H     -8.825074   -8.889431   -7.467641
  H     -8.462808   -9.888458   -5.483758
  H     -7.092335   -8.916244   -5.847130
  H     -8.420054   -8.462473   -4.565540

 Multiplicity           Mult            ....    1
 Number of Electrons    NEL             ....   18
 Basis Dimension        Dim             ....  172

ORBITAL ENERGIES
----------------

  NO   OCC          E(Eh)            E(eV)
   0   2.0000     -19.227326      -523.2021
   1   2.0000     -10.313314      -280.6395
   2   2.0000      -1.139893       -31.0181
   3   2.0000      -0.795811       -21.6551
   4   2.0000      -0.619526       -16.8582
   5   2.0000      -0.547747       -14.9050
   6   2.0000      -0.526032       -14.3140
   7   2.0000      -0.422461       -11.4958
   8   2.0000      -0.367855       -10.0098
   9   0.0000       0.066146         1.7999
  10   0.0000       0.139843         3.8053
  11   0.0000       0.141607         3.8533
  12   0.0000       0.156820         4.2673
  13   0.0000       0.192243         5.2312

MULLIKEN ATOMIC CHARGES
-----------------------
   0 C :   -0.002683
   1 O :   -0.004294
   2 H :   -0.000430
   3 H :   -0.000272
   4 H :   -0.000222
   5 H :   -0.000121
   6 C :   -0.167237
   7 O :   -0.480827
   8 H :    0.321899
   9 H :    0.108339
  10 H :    0.101828
  11 H :    0.124020
Sum of atomic charges:   -0.0000000

LOEWDIN ATOMIC CHARGES
----------------------
   0 C :   -0.006296
   1 O :   -0.017357
   2 H :   -0.001012
   3 H :   -0.000836
   4 H :   -0.000335
   5 H :   -0.000122
   6 C :   -0.404124
   7 O :   -0.054672
   8 H :    0.181006
   9 H :    0.082282
  10 H :    0.102904
  11 H :    0.118562

  Mayer bond orders larger than 0.1
B(  6-C ,  7-O ) :   0.9773 B(  6-C ,  9-H ) :   0.9772 B(  6-C , 10-H ) :   0.9919
B(  6-C , 11-H ) :   0.9645 B(  7-O ,  8-H ) :   0.8980

Dispersion correction           -0.000233558
FINAL SINGLE POINT ENERGY      -115.725612050595

DIPOLE MOMENT
-------------
                                X             Y             Z
Electronic contribution:     -0.88988       0.92836      -1.30747
Nuclear contribution   :      1.05988      -1.58037       1.25641
                        -----------------------------------------
Total Dipole Moment    :      0.17001      -0.65201      -0.05106
                        -----------------------------------------
Magnitude (a.u.)       :      0.67574
Magnitude (Debye)      :      1.71760

Rotational constants in cm-1:     4.390732     0.844318     0.814951
Rotational constants in MHz : 131630.824295 25312.011299 24431.629916

                             ****ORCA TERMINATED NORMALLY****
TOTAL RUN TIME: 0 days 0 hours 0 minutes 48 seconds 297 msec
