                         Program Version 4.1.2  - RELEASE  -
|  1> #Run DFT-D3 single point of the dimer
|  2> ! wB97X-D3 def2-TZVP TIGHTSCF CHELPG PMODEL PAL8
|  3>
|  4> %base "7-93_DFT_AB"
|  5>
|  6> %scf
|  7> MaxIter 1000
|  8> end
|  9>
| 10> * xyz 0 1
| 11>   C                      -4.531715            -3.327488            3.855180
| 12>   O                      -5.285925            -4.508734            4.030222
| 13>   H                      -4.623814            -5.225967            3.998889
| 14>   H                      -4.056107            -3.085744            4.805620
| 15>   H                      -3.844368            -3.437728            3.013197
| 16>   H                      -5.163979            -2.483007            3.642173
| 17>   C                      -5.076573            -6.879441            1.705663
| 18>   O                      -3.866430            -6.551945            2.291352
| 19>   H                      -3.217793            -7.265157            2.074985
| 20>   H                      -5.829489            -6.212226            1.964640
| 21>   H                      -5.003095            -6.860190            0.617543
| 22>   H                      -5.416746            -7.881705            2.055767
| 23> *
| 24>
| 25> #Run DFT-D3 single point of the molecule with dimer basis set
| 26> $new_job
| 27> %base "7-93_DFT_A"
| 28> ! wB97X-D3 def2-TZVP TIGHTSCF CHELPG PMODEL
| 29>
| 30> %scf
| 31> MaxIter 1000
| 32> end
| 33>
| 34> * xyz 0 1
| 35>   C                      -4.531715            -3.327488            3.855180
| 36>   O                      -5.285925            -4.508734            4.030222
| 37>   H                      -4.623814            -5.225967            3.998889
| 38>   H                      -4.056107            -3.085744            4.805620
| 39>   H                      -3.844368            -3.437728            3.013197
| 40>   H                      -5.163979            -2.483007            3.642173
| 41>   C                    : -5.076573            -6.879441            1.705663
| 42>   O                    : -3.866430            -6.551945            2.291352
| 43>   H                    : -3.217793            -7.265157            2.074985
| 44>   H                    : -5.829489            -6.212226            1.964640
| 45>   H                    : -5.003095            -6.860190            0.617543
| 46>   H                    : -5.416746            -7.881705            2.055767
| 47> *
| 48>
| 49> #Run DFT-D3 single point of the particle with dimer basis set
| 50> $new_job
| 51> %base "7-93_DFT_B"
| 52> ! wB97X-D3 def2-TZVP TIGHTSCF CHELPG PMODEL
| 53>
| 54> %scf
| 55> MaxIter 1000
| 56> end
| 57>
| 58> * xyz 0 1
| 59>   C                    : -4.531715            -3.327488            3.855180
| 60>   O                    : -5.285925            -4.508734            4.030222
| 61>   H                    : -4.623814            -5.225967            3.998889
| 62>   H                    : -4.056107            -3.085744            4.805620
| 63>   H                    : -3.844368            -3.437728            3.013197
| 64>   H                    : -5.163979            -2.483007            3.642173
| 65>   C                      -5.076573            -6.879441            1.705663
| 66>   O                      -3.866430            -6.551945            2.291352
| 67>   H                      -3.217793            -7.265157            2.074985
| 68>   H                      -5.829489            -6.212226            1.964640
| 69>   H                      -5.003095            -6.860190            0.617543
| 70>   H                      -5.416746            -7.881705            2.055767
| 71> *
| 72>
| 73>                          ****END OF INPUT****
 Total Charge           Charge          ....    0
 Multiplicity           Mult            ....    1
 Number of Electrons    NEL             ....   36
Dispersion correction           -0.001888015
FINAL SINGLE POINT ENERGY      -231.475905920713
Dispersion correction           -0.000221102
FINAL SINGLE POINT ENERGY      -115.735255616939

CARTESIAN COORDINATES (ANGSTROEM)
---------------------------------
  C     -4.531715   -3.327488    3.855180
  O     -5.285925   -4.508734    4.030222
  H     -4.623814   -5.225967    3.998889
  H     -4.056107   -3.085744    4.805620
  H     -3.844368   -3.437728    3.013197
  H     -5.163979   -2.483007    3.642173
  C     -5.076573   -6.879441    1.705663
  O     -3.866430   -6.551945    2.291352
  H     -3.217793   -7.265157    2.074985
  H     -5.829489   -6.212226    1.964640
  H     -5.003095   -6.860190    0.617543
  H     -5.416746   -7.881705    2.055767

 Multiplicity           Mult            ....    1
 Number of Electrons    NEL             ....   18
 Basis Dimension        Dim             ....  172

ORBITAL ENERGIES
----------------

  NO   OCC          E(Eh)            E(eV)
   0   2.0000     -19.232088      -523.3317
   1   2.0000     -10.306082      -280.4427
   2   2.0000      -1.140840       -31.0438
   3   2.0000      -0.795865       -21.6566
   4   2.0000      -0.610516       -16.6130
   5   2.0000      -0.546603       -14.8738
   6   2.0000      -0.538681       -14.6582
   7   2.0000      -0.429647       -11.6913
   8   2.0000      -0.371075       -10.0975
   9   0.0000       0.097332         2.6485
  10   0.0000       0.120856         3.2887
  11   0.0000       0.155596         4.2340
  12   0.0000       0.188849         5.1389
  13   0.0000       0.200402         5.4532

MULLIKEN ATOMIC CHARGES
-----------------------
   0 C :    0.002750
   1 O :    0.001017
   2 H :   -0.006926
   3 H :   -0.000162
   4 H :   -0.004008
   5 H :   -0.000112
   6 C :   -0.154747
   7 O :   -0.466097
   8 H :    0.316282
   9 H :    0.123663
  10 H :    0.098844
  11 H :    0.089495
Sum of atomic charges:    0.0000000

LOEWDIN ATOMIC CHARGES
----------------------
   0 C :   -0.002441
   1 O :   -0.003246
   2 H :   -0.016947
   3 H :   -0.000014
   4 H :   -0.001886
   5 H :   -0.000014
   6 C :   -0.401765
   7 O :   -0.049880
   8 H :    0.188413
   9 H :    0.096285
  10 H :    0.093961
  11 H :    0.097536

  Mayer bond orders larger than 0.1
B(  6-C ,  7-O ) :   0.9949 B(  6-C ,  9-H ) :   0.9745 B(  6-C , 10-H ) :   0.9764
B(  6-C , 11-H ) :   0.9812 B(  7-O ,  8-H ) :   0.8921

Dispersion correction           -0.000222036
FINAL SINGLE POINT ENERGY      -115.733541928252

DIPOLE MOMENT
-------------
                                X             Y             Z
Electronic contribution:      1.50359       0.63404       0.82816
Nuclear contribution   :     -1.57075      -1.18623      -1.18304
                        -----------------------------------------
Total Dipole Moment    :     -0.06715      -0.55219      -0.35489
                        -----------------------------------------
Magnitude (a.u.)       :      0.65983
Magnitude (Debye)      :      1.67715

Rotational constants in cm-1:     4.335784     0.858140     0.833127
Rotational constants in MHz : 129983.528628 25726.385488 24976.526325

                             ****ORCA TERMINATED NORMALLY****
TOTAL RUN TIME: 0 days 0 hours 0 minutes 55 seconds 477 msec
