                         Program Version 4.1.2  - RELEASE  -
|  1> #Run DFT-D3 single point of the dimer
|  2> ! wB97X-D3 def2-TZVP TIGHTSCF CHELPG PMODEL PAL8
|  3>
|  4> %base "13-177_DFT_AB"
|  5>
|  6> %scf
|  7> MaxIter 1000
|  8> end
|  9>
| 10> * xyz 0 1
| 11>   C                      -8.175449            2.746765             -1.837950
| 12>   O                      -8.060172            1.347872             -1.509764
| 13>   H                      -7.152855            1.053652             -1.666158
| 14>   H                      -8.791188            3.313160             -1.209012
| 15>   H                      -7.184519            3.201967             -1.930907
| 16>   H                      -8.582462            2.806671             -2.921973
| 17>   C                      -8.780170            -0.005210            1.369627
| 18>   O                      -9.186210            -0.753698            0.255465
| 19>   H                      -9.206052            -0.176593            -0.485344
| 20>   H                      -8.738875            -0.594958            2.254394
| 21>   H                      -7.789838            0.382653             1.322677
| 22>   H                      -9.441649            0.884311             1.442646
| 23> *
| 24>
| 25> #Run DFT-D3 single point of the molecule with dimer basis set
| 26> $new_job
| 27> %base "13-177_DFT_A"
| 28> ! wB97X-D3 def2-TZVP TIGHTSCF CHELPG PMODEL
| 29>
| 30> %scf
| 31> MaxIter 1000
| 32> end
| 33>
| 34> * xyz 0 1
| 35>   C                      -8.175449            2.746765             -1.837950
| 36>   O                      -8.060172            1.347872             -1.509764
| 37>   H                      -7.152855            1.053652             -1.666158
| 38>   H                      -8.791188            3.313160             -1.209012
| 39>   H                      -7.184519            3.201967             -1.930907
| 40>   H                      -8.582462            2.806671             -2.921973
| 41>   C                    : -8.780170            -0.005210            1.369627
| 42>   O                    : -9.186210            -0.753698            0.255465
| 43>   H                    : -9.206052            -0.176593            -0.485344
| 44>   H                    : -8.738875            -0.594958            2.254394
| 45>   H                    : -7.789838            0.382653             1.322677
| 46>   H                    : -9.441649            0.884311             1.442646
| 47> *
| 48>
| 49> #Run DFT-D3 single point of the particle with dimer basis set
| 50> $new_job
| 51> %base "13-177_DFT_B"
| 52> ! wB97X-D3 def2-TZVP TIGHTSCF CHELPG PMODEL
| 53>
| 54> %scf
| 55> MaxIter 1000
| 56> end
| 57>
| 58> * xyz 0 1
| 59>   C                    : -8.175449            2.746765             -1.837950
| 60>   O                    : -8.060172            1.347872             -1.509764
| 61>   H                    : -7.152855            1.053652             -1.666158
| 62>   H                    : -8.791188            3.313160             -1.209012
| 63>   H                    : -7.184519            3.201967             -1.930907
| 64>   H                    : -8.582462            2.806671             -2.921973
| 65>   C                      -8.780170            -0.005210            1.369627
| 66>   O                      -9.186210            -0.753698            0.255465
| 67>   H                      -9.206052            -0.176593            -0.485344
| 68>   H                      -8.738875            -0.594958            2.254394
| 69>   H                      -7.789838            0.382653             1.322677
| 70>   H                      -9.441649            0.884311             1.442646
| 71> *
| 72>
| 73>                          ****END OF INPUT****
 Total Charge           Charge          ....    0
 Multiplicity           Mult            ....    1
 Number of Electrons    NEL             ....   36
Dispersion correction           -0.001894843
FINAL SINGLE POINT ENERGY      -231.470071148967
Dispersion correction           -0.000258959
FINAL SINGLE POINT ENERGY      -115.729896079378

CARTESIAN COORDINATES (ANGSTROEM)
---------------------------------
  C     -8.175449    2.746765   -1.837950
  O     -8.060172    1.347872   -1.509764
  H     -7.152855    1.053652   -1.666158
  H     -8.791188    3.313160   -1.209012
  H     -7.184519    3.201967   -1.930907
  H     -8.582462    2.806671   -2.921973
  C     -8.780170   -0.005210    1.369627
  O     -9.186210   -0.753698    0.255465
  H     -9.206052   -0.176593   -0.485344
  H     -8.738875   -0.594958    2.254394
  H     -7.789838    0.382653    1.322677
  H     -9.441649    0.884311    1.442646

 Multiplicity           Mult            ....    1
 Number of Electrons    NEL             ....   18
 Basis Dimension        Dim             ....  172

ORBITAL ENERGIES
----------------

  NO   OCC          E(Eh)            E(eV)
   0   2.0000     -19.228930      -523.2458
   1   2.0000     -10.307865      -280.4913
   2   2.0000      -1.144478       -31.1428
   3   2.0000      -0.801641       -21.8138
   4   2.0000      -0.617683       -16.8080
   5   2.0000      -0.549469       -14.9518
   6   2.0000      -0.527194       -14.3457
   7   2.0000      -0.437151       -11.8955
   8   2.0000      -0.372039       -10.1237
   9   0.0000       0.069829         1.9001
  10   0.0000       0.131148         3.5687
  11   0.0000       0.149796         4.0762
  12   0.0000       0.159568         4.3421
  13   0.0000       0.197109         5.3636

MULLIKEN ATOMIC CHARGES
-----------------------
   0 C :   -0.000919
   1 O :   -0.004255
   2 H :   -0.000658
   3 H :   -0.000044
   4 H :   -0.000018
   5 H :    0.000068
   6 C :   -0.161553
   7 O :   -0.466855
   8 H :    0.312269
   9 H :    0.124421
  10 H :    0.099872
  11 H :    0.097672
Sum of atomic charges:   -0.0000000

LOEWDIN ATOMIC CHARGES
----------------------
   0 C :   -0.001221
   1 O :   -0.012604
   2 H :   -0.001405
   3 H :   -0.000101
   4 H :   -0.000029
   5 H :   -0.000016
   6 C :   -0.386138
   7 O :   -0.049161
   8 H :    0.158888
   9 H :    0.103538
  10 H :    0.088159
  11 H :    0.100089

  Mayer bond orders larger than 0.1
B(  6-C ,  7-O ) :   0.9964 B(  6-C ,  9-H ) :   0.9742 B(  6-C , 10-H ) :   0.9724
B(  6-C , 11-H ) :   0.9890 B(  7-O ,  8-H ) :   0.9082

Dispersion correction           -0.000225077
FINAL SINGLE POINT ENERGY      -115.732873054465

DIPOLE MOMENT
-------------
                                X             Y             Z
Electronic contribution:     -0.53977      -1.17168      -1.33131
Nuclear contribution   :      0.71214       1.82011       1.30557
                        -----------------------------------------
Total Dipole Moment    :      0.17237       0.64843      -0.02574
                        -----------------------------------------
Magnitude (a.u.)       :      0.67144
Magnitude (Debye)      :      1.70667

Rotational constants in cm-1:     4.466918     0.847085     0.810917
Rotational constants in MHz : 133914.833093 25394.975519 24310.669336

                             ****ORCA TERMINATED NORMALLY****
TOTAL RUN TIME: 0 days 0 hours 1 minutes 14 seconds 671 msec
