                         Program Version 4.1.2  - RELEASE  -
|  1> #Run DFT-D3 single point of the dimer
|  2> ! wB97X-D3 def2-TZVP TIGHTSCF CHELPG PMODEL PAL8
|  3>
|  4> %base "18-30_DFT_AB"
|  5>
|  6> %scf
|  7> MaxIter 1000
|  8> end
|  9>
| 10> * xyz 0 1
| 11>   C                      5.188788             2.614549             -0.430988
| 12>   O                      4.272714             3.629414             -0.212891
| 13>   H                      4.735754             4.461235             -0.188900
| 14>   H                      5.899015             2.492255             0.391204
| 15>   H                      4.718363             1.670627             -0.695147
| 16>   H                      5.822392             2.953750             -1.309417
| 17>   C                      1.636724             3.135065             2.117009
| 18>   O                      2.604797             4.134345             2.105509
| 19>   H                      3.121479             4.067333             1.366747
| 20>   H                      0.710944             3.498242             1.633896
| 21>   H                      2.003399             2.198922             1.581749
| 22>   H                      1.507178             2.963489             3.155185
| 23> *
| 24>
| 25> #Run DFT-D3 single point of the molecule with dimer basis set
| 26> $new_job
| 27> %base "18-30_DFT_A"
| 28> ! wB97X-D3 def2-TZVP TIGHTSCF CHELPG PMODEL
| 29>
| 30> %scf
| 31> MaxIter 1000
| 32> end
| 33>
| 34> * xyz 0 1
| 35>   C                      5.188788             2.614549             -0.430988
| 36>   O                      4.272714             3.629414             -0.212891
| 37>   H                      4.735754             4.461235             -0.188900
| 38>   H                      5.899015             2.492255             0.391204
| 39>   H                      4.718363             1.670627             -0.695147
| 40>   H                      5.822392             2.953750             -1.309417
| 41>   C                    : 1.636724             3.135065             2.117009
| 42>   O                    : 2.604797             4.134345             2.105509
| 43>   H                    : 3.121479             4.067333             1.366747
| 44>   H                    : 0.710944             3.498242             1.633896
| 45>   H                    : 2.003399             2.198922             1.581749
| 46>   H                    : 1.507178             2.963489             3.155185
| 47> *
| 48>
| 49> #Run DFT-D3 single point of the particle with dimer basis set
| 50> $new_job
| 51> %base "18-30_DFT_B"
| 52> ! wB97X-D3 def2-TZVP TIGHTSCF CHELPG PMODEL
| 53>
| 54> %scf
| 55> MaxIter 1000
| 56> end
| 57>
| 58> * xyz 0 1
| 59>   C                    : 5.188788             2.614549             -0.430988
| 60>   O                    : 4.272714             3.629414             -0.212891
| 61>   H                    : 4.735754             4.461235             -0.188900
| 62>   H                    : 5.899015             2.492255             0.391204
| 63>   H                    : 4.718363             1.670627             -0.695147
| 64>   H                    : 5.822392             2.953750             -1.309417
| 65>   C                      1.636724             3.135065             2.117009
| 66>   O                      2.604797             4.134345             2.105509
| 67>   H                      3.121479             4.067333             1.366747
| 68>   H                      0.710944             3.498242             1.633896
| 69>   H                      2.003399             2.198922             1.581749
| 70>   H                      1.507178             2.963489             3.155185
| 71> *
| 72>
| 73>                          ****END OF INPUT****
 Total Charge           Charge          ....    0
 Multiplicity           Mult            ....    1
 Number of Electrons    NEL             ....   36
Dispersion correction           -0.001677362
FINAL SINGLE POINT ENERGY      -231.470853955576
Dispersion correction           -0.000220553
FINAL SINGLE POINT ENERGY      -115.733714344996

CARTESIAN COORDINATES (ANGSTROEM)
---------------------------------
  C      5.188788    2.614549   -0.430988
  O      4.272714    3.629414   -0.212891
  H      4.735754    4.461235   -0.188900
  H      5.899015    2.492255    0.391204
  H      4.718363    1.670627   -0.695147
  H      5.822392    2.953750   -1.309417
  C      1.636724    3.135065    2.117009
  O      2.604797    4.134345    2.105509
  H      3.121479    4.067333    1.366747
  H      0.710944    3.498242    1.633896
  H      2.003399    2.198922    1.581749
  H      1.507178    2.963489    3.155185

 Multiplicity           Mult            ....    1
 Number of Electrons    NEL             ....   18
 Basis Dimension        Dim             ....  172

ORBITAL ENERGIES
----------------

  NO   OCC          E(Eh)            E(eV)
   0   2.0000     -19.221231      -523.0363
   1   2.0000     -10.312942      -280.6294
   2   2.0000      -1.152726       -31.3673
   3   2.0000      -0.799607       -21.7584
   4   2.0000      -0.618163       -16.8211
   5   2.0000      -0.546706       -14.8766
   6   2.0000      -0.529204       -14.4004
   7   2.0000      -0.432744       -11.7756
   8   2.0000      -0.372089       -10.1250
   9   0.0000       0.070670         1.9230
  10   0.0000       0.134736         3.6664
  11   0.0000       0.145215         3.9515
  12   0.0000       0.177453         4.8287
  13   0.0000       0.190771         5.1911

MULLIKEN ATOMIC CHARGES
-----------------------
   0 C :   -0.001937
   1 O :   -0.003430
   2 H :   -0.000357
   3 H :    0.000113
   4 H :   -0.000088
   5 H :   -0.000008
   6 C :   -0.146128
   7 O :   -0.455928
   8 H :    0.299147
   9 H :    0.096470
  10 H :    0.093160
  11 H :    0.118987
Sum of atomic charges:   -0.0000000

LOEWDIN ATOMIC CHARGES
----------------------
   0 C :   -0.002265
   1 O :   -0.016225
   2 H :   -0.002208
   3 H :   -0.000143
   4 H :   -0.000115
   5 H :   -0.000051
   6 C :   -0.390023
   7 O :   -0.023955
   8 H :    0.133956
   9 H :    0.096625
  10 H :    0.102870
  11 H :    0.101534

  Mayer bond orders larger than 0.1
B(  6-C ,  7-O ) :   0.9844 B(  6-C ,  9-H ) :   0.9746 B(  6-C , 10-H ) :   0.9779
B(  6-C , 11-H ) :   0.9800 B(  7-O ,  8-H ) :   0.9260

Dispersion correction           -0.000225266
FINAL SINGLE POINT ENERGY      -115.729991528547

DIPOLE MOMENT
-------------
                                X             Y             Z
Electronic contribution:      1.13554       1.28285       0.10968
Nuclear contribution   :     -1.15425      -1.71116      -0.57726
                        -----------------------------------------
Total Dipole Moment    :     -0.01871      -0.42831      -0.46758
                        -----------------------------------------
Magnitude (a.u.)       :      0.63438
Magnitude (Debye)      :      1.61246

Rotational constants in cm-1:     4.239353     0.863957     0.835354
Rotational constants in MHz : 127092.600815 25900.775818 25043.283592

                             ****ORCA TERMINATED NORMALLY****
TOTAL RUN TIME: 0 days 0 hours 1 minutes 3 seconds 280 msec
