                         Program Version 4.1.2  - RELEASE  -
|  1> #Run DFT-D3 single point of the dimer
|  2> ! wB97X-D3 def2-TZVP TIGHTSCF CHELPG PMODEL PAL8
|  3>
|  4> %base "16-2_DFT_AB"
|  5>
|  6> %scf
|  7> MaxIter 1000
|  8> end
|  9>
| 10> * xyz 0 1
| 11>   C                      -3.613576            2.949622             3.934506
| 12>   O                      -3.601508            3.698823             5.159507
| 13>   H                      -2.638820            3.713132             5.390762
| 14>   H                      -2.909974            3.467466             3.239017
| 15>   H                      -3.265800            1.935287             3.994618
| 16>   H                      -4.596142            2.930245             3.440482
| 17>   C                      -3.015513            4.657646             8.973627
| 18>   O                      -1.868843            4.290034             9.722191
| 19>   H                      -1.130121            4.887643             9.436925
| 20>   H                      -2.824309            4.660446             7.877721
| 21>   H                      -3.872396            3.998280             9.281944
| 22>   H                      -3.256881            5.665914             9.192009
| 23> *
| 24>
| 25> #Run DFT-D3 single point of the molecule with dimer basis set
| 26> $new_job
| 27> %base "16-2_DFT_A"
| 28> ! wB97X-D3 def2-TZVP TIGHTSCF CHELPG PMODEL
| 29>
| 30> %scf
| 31> MaxIter 1000
| 32> end
| 33>
| 34> * xyz 0 1
| 35>   C                      -3.613576            2.949622             3.934506
| 36>   O                      -3.601508            3.698823             5.159507
| 37>   H                      -2.638820            3.713132             5.390762
| 38>   H                      -2.909974            3.467466             3.239017
| 39>   H                      -3.265800            1.935287             3.994618
| 40>   H                      -4.596142            2.930245             3.440482
| 41>   C                    : -3.015513            4.657646             8.973627
| 42>   O                    : -1.868843            4.290034             9.722191
| 43>   H                    : -1.130121            4.887643             9.436925
| 44>   H                    : -2.824309            4.660446             7.877721
| 45>   H                    : -3.872396            3.998280             9.281944
| 46>   H                    : -3.256881            5.665914             9.192009
| 47> *
| 48>
| 49> #Run DFT-D3 single point of the particle with dimer basis set
| 50> $new_job
| 51> %base "16-2_DFT_B"
| 52> ! wB97X-D3 def2-TZVP TIGHTSCF CHELPG PMODEL
| 53>
| 54> %scf
| 55> MaxIter 1000
| 56> end
| 57>
| 58> * xyz 0 1
| 59>   C                    : -3.613576            2.949622             3.934506
| 60>   O                    : -3.601508            3.698823             5.159507
| 61>   H                    : -2.638820            3.713132             5.390762
| 62>   H                    : -2.909974            3.467466             3.239017
| 63>   H                    : -3.265800            1.935287             3.994618
| 64>   H                    : -4.596142            2.930245             3.440482
| 65>   C                      -3.015513            4.657646             8.973627
| 66>   O                      -1.868843            4.290034             9.722191
| 67>   H                      -1.130121            4.887643             9.436925
| 68>   H                      -2.824309            4.660446             7.877721
| 69>   H                      -3.872396            3.998280             9.281944
| 70>   H                      -3.256881            5.665914             9.192009
| 71> *
| 72>
| 73>                          ****END OF INPUT****
 Total Charge           Charge          ....    0
 Multiplicity           Mult            ....    1
 Number of Electrons    NEL             ....   36
Dispersion correction           -0.001049374
FINAL SINGLE POINT ENERGY      -231.465703820666
Dispersion correction           -0.000238810
FINAL SINGLE POINT ENERGY      -115.732194414519

CARTESIAN COORDINATES (ANGSTROEM)
---------------------------------
  C     -3.613576    2.949622    3.934506
  O     -3.601508    3.698823    5.159507
  H     -2.638820    3.713132    5.390762
  H     -2.909974    3.467466    3.239017
  H     -3.265800    1.935287    3.994618
  H     -4.596142    2.930245    3.440482
  C     -3.015513    4.657646    8.973627
  O     -1.868843    4.290034    9.722191
  H     -1.130121    4.887643    9.436925
  H     -2.824309    4.660446    7.877721
  H     -3.872396    3.998280    9.281944
  H     -3.256881    5.665914    9.192009

 Multiplicity           Mult            ....    1
 Number of Electrons    NEL             ....   18
 Basis Dimension        Dim             ....  172

ORBITAL ENERGIES
----------------

  NO   OCC          E(Eh)            E(eV)
   0   2.0000     -19.231336      -523.3112
   1   2.0000     -10.314353      -280.6678
   2   2.0000      -1.129125       -30.7250
   3   2.0000      -0.790501       -21.5106
   4   2.0000      -0.609393       -16.5824
   5   2.0000      -0.536998       -14.6125
   6   2.0000      -0.523460       -14.2441
   7   2.0000      -0.436966       -11.8905
   8   2.0000      -0.369663       -10.0590
   9   0.0000       0.085004         2.3131
  10   0.0000       0.111078         3.0226
  11   0.0000       0.145676         3.9640
  12   0.0000       0.173571         4.7231
  13   0.0000       0.192886         5.2487

MULLIKEN ATOMIC CHARGES
-----------------------
   0 C :   -0.000367
   1 O :   -0.000216
   2 H :    0.000503
   3 H :    0.000012
   4 H :    0.000014
   5 H :    0.000001
   6 C :   -0.166088
   7 O :   -0.476982
   8 H :    0.314423
   9 H :    0.100373
  10 H :    0.122421
  11 H :    0.105906
Sum of atomic charges:   -0.0000000

LOEWDIN ATOMIC CHARGES
----------------------
   0 C :   -0.000087
   1 O :   -0.001562
   2 H :   -0.002398
   3 H :   -0.000001
   4 H :   -0.000002
   5 H :   -0.000002
   6 C :   -0.386493
   7 O :   -0.096702
   8 H :    0.186418
   9 H :    0.098087
  10 H :    0.117253
  11 H :    0.085488

  Mayer bond orders larger than 0.1
B(  6-C ,  7-O ) :   0.9913 B(  6-C ,  9-H ) :   0.9744 B(  6-C , 10-H ) :   0.9697
B(  6-C , 11-H ) :   0.9789 B(  7-O ,  8-H ) :   0.8951

Dispersion correction           -0.000231480
FINAL SINGLE POINT ENERGY      -115.732928876455

DIPOLE MOMENT
-------------
                                X             Y             Z
Electronic contribution:      1.33873      -0.62487       1.02407
Nuclear contribution   :     -1.33821       1.16289      -1.48391
                        -----------------------------------------
Total Dipole Moment    :      0.00052       0.53802      -0.45984
                        -----------------------------------------
Magnitude (a.u.)       :      0.70776
Magnitude (Debye)      :      1.79897

Rotational constants in cm-1:     4.160297     0.837037     0.792307
Rotational constants in MHz : 124722.562934 25093.746751 23752.776159

                             ****ORCA TERMINATED NORMALLY****
TOTAL RUN TIME: 0 days 0 hours 0 minutes 53 seconds 776 msec
