                         Program Version 4.1.2  - RELEASE  -
|  1> #Run DFT-D3 single point of the dimer
|  2> ! wB97X-D3 def2-TZVP TIGHTSCF CHELPG PMODEL PAL8
|  3>
|  4> %base "21-180_DFT_AB"
|  5>
|  6> %scf
|  7> MaxIter 1000
|  8> end
|  9>
| 10> * xyz 0 1
| 11>   C                      -11.037527           -3.212661            -4.954349
| 12>   O                      -11.653769           -4.363571            -4.477252
| 13>   H                      -10.981120           -5.061622            -4.515880
| 14>   H                      -10.440993           -2.781298            -4.187110
| 15>   H                      -10.351017           -3.431853            -5.730058
| 16>   H                      -11.762846           -2.445392            -5.269917
| 17>   C                      -8.595847            -6.154089            -5.484625
| 18>   O                      -9.426855            -6.482091            -4.449052
| 19>   H                      -8.852341            -7.088361            -3.970164
| 20>   H                      -7.546045            -5.835245            -5.055620
| 21>   H                      -8.455440            -7.067868            -6.005202
| 22>   H                      -8.996814            -5.380698            -6.153007
| 23> *
| 24>
| 25> #Run DFT-D3 single point of the molecule with dimer basis set
| 26> $new_job
| 27> %base "21-180_DFT_A"
| 28> ! wB97X-D3 def2-TZVP TIGHTSCF CHELPG PMODEL
| 29>
| 30> %scf
| 31> MaxIter 1000
| 32> end
| 33>
| 34> * xyz 0 1
| 35>   C                      -11.037527           -3.212661            -4.954349
| 36>   O                      -11.653769           -4.363571            -4.477252
| 37>   H                      -10.981120           -5.061622            -4.515880
| 38>   H                      -10.440993           -2.781298            -4.187110
| 39>   H                      -10.351017           -3.431853            -5.730058
| 40>   H                      -11.762846           -2.445392            -5.269917
| 41>   C                    : -8.595847            -6.154089            -5.484625
| 42>   O                    : -9.426855            -6.482091            -4.449052
| 43>   H                    : -8.852341            -7.088361            -3.970164
| 44>   H                    : -7.546045            -5.835245            -5.055620
| 45>   H                    : -8.455440            -7.067868            -6.005202
| 46>   H                    : -8.996814            -5.380698            -6.153007
| 47> *
| 48>
| 49> #Run DFT-D3 single point of the particle with dimer basis set
| 50> $new_job
| 51> %base "21-180_DFT_B"
| 52> ! wB97X-D3 def2-TZVP TIGHTSCF CHELPG PMODEL
| 53>
| 54> %scf
| 55> MaxIter 1000
| 56> end
| 57>
| 58> * xyz 0 1
| 59>   C                    : -11.037527           -3.212661            -4.954349
| 60>   O                    : -11.653769           -4.363571            -4.477252
| 61>   H                    : -10.981120           -5.061622            -4.515880
| 62>   H                    : -10.440993           -2.781298            -4.187110
| 63>   H                    : -10.351017           -3.431853            -5.730058
| 64>   H                    : -11.762846           -2.445392            -5.269917
| 65>   C                      -8.595847            -6.154089            -5.484625
| 66>   O                      -9.426855            -6.482091            -4.449052
| 67>   H                      -8.852341            -7.088361            -3.970164
| 68>   H                      -7.546045            -5.835245            -5.055620
| 69>   H                      -8.455440            -7.067868            -6.005202
| 70>   H                      -8.996814            -5.380698            -6.153007
| 71> *
| 72>
| 73>                          ****END OF INPUT****
 Total Charge           Charge          ....    0
 Multiplicity           Mult            ....    1
 Number of Electrons    NEL             ....   36
Dispersion correction           -0.001892386
FINAL SINGLE POINT ENERGY      -231.464301023466
Dispersion correction           -0.000212425
FINAL SINGLE POINT ENERGY      -115.733202759952

CARTESIAN COORDINATES (ANGSTROEM)
---------------------------------
  C    -11.037527   -3.212661   -4.954349
  O    -11.653769   -4.363571   -4.477252
  H    -10.981120   -5.061622   -4.515880
  H    -10.440993   -2.781298   -4.187110
  H    -10.351017   -3.431853   -5.730058
  H    -11.762846   -2.445392   -5.269917
  C     -8.595847   -6.154089   -5.484625
  O     -9.426855   -6.482091   -4.449052
  H     -8.852341   -7.088361   -3.970164
  H     -7.546045   -5.835245   -5.055620
  H     -8.455440   -7.067868   -6.005202
  H     -8.996814   -5.380698   -6.153007

 Multiplicity           Mult            ....    1
 Number of Electrons    NEL             ....   18
 Basis Dimension        Dim             ....  172

ORBITAL ENERGIES
----------------

  NO   OCC          E(Eh)            E(eV)
   0   2.0000     -19.230918      -523.2999
   1   2.0000     -10.316010      -280.7129
   2   2.0000      -1.158897       -31.5352
   3   2.0000      -0.784118       -21.3369
   4   2.0000      -0.617698       -16.8084
   5   2.0000      -0.549783       -14.9603
   6   2.0000      -0.535971       -14.5845
   7   2.0000      -0.437309       -11.8998
   8   2.0000      -0.366286        -9.9671
   9   0.0000       0.095160         2.5894
  10   0.0000       0.118504         3.2246
  11   0.0000       0.159601         4.3430
  12   0.0000       0.189794         5.1646
  13   0.0000       0.194134         5.2826

MULLIKEN ATOMIC CHARGES
-----------------------
   0 C :    0.001655
   1 O :    0.000871
   2 H :   -0.011191
   3 H :   -0.000630
   4 H :   -0.000613
   5 H :    0.000014
   6 C :   -0.176663
   7 O :   -0.440054
   8 H :    0.313181
   9 H :    0.082974
  10 H :    0.108030
  11 H :    0.122427
Sum of atomic charges:   -0.0000000

LOEWDIN ATOMIC CHARGES
----------------------
   0 C :   -0.002923
   1 O :   -0.002154
   2 H :   -0.025362
   3 H :   -0.000133
   4 H :   -0.003148
   5 H :   -0.000022
   6 C :   -0.423407
   7 O :   -0.024947
   8 H :    0.180898
   9 H :    0.102794
  10 H :    0.087986
  11 H :    0.110417

  Mayer bond orders larger than 0.1
B(  6-C ,  7-O ) :   0.9770 B(  6-C ,  9-H ) :   0.9780 B(  6-C , 10-H ) :   0.9838
B(  6-C , 11-H ) :   0.9720 B(  7-O ,  8-H ) :   0.8984

Dispersion correction           -0.000189814
FINAL SINGLE POINT ENERGY      -115.724788686858

DIPOLE MOMENT
-------------
                                X             Y             Z
Electronic contribution:     -1.37517      -0.26997       1.21917
Nuclear contribution   :      1.98764      -0.00734      -1.31433
                        -----------------------------------------
Total Dipole Moment    :      0.61247      -0.27731      -0.09516
                        -----------------------------------------
Magnitude (a.u.)       :      0.67903
Magnitude (Debye)      :      1.72595

Rotational constants in cm-1:     4.055220     0.897209     0.852896
Rotational constants in MHz : 121572.422542 26897.645265 25569.189049

                             ****ORCA TERMINATED NORMALLY****
TOTAL RUN TIME: 0 days 0 hours 1 minutes 8 seconds 656 msec
