                         Program Version 4.1.2  - RELEASE  -
|  1> #Run DFT-D3 single point of the dimer
|  2> ! wB97X-D3 def2-TZVP TIGHTSCF CHELPG PMODEL PAL8
|  3>
|  4> %base "10-46_DFT_AB"
|  5>
|  6> %scf
|  7> MaxIter 1000
|  8> end
|  9>
| 10> * xyz 0 1
| 11>   C                      6.640702             1.118679             1.001048
| 12>   O                      7.266035             -0.143782            1.123999
| 13>   H                      7.994274             -0.063849            0.473445
| 14>   H                      5.730766             1.058960             0.469523
| 15>   H                      6.333335             1.429739             2.003741
| 16>   H                      7.222567             1.942048             0.618447
| 17>   C                      10.817425            -2.253238            2.686767
| 18>   O                      11.196271            -2.498821            4.010807
| 19>   H                      10.538250            -2.908171            4.521803
| 20>   H                      9.929062             -1.706413            2.595542
| 21>   H                      11.545464            -1.735707            2.147440
| 22>   H                      10.553367            -3.127474            2.134818
| 23> *
| 24>
| 25> #Run DFT-D3 single point of the molecule with dimer basis set
| 26> $new_job
| 27> %base "10-46_DFT_A"
| 28> ! wB97X-D3 def2-TZVP TIGHTSCF CHELPG PMODEL
| 29>
| 30> %scf
| 31> MaxIter 1000
| 32> end
| 33>
| 34> * xyz 0 1
| 35>   C                      6.640702             1.118679             1.001048
| 36>   O                      7.266035             -0.143782            1.123999
| 37>   H                      7.994274             -0.063849            0.473445
| 38>   H                      5.730766             1.058960             0.469523
| 39>   H                      6.333335             1.429739             2.003741
| 40>   H                      7.222567             1.942048             0.618447
| 41>   C                    : 10.817425            -2.253238            2.686767
| 42>   O                    : 11.196271            -2.498821            4.010807
| 43>   H                    : 10.538250            -2.908171            4.521803
| 44>   H                    : 9.929062             -1.706413            2.595542
| 45>   H                    : 11.545464            -1.735707            2.147440
| 46>   H                    : 10.553367            -3.127474            2.134818
| 47> *
| 48>
| 49> #Run DFT-D3 single point of the particle with dimer basis set
| 50> $new_job
| 51> %base "10-46_DFT_B"
| 52> ! wB97X-D3 def2-TZVP TIGHTSCF CHELPG PMODEL
| 53>
| 54> %scf
| 55> MaxIter 1000
| 56> end
| 57>
| 58> * xyz 0 1
| 59>   C                    : 6.640702             1.118679             1.001048
| 60>   O                    : 7.266035             -0.143782            1.123999
| 61>   H                    : 7.994274             -0.063849            0.473445
| 62>   H                    : 5.730766             1.058960             0.469523
| 63>   H                    : 6.333335             1.429739             2.003741
| 64>   H                    : 7.222567             1.942048             0.618447
| 65>   C                      10.817425            -2.253238            2.686767
| 66>   O                      11.196271            -2.498821            4.010807
| 67>   H                      10.538250            -2.908171            4.521803
| 68>   H                      9.929062             -1.706413            2.595542
| 69>   H                      11.545464            -1.735707            2.147440
| 70>   H                      10.553367            -3.127474            2.134818
| 71> *
| 72>
| 73>                          ****END OF INPUT****
 Total Charge           Charge          ....    0
 Multiplicity           Mult            ....    1
 Number of Electrons    NEL             ....   36
Dispersion correction           -0.000865378
FINAL SINGLE POINT ENERGY      -231.461785356077
Dispersion correction           -0.000239590
FINAL SINGLE POINT ENERGY      -115.731432930121

CARTESIAN COORDINATES (ANGSTROEM)
---------------------------------
  C      6.640702    1.118679    1.001048
  O      7.266035   -0.143782    1.123999
  H      7.994274   -0.063849    0.473445
  H      5.730766    1.058960    0.469523
  H      6.333335    1.429739    2.003741
  H      7.222567    1.942048    0.618447
  C     10.817425   -2.253238    2.686767
  O     11.196271   -2.498821    4.010807
  H     10.538250   -2.908171    4.521803
  H      9.929062   -1.706413    2.595542
  H     11.545464   -1.735707    2.147440
  H     10.553367   -3.127474    2.134818

 Multiplicity           Mult            ....    1
 Number of Electrons    NEL             ....   18
 Basis Dimension        Dim             ....  172

ORBITAL ENERGIES
----------------

  NO   OCC          E(Eh)            E(eV)
   0   2.0000     -19.225404      -523.1498
   1   2.0000     -10.298431      -280.2346
   2   2.0000      -1.142378       -31.0857
   3   2.0000      -0.812704       -22.1148
   4   2.0000      -0.627097       -17.0642
   5   2.0000      -0.540230       -14.7004
   6   2.0000      -0.536110       -14.5883
   7   2.0000      -0.434076       -11.8118
   8   2.0000      -0.371653       -10.1132
   9   0.0000       0.083327         2.2674
  10   0.0000       0.121188         3.2977
  11   0.0000       0.141823         3.8592
  12   0.0000       0.180220         4.9040
  13   0.0000       0.191266         5.2046

MULLIKEN ATOMIC CHARGES
-----------------------
   0 C :   -0.000038
   1 O :   -0.000013
   2 H :   -0.000243
   3 H :   -0.000003
   4 H :    0.000003
   5 H :   -0.000000
   6 C :   -0.147667
   7 O :   -0.482164
   8 H :    0.311774
   9 H :    0.100627
  10 H :    0.122202
  11 H :    0.095523
Sum of atomic charges:    0.0000000

LOEWDIN ATOMIC CHARGES
----------------------
   0 C :   -0.000055
   1 O :   -0.000460
   2 H :   -0.000514
   3 H :   -0.000002
   4 H :   -0.000002
   5 H :   -0.000001
   6 C :   -0.378150
   7 O :   -0.047143
   8 H :    0.148021
   9 H :    0.086978
  10 H :    0.100288
  11 H :    0.091039

  Mayer bond orders larger than 0.1
B(  6-C ,  7-O ) :   0.9957 B(  6-C ,  9-H ) :   0.9809 B(  6-C , 10-H ) :   0.9748
B(  6-C , 11-H ) :   0.9789 B(  7-O ,  8-H ) :   0.9021

Dispersion correction           -0.000237181
FINAL SINGLE POINT ENERGY      -115.729487449107

DIPOLE MOMENT
-------------
                                X             Y             Z
Electronic contribution:      0.67605      -0.24005       1.72328
Nuclear contribution   :     -1.28374       0.07736      -1.93630
                        -----------------------------------------
Total Dipole Moment    :     -0.60769      -0.16269      -0.21301
                        -----------------------------------------
Magnitude (a.u.)       :      0.66418
Magnitude (Debye)      :      1.68821

Rotational constants in cm-1:     4.857339     0.841553     0.808272
Rotational constants in MHz : 145619.356688 25229.123617 24231.393508

                             ****ORCA TERMINATED NORMALLY****
TOTAL RUN TIME: 0 days 0 hours 1 minutes 5 seconds 831 msec
