                         Program Version 4.1.2  - RELEASE  -
|  1> #Run DFT-D3 single point of the dimer
|  2> ! wB97X-D3 def2-TZVP TIGHTSCF CHELPG PMODEL PAL8
|  3>
|  4> %base "18-80_DFT_AB"
|  5>
|  6> %scf
|  7> MaxIter 1000
|  8> end
|  9>
| 10> * xyz 0 1
| 11>   C                      1.101496             -2.053978            7.307832
| 12>   O                      1.384987             -2.297058            5.969188
| 13>   H                      1.151471             -3.185395            5.702275
| 14>   H                      1.317104             -1.048099            7.698919
| 15>   H                      0.046442             -2.231063            7.406682
| 16>   H                      1.610017             -2.809292            7.907819
| 17>   C                      -0.641337            -1.278704            2.735910
| 18>   O                      -0.235503            -1.995124            1.558616
| 19>   H                      -0.216393            -1.287634            0.896333
| 20>   H                      -1.715056            -1.169015            2.646839
| 21>   H                      -0.486806            -1.780883            3.720906
| 22>   H                      -0.073791            -0.337690            2.824643
| 23> *
| 24>
| 25> #Run DFT-D3 single point of the molecule with dimer basis set
| 26> $new_job
| 27> %base "18-80_DFT_A"
| 28> ! wB97X-D3 def2-TZVP TIGHTSCF CHELPG PMODEL
| 29>
| 30> %scf
| 31> MaxIter 1000
| 32> end
| 33>
| 34> * xyz 0 1
| 35>   C                      1.101496             -2.053978            7.307832
| 36>   O                      1.384987             -2.297058            5.969188
| 37>   H                      1.151471             -3.185395            5.702275
| 38>   H                      1.317104             -1.048099            7.698919
| 39>   H                      0.046442             -2.231063            7.406682
| 40>   H                      1.610017             -2.809292            7.907819
| 41>   C                    : -0.641337            -1.278704            2.735910
| 42>   O                    : -0.235503            -1.995124            1.558616
| 43>   H                    : -0.216393            -1.287634            0.896333
| 44>   H                    : -1.715056            -1.169015            2.646839
| 45>   H                    : -0.486806            -1.780883            3.720906
| 46>   H                    : -0.073791            -0.337690            2.824643
| 47> *
| 48>
| 49> #Run DFT-D3 single point of the particle with dimer basis set
| 50> $new_job
| 51> %base "18-80_DFT_B"
| 52> ! wB97X-D3 def2-TZVP TIGHTSCF CHELPG PMODEL
| 53>
| 54> %scf
| 55> MaxIter 1000
| 56> end
| 57>
| 58> * xyz 0 1
| 59>   C                    : 1.101496             -2.053978            7.307832
| 60>   O                    : 1.384987             -2.297058            5.969188
| 61>   H                    : 1.151471             -3.185395            5.702275
| 62>   H                    : 1.317104             -1.048099            7.698919
| 63>   H                    : 0.046442             -2.231063            7.406682
| 64>   H                    : 1.610017             -2.809292            7.907819
| 65>   C                      -0.641337            -1.278704            2.735910
| 66>   O                      -0.235503            -1.995124            1.558616
| 67>   H                      -0.216393            -1.287634            0.896333
| 68>   H                      -1.715056            -1.169015            2.646839
| 69>   H                      -0.486806            -1.780883            3.720906
| 70>   H                      -0.073791            -0.337690            2.824643
| 71> *
| 72>
| 73>                          ****END OF INPUT****
 Total Charge           Charge          ....    0
 Multiplicity           Mult            ....    1
 Number of Electrons    NEL             ....   36
Dispersion correction           -0.001106500
FINAL SINGLE POINT ENERGY      -231.462422755996
Dispersion correction           -0.000215820
FINAL SINGLE POINT ENERGY      -115.730880586662

CARTESIAN COORDINATES (ANGSTROEM)
---------------------------------
  C      1.101496   -2.053978    7.307832
  O      1.384987   -2.297058    5.969188
  H      1.151471   -3.185395    5.702275
  H      1.317104   -1.048099    7.698919
  H      0.046442   -2.231063    7.406682
  H      1.610017   -2.809292    7.907819
  C     -0.641337   -1.278704    2.735910
  O     -0.235503   -1.995124    1.558616
  H     -0.216393   -1.287634    0.896333
  H     -1.715056   -1.169015    2.646839
  H     -0.486806   -1.780883    3.720906
  H     -0.073791   -0.337690    2.824643

 Multiplicity           Mult            ....    1
 Number of Electrons    NEL             ....   18
 Basis Dimension        Dim             ....  172

ORBITAL ENERGIES
----------------

  NO   OCC          E(Eh)            E(eV)
   0   2.0000     -19.231293      -523.3101
   1   2.0000     -10.317145      -280.7438
   2   2.0000      -1.131539       -30.7907
   3   2.0000      -0.791225       -21.5303
   4   2.0000      -0.599345       -16.3090
   5   2.0000      -0.549022       -14.9397
   6   2.0000      -0.525912       -14.3108
   7   2.0000      -0.431804       -11.7500
   8   2.0000      -0.374224       -10.1832
   9   0.0000       0.083979         2.2852
  10   0.0000       0.114552         3.1171
  11   0.0000       0.148366         4.0372
  12   0.0000       0.167658         4.5622
  13   0.0000       0.192053         5.2260

MULLIKEN ATOMIC CHARGES
-----------------------
   0 C :   -0.000174
   1 O :    0.000146
   2 H :    0.000075
   3 H :   -0.000013
   4 H :   -0.000033
   5 H :   -0.000001
   6 C :   -0.181196
   7 O :   -0.471566
   8 H :    0.316391
   9 H :    0.111724
  10 H :    0.119332
  11 H :    0.105314
Sum of atomic charges:   -0.0000000

LOEWDIN ATOMIC CHARGES
----------------------
   0 C :   -0.000361
   1 O :   -0.001260
   2 H :   -0.000907
   3 H :   -0.000006
   4 H :   -0.000065
   5 H :   -0.000005
   6 C :   -0.378875
   7 O :   -0.100704
   8 H :    0.176510
   9 H :    0.095579
  10 H :    0.111407
  11 H :    0.098687

  Mayer bond orders larger than 0.1
B(  6-C ,  7-O ) :   0.9938 B(  6-C ,  9-H ) :   0.9826 B(  6-C , 10-H ) :   0.9697
B(  6-C , 11-H ) :   0.9800 B(  7-O ,  8-H ) :   0.9000

Dispersion correction           -0.000232225
FINAL SINGLE POINT ENERGY      -115.730141829542

DIPOLE MOMENT
-------------
                                X             Y             Z
Electronic contribution:      0.55150      -1.05925      -1.41785
Nuclear contribution   :     -0.69735       1.77939       1.49653
                        -----------------------------------------
Total Dipole Moment    :     -0.14586       0.72013       0.07868
                        -----------------------------------------
Magnitude (a.u.)       :      0.73896
Magnitude (Debye)      :      1.87828

Rotational constants in cm-1:     4.230044     0.810884     0.786519
Rotational constants in MHz : 126813.539351 24309.683936 23579.235472

                             ****ORCA TERMINATED NORMALLY****
TOTAL RUN TIME: 0 days 0 hours 1 minutes 4 seconds 247 msec
