                         Program Version 4.1.2  - RELEASE  -
|  1> #Run DFT-D3 single point of the dimer
|  2> ! wB97X-D3 def2-TZVP TIGHTSCF CHELPG PMODEL PAL8
|  3>
|  4> %base "5-174_DFT_AB"
|  5>
|  6> %scf
|  7> MaxIter 1000
|  8> end
|  9>
| 10> * xyz 0 1
| 11>   C                      7.263758             -1.690919            6.811487
| 12>   O                      8.265075             -0.704323            6.669180
| 13>   H                      7.838670             -0.036129            6.110007
| 14>   H                      6.411662             -1.323292            7.479096
| 15>   H                      6.727346             -1.871947            5.897698
| 16>   H                      7.798512             -2.602327            7.203925
| 17>   C                      7.692646             1.984932             8.784602
| 18>   O                      7.388956             2.937434             7.816232
| 19>   H                      8.044106             2.714441             7.110953
| 20>   H                      7.751524             0.948081             8.424445
| 21>   H                      8.716776             2.104898             9.125015
| 22>   H                      6.996635             1.949557             9.636306
| 23> *
| 24>
| 25> #Run DFT-D3 single point of the molecule with dimer basis set
| 26> $new_job
| 27> %base "5-174_DFT_A"
| 28> ! wB97X-D3 def2-TZVP TIGHTSCF CHELPG PMODEL
| 29>
| 30> %scf
| 31> MaxIter 1000
| 32> end
| 33>
| 34> * xyz 0 1
| 35>   C                      7.263758             -1.690919            6.811487
| 36>   O                      8.265075             -0.704323            6.669180
| 37>   H                      7.838670             -0.036129            6.110007
| 38>   H                      6.411662             -1.323292            7.479096
| 39>   H                      6.727346             -1.871947            5.897698
| 40>   H                      7.798512             -2.602327            7.203925
| 41>   C                    : 7.692646             1.984932             8.784602
| 42>   O                    : 7.388956             2.937434             7.816232
| 43>   H                    : 8.044106             2.714441             7.110953
| 44>   H                    : 7.751524             0.948081             8.424445
| 45>   H                    : 8.716776             2.104898             9.125015
| 46>   H                    : 6.996635             1.949557             9.636306
| 47> *
| 48>
| 49> #Run DFT-D3 single point of the particle with dimer basis set
| 50> $new_job
| 51> %base "5-174_DFT_B"
| 52> ! wB97X-D3 def2-TZVP TIGHTSCF CHELPG PMODEL
| 53>
| 54> %scf
| 55> MaxIter 1000
| 56> end
| 57>
| 58> * xyz 0 1
| 59>   C                    : 7.263758             -1.690919            6.811487
| 60>   O                    : 8.265075             -0.704323            6.669180
| 61>   H                    : 7.838670             -0.036129            6.110007
| 62>   H                    : 6.411662             -1.323292            7.479096
| 63>   H                    : 6.727346             -1.871947            5.897698
| 64>   H                    : 7.798512             -2.602327            7.203925
| 65>   C                      7.692646             1.984932             8.784602
| 66>   O                      7.388956             2.937434             7.816232
| 67>   H                      8.044106             2.714441             7.110953
| 68>   H                      7.751524             0.948081             8.424445
| 69>   H                      8.716776             2.104898             9.125015
| 70>   H                      6.996635             1.949557             9.636306
| 71> *
| 72>
| 73>                          ****END OF INPUT****
 Total Charge           Charge          ....    0
 Multiplicity           Mult            ....    1
 Number of Electrons    NEL             ....   36
Dispersion correction           -0.001763305
FINAL SINGLE POINT ENERGY      -231.463963566785
Dispersion correction           -0.000229662
FINAL SINGLE POINT ENERGY      -115.731587926633

CARTESIAN COORDINATES (ANGSTROEM)
---------------------------------
  C      7.263758   -1.690919    6.811487
  O      8.265075   -0.704323    6.669180
  H      7.838670   -0.036129    6.110007
  H      6.411662   -1.323292    7.479096
  H      6.727346   -1.871947    5.897698
  H      7.798512   -2.602327    7.203925
  C      7.692646    1.984932    8.784602
  O      7.388956    2.937434    7.816232
  H      8.044106    2.714441    7.110953
  H      7.751524    0.948081    8.424445
  H      8.716776    2.104898    9.125015
  H      6.996635    1.949557    9.636306

 Multiplicity           Mult            ....    1
 Number of Electrons    NEL             ....   18
 Basis Dimension        Dim             ....  172

ORBITAL ENERGIES
----------------

  NO   OCC          E(Eh)            E(eV)
   0   2.0000     -19.237933      -523.4908
   1   2.0000     -10.311769      -280.5975
   2   2.0000      -1.144665       -31.1479
   3   2.0000      -0.791176       -21.5290
   4   2.0000      -0.617336       -16.7986
   5   2.0000      -0.540862       -14.7176
   6   2.0000      -0.526962       -14.3394
   7   2.0000      -0.443112       -12.0577
   8   2.0000      -0.369534       -10.0555
   9   0.0000       0.077964         2.1215
  10   0.0000       0.116291         3.1644
  11   0.0000       0.153334         4.1724
  12   0.0000       0.179327         4.8797
  13   0.0000       0.186897         5.0857

MULLIKEN ATOMIC CHARGES
-----------------------
   0 C :   -0.000617
   1 O :    0.002087
   2 H :   -0.000339
   3 H :    0.000451
   4 H :   -0.000101
   5 H :   -0.000078
   6 C :   -0.170747
   7 O :   -0.454781
   8 H :    0.318722
   9 H :    0.083290
  10 H :    0.100668
  11 H :    0.121447
Sum of atomic charges:    0.0000000

LOEWDIN ATOMIC CHARGES
----------------------
   0 C :   -0.004234
   1 O :   -0.006560
   2 H :   -0.002309
   3 H :   -0.001296
   4 H :   -0.000075
   5 H :   -0.000069
   6 C :   -0.414008
   7 O :   -0.065942
   8 H :    0.193854
   9 H :    0.098454
  10 H :    0.092493
  11 H :    0.109693

  Mayer bond orders larger than 0.1
B(  6-C ,  7-O ) :   1.0020 B(  6-C ,  9-H ) :   0.9740 B(  6-C , 10-H ) :   0.9839
B(  6-C , 11-H ) :   0.9732 B(  7-O ,  8-H ) :   0.8959

Dispersion correction           -0.000220349
FINAL SINGLE POINT ENERGY      -115.730633038484

DIPOLE MOMENT
-------------
                                X             Y             Z
Electronic contribution:     -0.65941       1.46647      -1.19492
Nuclear contribution   :      1.17208      -1.96030       1.11744
                        -----------------------------------------
Total Dipole Moment    :      0.51267      -0.49384      -0.07747
                        -----------------------------------------
Magnitude (a.u.)       :      0.71604
Magnitude (Debye)      :      1.82002

Rotational constants in cm-1:     4.308459     0.856133     0.810013
Rotational constants in MHz : 129164.357879 25666.230973 24283.569468

                             ****ORCA TERMINATED NORMALLY****
TOTAL RUN TIME: 0 days 0 hours 0 minutes 53 seconds 271 msec
