                         Program Version 4.1.2  - RELEASE  -
|  1> #Run DFT-D3 single point of the dimer
|  2> ! wB97X-D3 def2-TZVP TIGHTSCF CHELPG PMODEL PAL8
|  3>
|  4> %base "2-31_DFT_AB"
|  5>
|  6> %scf
|  7> MaxIter 1000
|  8> end
|  9>
| 10> * xyz 0 1
| 11>   C                      5.916145             7.599752             -3.115480
| 12>   O                      6.303187             6.405109             -3.797141
| 13>   H                      6.313995             5.742929             -3.113214
| 14>   H                      6.562852             7.866482             -2.246742
| 15>   H                      5.963492             8.428625             -3.817606
| 16>   H                      4.933177             7.588969             -2.693862
| 17>   C                      10.946178            6.499316             -4.724918
| 18>   O                      10.963376            6.166861             -3.349450
| 19>   H                      10.187720            6.514946             -2.857216
| 20>   H                      10.592208            7.486626             -4.935436
| 21>   H                      12.020252            6.606879             -5.038450
| 22>   H                      10.293789            5.832369             -5.364102
| 23> *
| 24>
| 25> #Run DFT-D3 single point of the molecule with dimer basis set
| 26> $new_job
| 27> %base "2-31_DFT_A"
| 28> ! wB97X-D3 def2-TZVP TIGHTSCF CHELPG PMODEL
| 29>
| 30> %scf
| 31> MaxIter 1000
| 32> end
| 33>
| 34> * xyz 0 1
| 35>   C                      5.916145             7.599752             -3.115480
| 36>   O                      6.303187             6.405109             -3.797141
| 37>   H                      6.313995             5.742929             -3.113214
| 38>   H                      6.562852             7.866482             -2.246742
| 39>   H                      5.963492             8.428625             -3.817606
| 40>   H                      4.933177             7.588969             -2.693862
| 41>   C                    : 10.946178            6.499316             -4.724918
| 42>   O                    : 10.963376            6.166861             -3.349450
| 43>   H                    : 10.187720            6.514946             -2.857216
| 44>   H                    : 10.592208            7.486626             -4.935436
| 45>   H                    : 12.020252            6.606879             -5.038450
| 46>   H                    : 10.293789            5.832369             -5.364102
| 47> *
| 48>
| 49> #Run DFT-D3 single point of the particle with dimer basis set
| 50> $new_job
| 51> %base "2-31_DFT_B"
| 52> ! wB97X-D3 def2-TZVP TIGHTSCF CHELPG PMODEL
| 53>
| 54> %scf
| 55> MaxIter 1000
| 56> end
| 57>
| 58> * xyz 0 1
| 59>   C                    : 5.916145             7.599752             -3.115480
| 60>   O                    : 6.303187             6.405109             -3.797141
| 61>   H                    : 6.313995             5.742929             -3.113214
| 62>   H                    : 6.562852             7.866482             -2.246742
| 63>   H                    : 5.963492             8.428625             -3.817606
| 64>   H                    : 4.933177             7.588969             -2.693862
| 65>   C                      10.946178            6.499316             -4.724918
| 66>   O                      10.963376            6.166861             -3.349450
| 67>   H                      10.187720            6.514946             -2.857216
| 68>   H                      10.592208            7.486626             -4.935436
| 69>   H                      12.020252            6.606879             -5.038450
| 70>   H                      10.293789            5.832369             -5.364102
| 71> *
| 72>
| 73>                          ****END OF INPUT****
 Total Charge           Charge          ....    0
 Multiplicity           Mult            ....    1
 Number of Electrons    NEL             ....   36
Dispersion correction           -0.000904325
FINAL SINGLE POINT ENERGY      -231.466343792783
Dispersion correction           -0.000247121
FINAL SINGLE POINT ENERGY      -115.735183572816

CARTESIAN COORDINATES (ANGSTROEM)
---------------------------------
  C      5.916145    7.599752   -3.115480
  O      6.303187    6.405109   -3.797141
  H      6.313995    5.742929   -3.113214
  H      6.562852    7.866482   -2.246742
  H      5.963492    8.428625   -3.817606
  H      4.933177    7.588969   -2.693862
  C     10.946178    6.499316   -4.724918
  O     10.963376    6.166861   -3.349450
  H     10.187720    6.514946   -2.857216
  H     10.592208    7.486626   -4.935436
  H     12.020252    6.606879   -5.038450
  H     10.293789    5.832369   -5.364102

 Multiplicity           Mult            ....    1
 Number of Electrons    NEL             ....   18
 Basis Dimension        Dim             ....  172

ORBITAL ENERGIES
----------------

  NO   OCC          E(Eh)            E(eV)
   0   2.0000     -19.231866      -523.3257
   1   2.0000     -10.317843      -280.7628
   2   2.0000      -1.128930       -30.7197
   3   2.0000      -0.793938       -21.6042
   4   2.0000      -0.613761       -16.7013
   5   2.0000      -0.542262       -14.7557
   6   2.0000      -0.513451       -13.9717
   7   2.0000      -0.424796       -11.5593
   8   2.0000      -0.374885       -10.2011
   9   0.0000       0.071682         1.9506
  10   0.0000       0.118230         3.2172
  11   0.0000       0.146924         3.9980
  12   0.0000       0.161643         4.3985
  13   0.0000       0.190514         5.1842

MULLIKEN ATOMIC CHARGES
-----------------------
   0 C :   -0.000024
   1 O :   -0.000007
   2 H :   -0.000075
   3 H :   -0.000063
   4 H :   -0.000005
   5 H :   -0.000006
   6 C :   -0.151179
   7 O :   -0.485866
   8 H :    0.318939
   9 H :    0.102897
  10 H :    0.118361
  11 H :    0.097028
Sum of atomic charges:   -0.0000000

LOEWDIN ATOMIC CHARGES
----------------------
   0 C :   -0.000100
   1 O :   -0.000041
   2 H :   -0.000068
   3 H :   -0.000053
   4 H :   -0.000004
   5 H :   -0.000003
   6 C :   -0.394699
   7 O :   -0.089562
   8 H :    0.179343
   9 H :    0.087840
  10 H :    0.116831
  11 H :    0.100517

  Mayer bond orders larger than 0.1
B(  6-C ,  7-O ) :   1.0025 B(  6-C ,  9-H ) :   0.9764 B(  6-C , 10-H ) :   0.9738
B(  6-C , 11-H ) :   0.9679 B(  7-O ,  8-H ) :   0.8914

Dispersion correction           -0.000273177
FINAL SINGLE POINT ENERGY      -115.730222230631

DIPOLE MOMENT
-------------
                                X             Y             Z
Electronic contribution:      0.08974      -0.56476       1.76834
Nuclear contribution   :     -0.59827       0.98405      -1.98971
                        -----------------------------------------
Total Dipole Moment    :     -0.50853       0.41929      -0.22137
                        -----------------------------------------
Magnitude (a.u.)       :      0.69528
Magnitude (Debye)      :      1.76725

Rotational constants in cm-1:     4.273789     0.813871     0.789600
Rotational constants in MHz : 128124.980642 24399.225638 23671.598215

                             ****ORCA TERMINATED NORMALLY****
TOTAL RUN TIME: 0 days 0 hours 5 minutes 27 seconds 915 msec
