                         Program Version 4.1.2  - RELEASE  -
|  1> #Run DFT-D3 single point of the dimer
|  2> ! wB97X-D3 def2-TZVP TIGHTSCF  CHELPG PAL8
|  3>
|  4> %base "190_charges"
|  5>
|  6> %scf
|  7> MaxIter 1000
|  8> end
|  9> %output
| 10>   Print[ P_Mayer ] 1
| 11>   Print[ P_NatPop ] 1
| 12>   Print[ P_Hirshfeld ] 1
| 13>   Print[ P_Mulliken ] 1
| 14>   Print [ P_Loewdin ] 1
| 15> end
| 16>
| 17> * xyz 0 1
| 18>   C                      0.993669             -5.120101            4.973170
| 19>   O                      0.699055             -4.452116            3.728005
| 20>   H                      0.792849             -3.525101            3.766989
| 21>   H                      2.041942             -5.144663            5.356298
| 22>   H                      0.450708             -4.807946            5.855779
| 23>   H                      0.886586             -6.254100            4.764746
| 24> *
| 25>
| 26>                          ****END OF INPUT****

CARTESIAN COORDINATES (ANGSTROEM)
---------------------------------
  C      0.993669   -5.120101    4.973170
  O      0.699055   -4.452116    3.728005
  H      0.792849   -3.525101    3.766989
  H      2.041942   -5.144663    5.356298
  H      0.450708   -4.807946    5.855779
  H      0.886586   -6.254100    4.764746

 Total Charge           Charge          ....    0
 Multiplicity           Mult            ....    1
 Number of Electrons    NEL             ....   18
 Basis Dimension        Dim             ....   86

ORBITAL ENERGIES
----------------

  NO   OCC          E(Eh)            E(eV)
   0   2.0000     -19.233083      -523.3588
   1   2.0000     -10.324606      -280.9468
   2   2.0000      -1.132734       -30.8233
   3   2.0000      -0.799604       -21.7583
   4   2.0000      -0.619659       -16.8618
   5   2.0000      -0.534936       -14.5564
   6   2.0000      -0.507678       -13.8146
   7   2.0000      -0.432489       -11.7686
   8   2.0000      -0.377404       -10.2697
   9   0.0000       0.120288         3.2732
  10   0.0000       0.144249         3.9252
  11   0.0000       0.189396         5.1537
  12   0.0000       0.207392         5.6434
  13   0.0000       0.229927         6.2566

MULLIKEN ATOMIC CHARGES
-----------------------
   0 C :   -0.177475
   1 O :   -0.473081
   2 H :    0.310275
   3 H :    0.102756
   4 H :    0.113442
   5 H :    0.124084
Sum of atomic charges:   -0.0000000

LOEWDIN ATOMIC CHARGES
----------------------
   0 C :   -0.382525
   1 O :   -0.077044
   2 H :    0.146088
   3 H :    0.097251
   4 H :    0.091769
   5 H :    0.124462

  Mayer bond orders larger than 0.1
B(  0-C ,  1-O ) :   1.0037 B(  0-C ,  3-H ) :   0.9643 B(  0-C ,  4-H ) :   0.9664
B(  0-C ,  5-H ) :   0.9765 B(  1-O ,  2-H ) :   0.9028

Dispersion correction           -0.000310941
FINAL SINGLE POINT ENERGY      -115.725800346237

DIPOLE MOMENT
-------------
                                X             Y             Z
Electronic contribution:     -0.51473       0.97431      -1.66037
Nuclear contribution   :      0.71167      -0.63312       2.20192
                        -----------------------------------------
Total Dipole Moment    :      0.19693       0.34119       0.54155
                        -----------------------------------------
Magnitude (a.u.)       :      0.66968
Magnitude (Debye)      :      1.70219

Rotational constants in cm-1:     4.464409     0.782659     0.749846
Rotational constants in MHz : 133839.617752 23463.539402 22479.810464

                             ****ORCA TERMINATED NORMALLY****
TOTAL RUN TIME: 0 days 0 hours 0 minutes 41 seconds 280 msec
