                         Program Version 4.1.2  - RELEASE  -
|  1> #Run DFT-D3 single point of the dimer
|  2> ! wB97X-D3 def2-TZVP TIGHTSCF CHELPG PMODEL PAL8
|  3>
|  4> %base "6-94_DFT_AB"
|  5>
|  6> %scf
|  7> MaxIter 1000
|  8> end
|  9>
| 10> * xyz 0 1
| 11>   C                      6.664978             3.067073             1.226311
| 12>   O                      8.059023             2.989451             1.564592
| 13>   H                      8.160365             2.945944             2.478638
| 14>   H                      6.091341             2.145018             1.217380
| 15>   H                      6.072127             3.731938             1.852075
| 16>   H                      6.459341             3.559162             0.310594
| 17>   C                      4.364700             5.661872             1.276716
| 18>   O                      4.283674             5.137588             0.021780
| 19>   H                      4.220110             5.916101             -0.602200
| 20>   H                      3.959004             4.933454             1.932303
| 21>   H                      5.423931             5.760916             1.506227
| 22>   H                      3.971303             6.688295             1.301329
| 23> *
| 24>
| 25> #Run DFT-D3 single point of the molecule with dimer basis set
| 26> $new_job
| 27> %base "6-94_DFT_A"
| 28> ! wB97X-D3 def2-TZVP TIGHTSCF CHELPG PMODEL
| 29>
| 30> %scf
| 31> MaxIter 1000
| 32> end
| 33>
| 34> * xyz 0 1
| 35>   C                      6.664978             3.067073             1.226311
| 36>   O                      8.059023             2.989451             1.564592
| 37>   H                      8.160365             2.945944             2.478638
| 38>   H                      6.091341             2.145018             1.217380
| 39>   H                      6.072127             3.731938             1.852075
| 40>   H                      6.459341             3.559162             0.310594
| 41>   C                    : 4.364700             5.661872             1.276716
| 42>   O                    : 4.283674             5.137588             0.021780
| 43>   H                    : 4.220110             5.916101             -0.602200
| 44>   H                    : 3.959004             4.933454             1.932303
| 45>   H                    : 5.423931             5.760916             1.506227
| 46>   H                    : 3.971303             6.688295             1.301329
| 47> *
| 48>
| 49> #Run DFT-D3 single point of the particle with dimer basis set
| 50> $new_job
| 51> %base "6-94_DFT_B"
| 52> ! wB97X-D3 def2-TZVP TIGHTSCF CHELPG PMODEL
| 53>
| 54> %scf
| 55> MaxIter 1000
| 56> end
| 57>
| 58> * xyz 0 1
| 59>   C                    : 6.664978             3.067073             1.226311
| 60>   O                    : 8.059023             2.989451             1.564592
| 61>   H                    : 8.160365             2.945944             2.478638
| 62>   H                    : 6.091341             2.145018             1.217380
| 63>   H                    : 6.072127             3.731938             1.852075
| 64>   H                    : 6.459341             3.559162             0.310594
| 65>   C                      4.364700             5.661872             1.276716
| 66>   O                      4.283674             5.137588             0.021780
| 67>   H                      4.220110             5.916101             -0.602200
| 68>   H                      3.959004             4.933454             1.932303
| 69>   H                      5.423931             5.760916             1.506227
| 70>   H                      3.971303             6.688295             1.301329
| 71> *
| 72>
| 73>                          ****END OF INPUT****
 Total Charge           Charge          ....    0
 Multiplicity           Mult            ....    1
 Number of Electrons    NEL             ....   36
Dispersion correction           -0.001980975
FINAL SINGLE POINT ENERGY      -231.456742813202
Dispersion correction           -0.000278732
FINAL SINGLE POINT ENERGY      -115.727916129921

CARTESIAN COORDINATES (ANGSTROEM)
---------------------------------
  C      6.664978    3.067073    1.226311
  O      8.059023    2.989451    1.564592
  H      8.160365    2.945944    2.478638
  H      6.091341    2.145018    1.217380
  H      6.072127    3.731938    1.852075
  H      6.459341    3.559162    0.310594
  C      4.364700    5.661872    1.276716
  O      4.283674    5.137588    0.021780
  H      4.220110    5.916101   -0.602200
  H      3.959004    4.933454    1.932303
  H      5.423931    5.760916    1.506227
  H      3.971303    6.688295    1.301329

 Multiplicity           Mult            ....    1
 Number of Electrons    NEL             ....   18
 Basis Dimension        Dim             ....  172

ORBITAL ENERGIES
----------------

  NO   OCC          E(Eh)            E(eV)
   0   2.0000     -19.229295      -523.2557
   1   2.0000     -10.303455      -280.3713
   2   2.0000      -1.146996       -31.2113
   3   2.0000      -0.788799       -21.4643
   4   2.0000      -0.619560       -16.8591
   5   2.0000      -0.543196       -14.7811
   6   2.0000      -0.536058       -14.5869
   7   2.0000      -0.437046       -11.8926
   8   2.0000      -0.361924        -9.8485
   9   0.0000       0.091962         2.5024
  10   0.0000       0.114676         3.1205
  11   0.0000       0.164350         4.4722
  12   0.0000       0.175673         4.7803
  13   0.0000       0.191632         5.2146

MULLIKEN ATOMIC CHARGES
-----------------------
   0 C :    0.007418
   1 O :   -0.000177
   2 H :   -0.000077
   3 H :   -0.000512
   4 H :   -0.002210
   5 H :   -0.008112
   6 C :   -0.159443
   7 O :   -0.462254
   8 H :    0.315580
   9 H :    0.111088
  10 H :    0.093260
  11 H :    0.105438
Sum of atomic charges:    0.0000000

LOEWDIN ATOMIC CHARGES
----------------------
   0 C :   -0.009046
   1 O :   -0.000035
   2 H :   -0.000015
   3 H :   -0.000132
   4 H :   -0.008596
   5 H :   -0.006972
   6 C :   -0.417543
   7 O :   -0.049629
   8 H :    0.196043
   9 H :    0.101983
  10 H :    0.096784
  11 H :    0.097158

  Mayer bond orders larger than 0.1
B(  6-C ,  7-O ) :   1.0049 B(  6-C ,  9-H ) :   0.9775 B(  6-C , 10-H ) :   0.9823
B(  6-C , 11-H ) :   0.9779 B(  7-O ,  8-H ) :   0.8940

Dispersion correction           -0.000201235
FINAL SINGLE POINT ENERGY      -115.727628872658

DIPOLE MOMENT
-------------
                                X             Y             Z
Electronic contribution:     -0.26462      -0.83414      -1.48939
Nuclear contribution   :      0.24593       1.51233       1.54776
                        -----------------------------------------
Total Dipole Moment    :     -0.01869       0.67820       0.05837
                        -----------------------------------------
Magnitude (a.u.)       :      0.68096
Magnitude (Debye)      :      1.73086

Rotational constants in cm-1:     4.161110     0.909010     0.855878
Rotational constants in MHz : 124746.943424 27251.434820 25658.570312

                             ****ORCA TERMINATED NORMALLY****
TOTAL RUN TIME: 0 days 0 hours 0 minutes 47 seconds 368 msec
