                         Program Version 4.1.2  - RELEASE  -
|  1> #Run DFT-D3 single point of the dimer
|  2> ! wB97X-D3 def2-TZVP TIGHTSCF CHELPG PMODEL PAL8
|  3>
|  4> %base "13-141_DFT_AB"
|  5>
|  6> %scf
|  7> MaxIter 1000
|  8> end
|  9>
| 10> * xyz 0 1
| 11>   C                      -2.561850            8.333009             5.793317
| 12>   O                      -3.098374            7.684261             4.668960
| 13>   H                      -2.260752            7.229011             4.369283
| 14>   H                      -1.504505            8.534680             5.701477
| 15>   H                      -3.050513            9.317847             5.958538
| 16>   H                      -2.651462            7.682936             6.685952
| 17>   C                      -6.157454            10.005180            5.000635
| 18>   O                      -7.012671            9.226287             4.226335
| 19>   H                      -6.640607            8.534934             3.691516
| 20>   H                      -5.172978            10.178861            4.437589
| 21>   H                      -6.692269            10.953788            5.047580
| 22>   H                      -5.897147            9.620161             5.962352
| 23> *
| 24>
| 25> #Run DFT-D3 single point of the molecule with dimer basis set
| 26> $new_job
| 27> %base "13-141_DFT_A"
| 28> ! wB97X-D3 def2-TZVP TIGHTSCF CHELPG PMODEL
| 29>
| 30> %scf
| 31> MaxIter 1000
| 32> end
| 33>
| 34> * xyz 0 1
| 35>   C                      -2.561850            8.333009             5.793317
| 36>   O                      -3.098374            7.684261             4.668960
| 37>   H                      -2.260752            7.229011             4.369283
| 38>   H                      -1.504505            8.534680             5.701477
| 39>   H                      -3.050513            9.317847             5.958538
| 40>   H                      -2.651462            7.682936             6.685952
| 41>   C                    : -6.157454            10.005180            5.000635
| 42>   O                    : -7.012671            9.226287             4.226335
| 43>   H                    : -6.640607            8.534934             3.691516
| 44>   H                    : -5.172978            10.178861            4.437589
| 45>   H                    : -6.692269            10.953788            5.047580
| 46>   H                    : -5.897147            9.620161             5.962352
| 47> *
| 48>
| 49> #Run DFT-D3 single point of the particle with dimer basis set
| 50> $new_job
| 51> %base "13-141_DFT_B"
| 52> ! wB97X-D3 def2-TZVP TIGHTSCF CHELPG PMODEL
| 53>
| 54> %scf
| 55> MaxIter 1000
| 56> end
| 57>
| 58> * xyz 0 1
| 59>   C                    : -2.561850            8.333009             5.793317
| 60>   O                    : -3.098374            7.684261             4.668960
| 61>   H                    : -2.260752            7.229011             4.369283
| 62>   H                    : -1.504505            8.534680             5.701477
| 63>   H                    : -3.050513            9.317847             5.958538
| 64>   H                    : -2.651462            7.682936             6.685952
| 65>   C                      -6.157454            10.005180            5.000635
| 66>   O                      -7.012671            9.226287             4.226335
| 67>   H                      -6.640607            8.534934             3.691516
| 68>   H                      -5.172978            10.178861            4.437589
| 69>   H                      -6.692269            10.953788            5.047580
| 70>   H                      -5.897147            9.620161             5.962352
| 71> *
| 72>
| 73>                          ****END OF INPUT****
 Total Charge           Charge          ....    0
 Multiplicity           Mult            ....    1
 Number of Electrons    NEL             ....   36
Dispersion correction           -0.001561580
FINAL SINGLE POINT ENERGY      -231.463072854998
Dispersion correction           -0.000220814
FINAL SINGLE POINT ENERGY      -115.730123609056

CARTESIAN COORDINATES (ANGSTROEM)
---------------------------------
  C     -2.561850    8.333009    5.793317
  O     -3.098374    7.684261    4.668960
  H     -2.260752    7.229011    4.369283
  H     -1.504505    8.534680    5.701477
  H     -3.050513    9.317847    5.958538
  H     -2.651462    7.682936    6.685952
  C     -6.157454   10.005180    5.000635
  O     -7.012671    9.226287    4.226335
  H     -6.640607    8.534934    3.691516
  H     -5.172978   10.178861    4.437589
  H     -6.692269   10.953788    5.047580
  H     -5.897147    9.620161    5.962352

 Multiplicity           Mult            ....    1
 Number of Electrons    NEL             ....   18
 Basis Dimension        Dim             ....  172

ORBITAL ENERGIES
----------------

  NO   OCC          E(Eh)            E(eV)
   0   2.0000     -19.223833      -523.1071
   1   2.0000     -10.313865      -280.6545
   2   2.0000      -1.137703       -30.9585
   3   2.0000      -0.798860       -21.7381
   4   2.0000      -0.617769       -16.8103
   5   2.0000      -0.543786       -14.7972
   6   2.0000      -0.527182       -14.3454
   7   2.0000      -0.417524       -11.3614
   8   2.0000      -0.372069       -10.1245
   9   0.0000       0.079781         2.1710
  10   0.0000       0.118529         3.2253
  11   0.0000       0.150298         4.0898
  12   0.0000       0.174628         4.7519
  13   0.0000       0.181670         4.9435

MULLIKEN ATOMIC CHARGES
-----------------------
   0 C :    0.001692
   1 O :    0.000201
   2 H :    0.000029
   3 H :   -0.000176
   4 H :   -0.003853
   5 H :   -0.000140
   6 C :   -0.132494
   7 O :   -0.489223
   8 H :    0.317676
   9 H :    0.088174
  10 H :    0.119427
  11 H :    0.098686
Sum of atomic charges:    0.0000000

LOEWDIN ATOMIC CHARGES
----------------------
   0 C :   -0.002426
   1 O :   -0.000403
   2 H :   -0.000014
   3 H :   -0.000011
   4 H :   -0.002622
   5 H :   -0.000038
   6 C :   -0.393841
   7 O :   -0.060254
   8 H :    0.158670
   9 H :    0.103157
  10 H :    0.110683
  11 H :    0.087099

  Mayer bond orders larger than 0.1
B(  6-C ,  7-O ) :   1.0029 B(  6-C ,  9-H ) :   0.9849 B(  6-C , 10-H ) :   0.9739
B(  6-C , 11-H ) :   0.9658 B(  7-O ,  8-H ) :   0.8938

Dispersion correction           -0.000257054
FINAL SINGLE POINT ENERGY      -115.730636499792

DIPOLE MOMENT
-------------
                                X             Y             Z
Electronic contribution:     -1.20076      -1.00658      -0.79268
Nuclear contribution   :      1.78206       0.85292       0.73736
                        -----------------------------------------
Total Dipole Moment    :      0.58130      -0.15367      -0.05532
                        -----------------------------------------
Magnitude (a.u.)       :      0.60381
Magnitude (Debye)      :      1.53476

Rotational constants in cm-1:     4.348561     0.844545     0.816424
Rotational constants in MHz : 130366.582883 25318.834828 24475.779262

                             ****ORCA TERMINATED NORMALLY****
TOTAL RUN TIME: 0 days 0 hours 1 minutes 3 seconds 227 msec
