                         Program Version 4.1.2  - RELEASE  -
|  1> #Run DFT-D3 single point of the dimer
|  2> ! wB97X-D3 def2-TZVP TIGHTSCF CHELPG PMODEL PAL8
|  3>
|  4> %base "22-181_DFT_AB"
|  5>
|  6> %scf
|  7> MaxIter 1000
|  8> end
|  9>
| 10> * xyz 0 1
| 11>   C                      -2.362305            -8.537415            2.161125
| 12>   O                      -2.145167            -8.888710            0.809816
| 13>   H                      -2.903705            -8.484715            0.337570
| 14>   H                      -3.260686            -9.007105            2.541181
| 15>   H                      -1.600004            -8.988229            2.783314
| 16>   H                      -2.548693            -7.468420            2.287072
| 17>   C                      -6.297636            -7.574919            2.797073
| 18>   O                      -5.436312            -7.788280            1.702356
| 19>   H                      -5.218978            -6.945528            1.226079
| 20>   H                      -6.017857            -8.267462            3.586633
| 21>   H                      -6.148262            -6.533509            3.099142
| 22>   H                      -7.355991            -7.711219            2.511567
| 23> *
| 24>
| 25> #Run DFT-D3 single point of the molecule with dimer basis set
| 26> $new_job
| 27> %base "22-181_DFT_A"
| 28> ! wB97X-D3 def2-TZVP TIGHTSCF CHELPG PMODEL
| 29>
| 30> %scf
| 31> MaxIter 1000
| 32> end
| 33>
| 34> * xyz 0 1
| 35>   C                      -2.362305            -8.537415            2.161125
| 36>   O                      -2.145167            -8.888710            0.809816
| 37>   H                      -2.903705            -8.484715            0.337570
| 38>   H                      -3.260686            -9.007105            2.541181
| 39>   H                      -1.600004            -8.988229            2.783314
| 40>   H                      -2.548693            -7.468420            2.287072
| 41>   C                    : -6.297636            -7.574919            2.797073
| 42>   O                    : -5.436312            -7.788280            1.702356
| 43>   H                    : -5.218978            -6.945528            1.226079
| 44>   H                    : -6.017857            -8.267462            3.586633
| 45>   H                    : -6.148262            -6.533509            3.099142
| 46>   H                    : -7.355991            -7.711219            2.511567
| 47> *
| 48>
| 49> #Run DFT-D3 single point of the particle with dimer basis set
| 50> $new_job
| 51> %base "22-181_DFT_B"
| 52> ! wB97X-D3 def2-TZVP TIGHTSCF CHELPG PMODEL
| 53>
| 54> %scf
| 55> MaxIter 1000
| 56> end
| 57>
| 58> * xyz 0 1
| 59>   C                    : -2.362305            -8.537415            2.161125
| 60>   O                    : -2.145167            -8.888710            0.809816
| 61>   H                    : -2.903705            -8.484715            0.337570
| 62>   H                    : -3.260686            -9.007105            2.541181
| 63>   H                    : -1.600004            -8.988229            2.783314
| 64>   H                    : -2.548693            -7.468420            2.287072
| 65>   C                      -6.297636            -7.574919            2.797073
| 66>   O                      -5.436312            -7.788280            1.702356
| 67>   H                      -5.218978            -6.945528            1.226079
| 68>   H                      -6.017857            -8.267462            3.586633
| 69>   H                      -6.148262            -6.533509            3.099142
| 70>   H                      -7.355991            -7.711219            2.511567
| 71> *
| 72>
| 73>                          ****END OF INPUT****
 Total Charge           Charge          ....    0
 Multiplicity           Mult            ....    1
 Number of Electrons    NEL             ....   36
Dispersion correction           -0.002006846
FINAL SINGLE POINT ENERGY      -231.468447107626
Dispersion correction           -0.000221991
FINAL SINGLE POINT ENERGY      -115.732873336708

CARTESIAN COORDINATES (ANGSTROEM)
---------------------------------
  C     -2.362305   -8.537415    2.161125
  O     -2.145167   -8.888710    0.809816
  H     -2.903705   -8.484715    0.337570
  H     -3.260686   -9.007105    2.541181
  H     -1.600004   -8.988229    2.783314
  H     -2.548693   -7.468420    2.287072
  C     -6.297636   -7.574919    2.797073
  O     -5.436312   -7.788280    1.702356
  H     -5.218978   -6.945528    1.226079
  H     -6.017857   -8.267462    3.586633
  H     -6.148262   -6.533509    3.099142
  H     -7.355991   -7.711219    2.511567

 Multiplicity           Mult            ....    1
 Number of Electrons    NEL             ....   18
 Basis Dimension        Dim             ....  172

ORBITAL ENERGIES
----------------

  NO   OCC          E(Eh)            E(eV)
   0   2.0000     -19.228412      -523.2317
   1   2.0000     -10.313506      -280.6448
   2   2.0000      -1.128777       -30.7156
   3   2.0000      -0.791918       -21.5492
   4   2.0000      -0.607522       -16.5315
   5   2.0000      -0.541111       -14.7244
   6   2.0000      -0.533183       -14.5087
   7   2.0000      -0.425121       -11.5681
   8   2.0000      -0.370153       -10.0724
   9   0.0000       0.091141         2.4801
  10   0.0000       0.127628         3.4729
  11   0.0000       0.148967         4.0536
  12   0.0000       0.186419         5.0727
  13   0.0000       0.191873         5.2211

MULLIKEN ATOMIC CHARGES
-----------------------
   0 C :    0.013615
   1 O :   -0.000204
   2 H :   -0.003297
   3 H :   -0.008416
   4 H :   -0.000658
   5 H :   -0.010450
   6 C :   -0.151225
   7 O :   -0.484463
   8 H :    0.320631
   9 H :    0.122295
  10 H :    0.099072
  11 H :    0.103099
Sum of atomic charges:    0.0000000

LOEWDIN ATOMIC CHARGES
----------------------
   0 C :   -0.014608
   1 O :   -0.000278
   2 H :   -0.002922
   3 H :   -0.007183
   4 H :   -0.000165
   5 H :   -0.004261
   6 C :   -0.383912
   7 O :   -0.073472
   8 H :    0.186819
   9 H :    0.105407
  10 H :    0.096802
  11 H :    0.097772

  Mayer bond orders larger than 0.1
B(  6-C ,  7-O ) :   0.9929 B(  6-C ,  9-H ) :   0.9750 B(  6-C , 10-H ) :   0.9905
B(  6-C , 11-H ) :   0.9683 B(  7-O ,  8-H ) :   0.8895

Dispersion correction           -0.000238845
FINAL SINGLE POINT ENERGY      -115.733776853193

DIPOLE MOMENT
-------------
                                X             Y             Z
Electronic contribution:      1.03009      -0.45064      -1.27306
Nuclear contribution   :     -1.23915       1.08833       1.41622
                        -----------------------------------------
Total Dipole Moment    :     -0.20906       0.63769       0.14315
                        -----------------------------------------
Magnitude (a.u.)       :      0.68618
Magnitude (Debye)      :      1.74413

Rotational constants in cm-1:     4.193742     0.839004     0.807334
Rotational constants in MHz : 125725.230592 25152.705121 24203.261699

                             ****ORCA TERMINATED NORMALLY****
TOTAL RUN TIME: 0 days 0 hours 1 minutes 2 seconds 292 msec
