                         Program Version 4.1.2  - RELEASE  -
|  1> #Run DFT-D3 single point of the dimer
|  2> ! wB97X-D3 def2-TZVP TIGHTSCF CHELPG PMODEL PAL8
|  3>
|  4> %base "3-78_DFT_AB"
|  5>
|  6> %scf
|  7> MaxIter 1000
|  8> end
|  9>
| 10> * xyz 0 1
| 11>   C                      -4.944868            -6.379908            -6.736573
| 12>   O                      -6.142319            -5.643729            -6.610150
| 13>   H                      -6.328640            -5.442620            -7.501184
| 14>   H                      -4.130525            -5.985907            -6.044649
| 15>   H                      -5.172011            -7.357734            -6.328079
| 16>   H                      -4.478197            -6.584611            -7.685240
| 17>   C                      -7.949055            -9.171305            -6.566835
| 18>   O                      -8.982075            -8.273082            -6.852369
| 19>   H                      -8.439640            -7.513511            -7.058999
| 20>   H                      -7.037029            -9.018700            -7.166905
| 21>   H                      -7.643131            -8.978097            -5.558532
| 22>   H                      -8.170766            -10.203733           -6.710026
| 23> *
| 24>
| 25> #Run DFT-D3 single point of the molecule with dimer basis set
| 26> $new_job
| 27> %base "3-78_DFT_A"
| 28> ! wB97X-D3 def2-TZVP TIGHTSCF CHELPG PMODEL
| 29>
| 30> %scf
| 31> MaxIter 1000
| 32> end
| 33>
| 34> * xyz 0 1
| 35>   C                      -4.944868            -6.379908            -6.736573
| 36>   O                      -6.142319            -5.643729            -6.610150
| 37>   H                      -6.328640            -5.442620            -7.501184
| 38>   H                      -4.130525            -5.985907            -6.044649
| 39>   H                      -5.172011            -7.357734            -6.328079
| 40>   H                      -4.478197            -6.584611            -7.685240
| 41>   C                    : -7.949055            -9.171305            -6.566835
| 42>   O                    : -8.982075            -8.273082            -6.852369
| 43>   H                    : -8.439640            -7.513511            -7.058999
| 44>   H                    : -7.037029            -9.018700            -7.166905
| 45>   H                    : -7.643131            -8.978097            -5.558532
| 46>   H                    : -8.170766            -10.203733           -6.710026
| 47> *
| 48>
| 49> #Run DFT-D3 single point of the particle with dimer basis set
| 50> $new_job
| 51> %base "3-78_DFT_B"
| 52> ! wB97X-D3 def2-TZVP TIGHTSCF CHELPG PMODEL
| 53>
| 54> %scf
| 55> MaxIter 1000
| 56> end
| 57>
| 58> * xyz 0 1
| 59>   C                    : -4.944868            -6.379908            -6.736573
| 60>   O                    : -6.142319            -5.643729            -6.610150
| 61>   H                    : -6.328640            -5.442620            -7.501184
| 62>   H                    : -4.130525            -5.985907            -6.044649
| 63>   H                    : -5.172011            -7.357734            -6.328079
| 64>   H                    : -4.478197            -6.584611            -7.685240
| 65>   C                      -7.949055            -9.171305            -6.566835
| 66>   O                      -8.982075            -8.273082            -6.852369
| 67>   H                      -8.439640            -7.513511            -7.058999
| 68>   H                      -7.037029            -9.018700            -7.166905
| 69>   H                      -7.643131            -8.978097            -5.558532
| 70>   H                      -8.170766            -10.203733           -6.710026
| 71> *
| 72>
| 73>                          ****END OF INPUT****
 Total Charge           Charge          ....    0
 Multiplicity           Mult            ....    1
 Number of Electrons    NEL             ....   36
Dispersion correction           -0.001820403
FINAL SINGLE POINT ENERGY      -231.458693909790
Dispersion correction           -0.000252383
FINAL SINGLE POINT ENERGY      -115.727092414776

CARTESIAN COORDINATES (ANGSTROEM)
---------------------------------
  C     -4.944868   -6.379908   -6.736573
  O     -6.142319   -5.643729   -6.610150
  H     -6.328640   -5.442620   -7.501184
  H     -4.130525   -5.985907   -6.044649
  H     -5.172011   -7.357734   -6.328079
  H     -4.478197   -6.584611   -7.685240
  C     -7.949055   -9.171305   -6.566835
  O     -8.982075   -8.273082   -6.852369
  H     -8.439640   -7.513511   -7.058999
  H     -7.037029   -9.018700   -7.166905
  H     -7.643131   -8.978097   -5.558532
  H     -8.170766  -10.203733   -6.710026

 Multiplicity           Mult            ....    1
 Number of Electrons    NEL             ....   18
 Basis Dimension        Dim             ....  172

ORBITAL ENERGIES
----------------

  NO   OCC          E(Eh)            E(eV)
   0   2.0000     -19.232875      -523.3531
   1   2.0000     -10.307536      -280.4823
   2   2.0000      -1.150044       -31.2943
   3   2.0000      -0.795275       -21.6405
   4   2.0000      -0.614762       -16.7285
   5   2.0000      -0.552736       -15.0407
   6   2.0000      -0.527409       -14.3515
   7   2.0000      -0.442793       -12.0490
   8   2.0000      -0.372998       -10.1498
   9   0.0000       0.068502         1.8640
  10   0.0000       0.126173         3.4333
  11   0.0000       0.147116         4.0032
  12   0.0000       0.173898         4.7320
  13   0.0000       0.186319         5.0700

MULLIKEN ATOMIC CHARGES
-----------------------
   0 C :    0.001338
   1 O :   -0.000221
   2 H :   -0.000134
   3 H :   -0.000061
   4 H :   -0.002206
   5 H :   -0.000229
   6 C :   -0.182780
   7 O :   -0.454664
   8 H :    0.315973
   9 H :    0.100225
  10 H :    0.101598
  11 H :    0.121161
Sum of atomic charges:   -0.0000000

LOEWDIN ATOMIC CHARGES
----------------------
   0 C :   -0.002196
   1 O :   -0.000914
   2 H :   -0.000489
   3 H :   -0.000010
   4 H :   -0.002517
   5 H :   -0.000093
   6 C :   -0.399838
   7 O :   -0.059747
   8 H :    0.175070
   9 H :    0.098157
  10 H :    0.092754
  11 H :    0.099824

  Mayer bond orders larger than 0.1
B(  6-C ,  7-O ) :   1.0005 B(  6-C ,  9-H ) :   0.9810 B(  6-C , 10-H ) :   0.9843
B(  6-C , 11-H ) :   0.9706 B(  7-O ,  8-H ) :   0.9061

Dispersion correction           -0.000204045
FINAL SINGLE POINT ENERGY      -115.728931150062

DIPOLE MOMENT
-------------
                                X             Y             Z
Electronic contribution:     -1.61665       1.00345      -0.37893
Nuclear contribution   :      2.34246      -0.88039       0.34675
                        -----------------------------------------
Total Dipole Moment    :      0.72581       0.12307      -0.03218
                        -----------------------------------------
Magnitude (a.u.)       :      0.73688
Magnitude (Debye)      :      1.87299

Rotational constants in cm-1:     4.390559     0.856865     0.823629
Rotational constants in MHz : 131625.655113 25688.176299 24691.790326

                             ****ORCA TERMINATED NORMALLY****
TOTAL RUN TIME: 0 days 0 hours 6 minutes 25 seconds 272 msec
