                         Program Version 4.1.2  - RELEASE  -
|  1> #Run DFT-D3 single point of the dimer
|  2> ! wB97X-D3 def2-TZVP TIGHTSCF CHELPG PMODEL PAL8
|  3>
|  4> %base "21-131_DFT_AB"
|  5>
|  6> %scf
|  7> MaxIter 1000
|  8> end
|  9>
| 10> * xyz 0 1
| 11>   C                      -8.175844            -6.461726            -9.529841
| 12>   O                      -6.888502            -6.628987            -8.963924
| 13>   H                      -6.925999            -7.424524            -8.347092
| 14>   H                      -8.688891            -7.439171            -9.596102
| 15>   H                      -8.830355            -5.949237            -8.826932
| 16>   H                      -8.134614            -6.010198            -10.551838
| 17>   C                      -2.195462            -8.218944            -9.283942
| 18>   O                      -2.877718            -7.014818            -9.520438
| 19>   H                      -3.322852            -6.704210            -8.760176
| 20>   H                      -1.544764            -8.254360            -8.421028
| 21>   H                      -2.894660            -9.007557            -9.234336
| 22>   H                      -1.604312            -8.382997            -10.215186
| 23> *
| 24>
| 25> #Run DFT-D3 single point of the molecule with dimer basis set
| 26> $new_job
| 27> %base "21-131_DFT_A"
| 28> ! wB97X-D3 def2-TZVP TIGHTSCF CHELPG PMODEL
| 29>
| 30> %scf
| 31> MaxIter 1000
| 32> end
| 33>
| 34> * xyz 0 1
| 35>   C                      -8.175844            -6.461726            -9.529841
| 36>   O                      -6.888502            -6.628987            -8.963924
| 37>   H                      -6.925999            -7.424524            -8.347092
| 38>   H                      -8.688891            -7.439171            -9.596102
| 39>   H                      -8.830355            -5.949237            -8.826932
| 40>   H                      -8.134614            -6.010198            -10.551838
| 41>   C                    : -2.195462            -8.218944            -9.283942
| 42>   O                    : -2.877718            -7.014818            -9.520438
| 43>   H                    : -3.322852            -6.704210            -8.760176
| 44>   H                    : -1.544764            -8.254360            -8.421028
| 45>   H                    : -2.894660            -9.007557            -9.234336
| 46>   H                    : -1.604312            -8.382997            -10.215186
| 47> *
| 48>
| 49> #Run DFT-D3 single point of the particle with dimer basis set
| 50> $new_job
| 51> %base "21-131_DFT_B"
| 52> ! wB97X-D3 def2-TZVP TIGHTSCF CHELPG PMODEL
| 53>
| 54> %scf
| 55> MaxIter 1000
| 56> end
| 57>
| 58> * xyz 0 1
| 59>   C                    : -8.175844            -6.461726            -9.529841
| 60>   O                    : -6.888502            -6.628987            -8.963924
| 61>   H                    : -6.925999            -7.424524            -8.347092
| 62>   H                    : -8.688891            -7.439171            -9.596102
| 63>   H                    : -8.830355            -5.949237            -8.826932
| 64>   H                    : -8.134614            -6.010198            -10.551838
| 65>   C                      -2.195462            -8.218944            -9.283942
| 66>   O                      -2.877718            -7.014818            -9.520438
| 67>   H                      -3.322852            -6.704210            -8.760176
| 68>   H                      -1.544764            -8.254360            -8.421028
| 69>   H                      -2.894660            -9.007557            -9.234336
| 70>   H                      -1.604312            -8.382997            -10.215186
| 71> *
| 72>
| 73>                          ****END OF INPUT****
 Total Charge           Charge          ....    0
 Multiplicity           Mult            ....    1
 Number of Electrons    NEL             ....   36
Dispersion correction           -0.000820649
FINAL SINGLE POINT ENERGY      -231.464555432088
Dispersion correction           -0.000240568
FINAL SINGLE POINT ENERGY      -115.730522834787

CARTESIAN COORDINATES (ANGSTROEM)
---------------------------------
  C     -8.175844   -6.461726   -9.529841
  O     -6.888502   -6.628987   -8.963924
  H     -6.925999   -7.424524   -8.347092
  H     -8.688891   -7.439171   -9.596102
  H     -8.830355   -5.949237   -8.826932
  H     -8.134614   -6.010198  -10.551838
  C     -2.195462   -8.218944   -9.283942
  O     -2.877718   -7.014818   -9.520438
  H     -3.322852   -6.704210   -8.760176
  H     -1.544764   -8.254360   -8.421028
  H     -2.894660   -9.007557   -9.234336
  H     -1.604312   -8.382997  -10.215186

 Multiplicity           Mult            ....    1
 Number of Electrons    NEL             ....   18
 Basis Dimension        Dim             ....  172

ORBITAL ENERGIES
----------------

  NO   OCC          E(Eh)            E(eV)
   0   2.0000     -19.224927      -523.1369
   1   2.0000     -10.308544      -280.5097
   2   2.0000      -1.140885       -31.0451
   3   2.0000      -0.801651       -21.8140
   4   2.0000      -0.618467       -16.8293
   5   2.0000      -0.547450       -14.8969
   6   2.0000      -0.522894       -14.2287
   7   2.0000      -0.430332       -11.7099
   8   2.0000      -0.374239       -10.1836
   9   0.0000       0.084226         2.2919
  10   0.0000       0.118008         3.2112
  11   0.0000       0.155385         4.2282
  12   0.0000       0.174959         4.7609
  13   0.0000       0.195415         5.3175

MULLIKEN ATOMIC CHARGES
-----------------------
   0 C :   -0.000207
   1 O :   -0.000319
   2 H :   -0.000221
   3 H :    0.000011
   4 H :    0.000004
   5 H :    0.000010
   6 C :   -0.144035
   7 O :   -0.481292
   8 H :    0.309194
   9 H :    0.101398
  10 H :    0.099085
  11 H :    0.116372
Sum of atomic charges:   -0.0000000

LOEWDIN ATOMIC CHARGES
----------------------
   0 C :   -0.000056
   1 O :   -0.000449
   2 H :   -0.000213
   3 H :   -0.000000
   4 H :   -0.000002
   5 H :   -0.000002
   6 C :   -0.383319
   7 O :   -0.058673
   8 H :    0.148452
   9 H :    0.091257
  10 H :    0.085836
  11 H :    0.117169

  Mayer bond orders larger than 0.1
B(  6-C ,  7-O ) :   0.9964 B(  6-C ,  9-H ) :   0.9715 B(  6-C , 10-H ) :   0.9814
B(  6-C , 11-H ) :   0.9762 B(  7-O ,  8-H ) :   0.9032

Dispersion correction           -0.000239866
FINAL SINGLE POINT ENERGY      -115.733883275056

DIPOLE MOMENT
-------------
                                X             Y             Z
Electronic contribution:     -0.81379       1.52757      -0.26100
Nuclear contribution   :      0.79406      -1.81567       0.85535
                        -----------------------------------------
Total Dipole Moment    :     -0.01973      -0.28810       0.59435
                        -----------------------------------------
Magnitude (a.u.)       :      0.66079
Magnitude (Debye)      :      1.67960

Rotational constants in cm-1:     4.436632     0.843845     0.812009
Rotational constants in MHz : 133006.882922 25297.833858 24343.406004

                             ****ORCA TERMINATED NORMALLY****
TOTAL RUN TIME: 0 days 0 hours 0 minutes 59 seconds 990 msec
