                         Program Version 4.1.2  - RELEASE  -
|  1> #Run DFT-D3 single point of the dimer
|  2> ! wB97X-D3 def2-TZVP TIGHTSCF CHELPG PMODEL PAL8
|  3>
|  4> %base "5-191_DFT_AB"
|  5>
|  6> %scf
|  7> MaxIter 1000
|  8> end
|  9>
| 10> * xyz 0 1
| 11>   C                      -10.092956           10.785129            -0.812776
| 12>   O                      -9.747987            11.990436            -0.260571
| 13>   H                      -9.124384            12.533492            -0.798575
| 14>   H                      -9.295911            10.196411            -1.201216
| 15>   H                      -10.573315           10.140013            -0.203629
| 16>   H                      -10.799384           10.915563            -1.634392
| 17>   C                      -9.751612            8.124554             -4.420073
| 18>   O                      -9.252576            8.512000             -3.165080
| 19>   H                      -9.312236            9.507985             -3.050012
| 20>   H                      -10.732117           8.536251             -4.507062
| 21>   H                      -9.215616            8.469697             -5.285672
| 22>   H                      -10.070054           7.076413             -4.452727
| 23> *
| 24>
| 25> #Run DFT-D3 single point of the molecule with dimer basis set
| 26> $new_job
| 27> %base "5-191_DFT_A"
| 28> ! wB97X-D3 def2-TZVP TIGHTSCF CHELPG PMODEL
| 29>
| 30> %scf
| 31> MaxIter 1000
| 32> end
| 33>
| 34> * xyz 0 1
| 35>   C                      -10.092956           10.785129            -0.812776
| 36>   O                      -9.747987            11.990436            -0.260571
| 37>   H                      -9.124384            12.533492            -0.798575
| 38>   H                      -9.295911            10.196411            -1.201216
| 39>   H                      -10.573315           10.140013            -0.203629
| 40>   H                      -10.799384           10.915563            -1.634392
| 41>   C                    : -9.751612            8.124554             -4.420073
| 42>   O                    : -9.252576            8.512000             -3.165080
| 43>   H                    : -9.312236            9.507985             -3.050012
| 44>   H                    : -10.732117           8.536251             -4.507062
| 45>   H                    : -9.215616            8.469697             -5.285672
| 46>   H                    : -10.070054           7.076413             -4.452727
| 47> *
| 48>
| 49> #Run DFT-D3 single point of the particle with dimer basis set
| 50> $new_job
| 51> %base "5-191_DFT_B"
| 52> ! wB97X-D3 def2-TZVP TIGHTSCF CHELPG PMODEL
| 53>
| 54> %scf
| 55> MaxIter 1000
| 56> end
| 57>
| 58> * xyz 0 1
| 59>   C                    : -10.092956           10.785129            -0.812776
| 60>   O                    : -9.747987            11.990436            -0.260571
| 61>   H                    : -9.124384            12.533492            -0.798575
| 62>   H                    : -9.295911            10.196411            -1.201216
| 63>   H                    : -10.573315           10.140013            -0.203629
| 64>   H                    : -10.799384           10.915563            -1.634392
| 65>   C                      -9.751612            8.124554             -4.420073
| 66>   O                      -9.252576            8.512000             -3.165080
| 67>   H                      -9.312236            9.507985             -3.050012
| 68>   H                      -10.732117           8.536251             -4.507062
| 69>   H                      -9.215616            8.469697             -5.285672
| 70>   H                      -10.070054           7.076413             -4.452727
| 71> *
| 72>
| 73>                          ****END OF INPUT****
 Total Charge           Charge          ....    0
 Multiplicity           Mult            ....    1
 Number of Electrons    NEL             ....   36
Dispersion correction           -0.001533484
FINAL SINGLE POINT ENERGY      -231.452696316074
Dispersion correction           -0.000242807
FINAL SINGLE POINT ENERGY      -115.725588070168

CARTESIAN COORDINATES (ANGSTROEM)
---------------------------------
  C    -10.092956   10.785129   -0.812776
  O     -9.747987   11.990436   -0.260571
  H     -9.124384   12.533492   -0.798575
  H     -9.295911   10.196411   -1.201216
  H    -10.573315   10.140013   -0.203629
  H    -10.799384   10.915563   -1.634392
  C     -9.751612    8.124554   -4.420073
  O     -9.252576    8.512000   -3.165080
  H     -9.312236    9.507985   -3.050012
  H    -10.732117    8.536251   -4.507062
  H     -9.215616    8.469697   -5.285672
  H    -10.070054    7.076413   -4.452727

 Multiplicity           Mult            ....    1
 Number of Electrons    NEL             ....   18
 Basis Dimension        Dim             ....  172

ORBITAL ENERGIES
----------------

  NO   OCC          E(Eh)            E(eV)
   0   2.0000     -19.234075      -523.3858
   1   2.0000     -10.306687      -280.4592
   2   2.0000      -1.129787       -30.7431
   3   2.0000      -0.798130       -21.7182
   4   2.0000      -0.610530       -16.6134
   5   2.0000      -0.551759       -15.0141
   6   2.0000      -0.522760       -14.2250
   7   2.0000      -0.424083       -11.5399
   8   2.0000      -0.372478       -10.1356
   9   0.0000       0.074903         2.0382
  10   0.0000       0.130369         3.5475
  11   0.0000       0.152592         4.1522
  12   0.0000       0.168617         4.5883
  13   0.0000       0.191502         5.2110

MULLIKEN ATOMIC CHARGES
-----------------------
   0 C :   -0.007629
   1 O :   -0.000043
   2 H :   -0.000008
   3 H :    0.000692
   4 H :    0.000784
   5 H :   -0.001691
   6 C :   -0.171105
   7 O :   -0.474492
   8 H :    0.322760
   9 H :    0.102214
  10 H :    0.106857
  11 H :    0.121660
Sum of atomic charges:   -0.0000000

LOEWDIN ATOMIC CHARGES
----------------------
   0 C :   -0.010831
   1 O :   -0.000066
   2 H :   -0.000013
   3 H :   -0.007108
   4 H :   -0.000333
   5 H :   -0.001997
   6 C :   -0.397918
   7 O :   -0.080493
   8 H :    0.201426
   9 H :    0.092557
  10 H :    0.091444
  11 H :    0.113333

  Mayer bond orders larger than 0.1
B(  6-C ,  7-O ) :   1.0023 B(  6-C ,  9-H ) :   0.9863 B(  6-C , 10-H ) :   0.9720
B(  6-C , 11-H ) :   0.9687 B(  7-O ,  8-H ) :   0.8865

Dispersion correction           -0.000242793
FINAL SINGLE POINT ENERGY      -115.726841987377

DIPOLE MOMENT
-------------
                                X             Y             Z
Electronic contribution:      0.90487       0.29626       1.58988
Nuclear contribution   :     -1.19661       0.17205      -2.02686
                        -----------------------------------------
Total Dipole Moment    :     -0.29173       0.46831      -0.43699
                        -----------------------------------------
Magnitude (a.u.)       :      0.70383
Magnitude (Debye)      :      1.78900

Rotational constants in cm-1:     4.444985     0.831470     0.800906
Rotational constants in MHz : 133257.307330 24926.836927 24010.543917

                             ****ORCA TERMINATED NORMALLY****
TOTAL RUN TIME: 0 days 0 hours 0 minutes 57 seconds 548 msec
