                         Program Version 4.1.2  - RELEASE  -
|  1> #Run DFT-D3 single point of the dimer
|  2> ! wB97X-D3 def2-TZVP TIGHTSCF CHELPG PMODEL PAL8
|  3>
|  4> %base "13-198_DFT_AB"
|  5>
|  6> %scf
|  7> MaxIter 1000
|  8> end
|  9>
| 10> * xyz 0 1
| 11>   C                      0.950964             2.647921             8.080619
| 12>   O                      1.658286             1.577271             8.664702
| 13>   H                      2.550322             1.498365             8.275117
| 14>   H                      1.205504             2.611569             7.018494
| 15>   H                      -0.185575            2.570360             8.138774
| 16>   H                      1.287986             3.598304             8.443395
| 17>   C                      3.154747             -1.537589            10.018817
| 18>   O                      2.002198             -1.825710            9.280145
| 19>   H                      2.051071             -1.419218            8.388134
| 20>   H                      4.096436             -1.740838            9.439830
| 21>   H                      3.159639             -0.485921            10.290562
| 22>   H                      3.143210             -2.149505            10.924553
| 23> *
| 24>
| 25> #Run DFT-D3 single point of the molecule with dimer basis set
| 26> $new_job
| 27> %base "13-198_DFT_A"
| 28> ! wB97X-D3 def2-TZVP TIGHTSCF CHELPG PMODEL
| 29>
| 30> %scf
| 31> MaxIter 1000
| 32> end
| 33>
| 34> * xyz 0 1
| 35>   C                      0.950964             2.647921             8.080619
| 36>   O                      1.658286             1.577271             8.664702
| 37>   H                      2.550322             1.498365             8.275117
| 38>   H                      1.205504             2.611569             7.018494
| 39>   H                      -0.185575            2.570360             8.138774
| 40>   H                      1.287986             3.598304             8.443395
| 41>   C                    : 3.154747             -1.537589            10.018817
| 42>   O                    : 2.002198             -1.825710            9.280145
| 43>   H                    : 2.051071             -1.419218            8.388134
| 44>   H                    : 4.096436             -1.740838            9.439830
| 45>   H                    : 3.159639             -0.485921            10.290562
| 46>   H                    : 3.143210             -2.149505            10.924553
| 47> *
| 48>
| 49> #Run DFT-D3 single point of the particle with dimer basis set
| 50> $new_job
| 51> %base "13-198_DFT_B"
| 52> ! wB97X-D3 def2-TZVP TIGHTSCF CHELPG PMODEL
| 53>
| 54> %scf
| 55> MaxIter 1000
| 56> end
| 57>
| 58> * xyz 0 1
| 59>   C                    : 0.950964             2.647921             8.080619
| 60>   O                    : 1.658286             1.577271             8.664702
| 61>   H                    : 2.550322             1.498365             8.275117
| 62>   H                    : 1.205504             2.611569             7.018494
| 63>   H                    : -0.185575            2.570360             8.138774
| 64>   H                    : 1.287986             3.598304             8.443395
| 65>   C                      3.154747             -1.537589            10.018817
| 66>   O                      2.002198             -1.825710            9.280145
| 67>   H                      2.051071             -1.419218            8.388134
| 68>   H                      4.096436             -1.740838            9.439830
| 69>   H                      3.159639             -0.485921            10.290562
| 70>   H                      3.143210             -2.149505            10.924553
| 71> *
| 72>
| 73>                          ****END OF INPUT****
 Total Charge           Charge          ....    0
 Multiplicity           Mult            ....    1
 Number of Electrons    NEL             ....   36
Dispersion correction           -0.001489124
FINAL SINGLE POINT ENERGY      -231.467461241886
Dispersion correction           -0.000237743
FINAL SINGLE POINT ENERGY      -115.731032076923

CARTESIAN COORDINATES (ANGSTROEM)
---------------------------------
  C      0.950964    2.647921    8.080619
  O      1.658286    1.577271    8.664702
  H      2.550322    1.498365    8.275117
  H      1.205504    2.611569    7.018494
  H     -0.185575    2.570360    8.138774
  H      1.287986    3.598304    8.443395
  C      3.154747   -1.537589   10.018817
  O      2.002198   -1.825710    9.280145
  H      2.051071   -1.419218    8.388134
  H      4.096436   -1.740838    9.439830
  H      3.159639   -0.485921   10.290562
  H      3.143210   -2.149505   10.924553

 Multiplicity           Mult            ....    1
 Number of Electrons    NEL             ....   18
 Basis Dimension        Dim             ....  172

ORBITAL ENERGIES
----------------

  NO   OCC          E(Eh)            E(eV)
   0   2.0000     -19.230328      -523.2838
   1   2.0000     -10.313640      -280.6484
   2   2.0000      -1.135222       -30.8910
   3   2.0000      -0.791706       -21.5434
   4   2.0000      -0.610752       -16.6194
   5   2.0000      -0.541161       -14.7257
   6   2.0000      -0.529248       -14.4016
   7   2.0000      -0.430112       -11.7039
   8   2.0000      -0.370443       -10.0803
   9   0.0000       0.076916         2.0930
  10   0.0000       0.118100         3.2137
  11   0.0000       0.153202         4.1688
  12   0.0000       0.174173         4.7395
  13   0.0000       0.189421         5.1544

MULLIKEN ATOMIC CHARGES
-----------------------
   0 C :   -0.000530
   1 O :   -0.001014
   2 H :   -0.000173
   3 H :    0.000032
   4 H :    0.000035
   5 H :    0.000002
   6 C :   -0.154275
   7 O :   -0.481015
   8 H :    0.318471
   9 H :    0.096361
  10 H :    0.100715
  11 H :    0.121391
Sum of atomic charges:    0.0000000

LOEWDIN ATOMIC CHARGES
----------------------
   0 C :   -0.000226
   1 O :   -0.002271
   2 H :   -0.001114
   3 H :   -0.000004
   4 H :   -0.000006
   5 H :   -0.000006
   6 C :   -0.397975
   7 O :   -0.077110
   8 H :    0.180606
   9 H :    0.098320
  10 H :    0.090872
  11 H :    0.108913

  Mayer bond orders larger than 0.1
B(  6-C ,  7-O ) :   1.0018 B(  6-C ,  9-H ) :   0.9774 B(  6-C , 10-H ) :   0.9754
B(  6-C , 11-H ) :   0.9731 B(  7-O ,  8-H ) :   0.8925

Dispersion correction           -0.000238558
FINAL SINGLE POINT ENERGY      -115.736178303298

DIPOLE MOMENT
-------------
                                X             Y             Z
Electronic contribution:     -1.53991      -0.46471      -0.80144
Nuclear contribution   :      2.01286       0.82862       0.53260
                        -----------------------------------------
Total Dipole Moment    :      0.47296       0.36391      -0.26885
                        -----------------------------------------
Magnitude (a.u.)       :      0.65452
Magnitude (Debye)      :      1.66365

Rotational constants in cm-1:     4.210256     0.844931     0.811271
Rotational constants in MHz : 126220.305148 25330.407466 24321.283147

                             ****ORCA TERMINATED NORMALLY****
TOTAL RUN TIME: 0 days 0 hours 1 minutes 2 seconds 398 msec
