                         Program Version 4.1.2  - RELEASE  -
|  1> #Run DFT-D3 single point of the dimer
|  2> ! wB97X-D3 def2-TZVP TIGHTSCF CHELPG PMODEL PAL8
|  3>
|  4> %base "19-20_DFT_AB"
|  5>
|  6> %scf
|  7> MaxIter 1000
|  8> end
|  9>
| 10> * xyz 0 1
| 11>   C                      9.121018             -8.002332            -6.658130
| 12>   O                      10.161908            -7.980103            -7.581041
| 13>   H                      10.228390            -8.853579            -7.970329
| 14>   H                      8.705024             -7.045005            -6.526222
| 15>   H                      8.234115             -8.471532            -7.034247
| 16>   H                      9.419755             -8.306082            -5.708888
| 17>   C                      4.786815             -6.918655            -5.102293
| 18>   O                      5.975221             -6.467177            -5.763916
| 19>   H                      5.586546             -5.956710            -6.485934
| 20>   H                      3.852278             -6.570519            -5.593039
| 21>   H                      4.767182             -8.010396            -5.028749
| 22>   H                      4.846948             -6.625967            -4.050205
| 23> *
| 24>
| 25> #Run DFT-D3 single point of the molecule with dimer basis set
| 26> $new_job
| 27> %base "19-20_DFT_A"
| 28> ! wB97X-D3 def2-TZVP TIGHTSCF CHELPG PMODEL
| 29>
| 30> %scf
| 31> MaxIter 1000
| 32> end
| 33>
| 34> * xyz 0 1
| 35>   C                      9.121018             -8.002332            -6.658130
| 36>   O                      10.161908            -7.980103            -7.581041
| 37>   H                      10.228390            -8.853579            -7.970329
| 38>   H                      8.705024             -7.045005            -6.526222
| 39>   H                      8.234115             -8.471532            -7.034247
| 40>   H                      9.419755             -8.306082            -5.708888
| 41>   C                    : 4.786815             -6.918655            -5.102293
| 42>   O                    : 5.975221             -6.467177            -5.763916
| 43>   H                    : 5.586546             -5.956710            -6.485934
| 44>   H                    : 3.852278             -6.570519            -5.593039
| 45>   H                    : 4.767182             -8.010396            -5.028749
| 46>   H                    : 4.846948             -6.625967            -4.050205
| 47> *
| 48>
| 49> #Run DFT-D3 single point of the particle with dimer basis set
| 50> $new_job
| 51> %base "19-20_DFT_B"
| 52> ! wB97X-D3 def2-TZVP TIGHTSCF CHELPG PMODEL
| 53>
| 54> %scf
| 55> MaxIter 1000
| 56> end
| 57>
| 58> * xyz 0 1
| 59>   C                    : 9.121018             -8.002332            -6.658130
| 60>   O                    : 10.161908            -7.980103            -7.581041
| 61>   H                    : 10.228390            -8.853579            -7.970329
| 62>   H                    : 8.705024             -7.045005            -6.526222
| 63>   H                    : 8.234115             -8.471532            -7.034247
| 64>   H                    : 9.419755             -8.306082            -5.708888
| 65>   C                      4.786815             -6.918655            -5.102293
| 66>   O                      5.975221             -6.467177            -5.763916
| 67>   H                      5.586546             -5.956710            -6.485934
| 68>   H                      3.852278             -6.570519            -5.593039
| 69>   H                      4.767182             -8.010396            -5.028749
| 70>   H                      4.846948             -6.625967            -4.050205
| 71> *
| 72>
| 73>                          ****END OF INPUT****
 Total Charge           Charge          ....    0
 Multiplicity           Mult            ....    1
 Number of Electrons    NEL             ....   36
Dispersion correction           -0.001274734
FINAL SINGLE POINT ENERGY      -231.462862871053
Dispersion correction           -0.000227595
FINAL SINGLE POINT ENERGY      -115.728983970502

CARTESIAN COORDINATES (ANGSTROEM)
---------------------------------
  C      9.121018   -8.002332   -6.658130
  O     10.161908   -7.980103   -7.581041
  H     10.228390   -8.853579   -7.970329
  H      8.705024   -7.045005   -6.526222
  H      8.234115   -8.471532   -7.034247
  H      9.419755   -8.306082   -5.708888
  C      4.786815   -6.918655   -5.102293
  O      5.975221   -6.467177   -5.763916
  H      5.586546   -5.956710   -6.485934
  H      3.852278   -6.570519   -5.593039
  H      4.767182   -8.010396   -5.028749
  H      4.846948   -6.625967   -4.050205

 Multiplicity           Mult            ....    1
 Number of Electrons    NEL             ....   18
 Basis Dimension        Dim             ....  172

ORBITAL ENERGIES
----------------

  NO   OCC          E(Eh)            E(eV)
   0   2.0000     -19.233614      -523.3732
   1   2.0000     -10.316705      -280.7318
   2   2.0000      -1.135197       -30.8903
   3   2.0000      -0.792068       -21.5533
   4   2.0000      -0.608365       -16.5544
   5   2.0000      -0.531103       -14.4520
   6   2.0000      -0.528142       -14.3715
   7   2.0000      -0.448434       -12.2025
   8   2.0000      -0.371528       -10.1098
   9   0.0000       0.097218         2.6454
  10   0.0000       0.115794         3.1509
  11   0.0000       0.153236         4.1698
  12   0.0000       0.178275         4.8511
  13   0.0000       0.196307         5.3418

MULLIKEN ATOMIC CHARGES
-----------------------
   0 C :    0.005268
   1 O :   -0.000084
   2 H :   -0.000013
   3 H :   -0.005645
   4 H :   -0.004530
   5 H :   -0.000819
   6 C :   -0.183745
   7 O :   -0.452955
   8 H :    0.314154
   9 H :    0.104575
  10 H :    0.111646
  11 H :    0.112149
Sum of atomic charges:    0.0000000

LOEWDIN ATOMIC CHARGES
----------------------
   0 C :   -0.005155
   1 O :   -0.000033
   2 H :   -0.000006
   3 H :   -0.004556
   4 H :   -0.001930
   5 H :   -0.000134
   6 C :   -0.380441
   7 O :   -0.084042
   8 H :    0.175251
   9 H :    0.100920
  10 H :    0.099051
  11 H :    0.101075

  Mayer bond orders larger than 0.1
B(  6-C ,  7-O ) :   1.0095 B(  6-C ,  9-H ) :   0.9797 B(  6-C , 10-H ) :   0.9761
B(  6-C , 11-H ) :   0.9792 B(  7-O ,  8-H ) :   0.9030

Dispersion correction           -0.000246955
FINAL SINGLE POINT ENERGY      -115.732105053565

DIPOLE MOMENT
-------------
                                X             Y             Z
Electronic contribution:      1.57815       0.56608      -0.80586
Nuclear contribution   :     -2.29531      -0.42376       0.62111
                        -----------------------------------------
Total Dipole Moment    :     -0.71715       0.14232      -0.18475
                        -----------------------------------------
Magnitude (a.u.)       :      0.75412
Magnitude (Debye)      :      1.91682

Rotational constants in cm-1:     4.187381     0.826516     0.783148
Rotational constants in MHz : 125534.515977 24778.328866 23478.171702

                             ****ORCA TERMINATED NORMALLY****
TOTAL RUN TIME: 0 days 0 hours 0 minutes 49 seconds 339 msec
