                         Program Version 4.1.2  - RELEASE  -
|  1> #Run DFT-D3 single point of the dimer
|  2> ! wB97X-D3 def2-TZVP TIGHTSCF CHELPG PMODEL PAL8
|  3>
|  4> %base "9-92_DFT_AB"
|  5>
|  6> %scf
|  7> MaxIter 1000
|  8> end
|  9>
| 10> * xyz 0 1
| 11>   C                      -2.747217            -1.439285            7.215734
| 12>   O                      -3.661565            -2.257749            7.941439
| 13>   H                      -4.087411            -2.914877            7.304557
| 14>   H                      -1.744539            -1.863552            7.165893
| 15>   H                      -3.187766            -1.140830            6.244377
| 16>   H                      -2.642980            -0.476722            7.720025
| 17>   C                      -4.128590            -1.843765            1.724450
| 18>   O                      -5.434455            -2.257634            1.790054
| 19>   H                      -5.983453            -1.607229            1.349417
| 20>   H                      -3.976567            -0.840677            2.180190
| 21>   H                      -3.509313            -2.598963            2.167333
| 22>   H                      -3.743851            -1.804597            0.667647
| 23> *
| 24>
| 25> #Run DFT-D3 single point of the molecule with dimer basis set
| 26> $new_job
| 27> %base "9-92_DFT_A"
| 28> ! wB97X-D3 def2-TZVP TIGHTSCF CHELPG PMODEL
| 29>
| 30> %scf
| 31> MaxIter 1000
| 32> end
| 33>
| 34> * xyz 0 1
| 35>   C                      -2.747217            -1.439285            7.215734
| 36>   O                      -3.661565            -2.257749            7.941439
| 37>   H                      -4.087411            -2.914877            7.304557
| 38>   H                      -1.744539            -1.863552            7.165893
| 39>   H                      -3.187766            -1.140830            6.244377
| 40>   H                      -2.642980            -0.476722            7.720025
| 41>   C                    : -4.128590            -1.843765            1.724450
| 42>   O                    : -5.434455            -2.257634            1.790054
| 43>   H                    : -5.983453            -1.607229            1.349417
| 44>   H                    : -3.976567            -0.840677            2.180190
| 45>   H                    : -3.509313            -2.598963            2.167333
| 46>   H                    : -3.743851            -1.804597            0.667647
| 47> *
| 48>
| 49> #Run DFT-D3 single point of the particle with dimer basis set
| 50> $new_job
| 51> %base "9-92_DFT_B"
| 52> ! wB97X-D3 def2-TZVP TIGHTSCF CHELPG PMODEL
| 53>
| 54> %scf
| 55> MaxIter 1000
| 56> end
| 57>
| 58> * xyz 0 1
| 59>   C                    : -2.747217            -1.439285            7.215734
| 60>   O                    : -3.661565            -2.257749            7.941439
| 61>   H                    : -4.087411            -2.914877            7.304557
| 62>   H                    : -1.744539            -1.863552            7.165893
| 63>   H                    : -3.187766            -1.140830            6.244377
| 64>   H                    : -2.642980            -0.476722            7.720025
| 65>   C                      -4.128590            -1.843765            1.724450
| 66>   O                      -5.434455            -2.257634            1.790054
| 67>   H                      -5.983453            -1.607229            1.349417
| 68>   H                      -3.976567            -0.840677            2.180190
| 69>   H                      -3.509313            -2.598963            2.167333
| 70>   H                      -3.743851            -1.804597            0.667647
| 71> *
| 72>
| 73>                          ****END OF INPUT****
 Total Charge           Charge          ....    0
 Multiplicity           Mult            ....    1
 Number of Electrons    NEL             ....   36
Dispersion correction           -0.000648899
FINAL SINGLE POINT ENERGY      -231.467562684824
Dispersion correction           -0.000258130
FINAL SINGLE POINT ENERGY      -115.732317382340

CARTESIAN COORDINATES (ANGSTROEM)
---------------------------------
  C     -2.747217   -1.439285    7.215734
  O     -3.661565   -2.257749    7.941439
  H     -4.087411   -2.914877    7.304557
  H     -1.744539   -1.863552    7.165893
  H     -3.187766   -1.140830    6.244377
  H     -2.642980   -0.476722    7.720025
  C     -4.128590   -1.843765    1.724450
  O     -5.434455   -2.257634    1.790054
  H     -5.983453   -1.607229    1.349417
  H     -3.976567   -0.840677    2.180190
  H     -3.509313   -2.598963    2.167333
  H     -3.743851   -1.804597    0.667647

 Multiplicity           Mult            ....    1
 Number of Electrons    NEL             ....   18
 Basis Dimension        Dim             ....  172

ORBITAL ENERGIES
----------------

  NO   OCC          E(Eh)            E(eV)
   0   2.0000     -19.230551      -523.2899
   1   2.0000     -10.311919      -280.6016
   2   2.0000      -1.150735       -31.3131
   3   2.0000      -0.793026       -21.5793
   4   2.0000      -0.618132       -16.8202
   5   2.0000      -0.547119       -14.8879
   6   2.0000      -0.530851       -14.4452
   7   2.0000      -0.431160       -11.7325
   8   2.0000      -0.370318       -10.0769
   9   0.0000       0.087983         2.3941
  10   0.0000       0.115571         3.1449
  11   0.0000       0.153033         4.1643
  12   0.0000       0.166251         4.5239
  13   0.0000       0.193756         5.2724

MULLIKEN ATOMIC CHARGES
-----------------------
   0 C :   -0.000059
   1 O :    0.000001
   2 H :   -0.000002
   3 H :    0.000003
   4 H :    0.000061
   5 H :    0.000002
   6 C :   -0.154982
   7 O :   -0.464151
   8 H :    0.316092
   9 H :    0.095116
  10 H :    0.119143
  11 H :    0.088775
Sum of atomic charges:   -0.0000000

LOEWDIN ATOMIC CHARGES
----------------------
   0 C :   -0.000018
   1 O :   -0.000000
   2 H :   -0.000001
   3 H :   -0.000001
   4 H :   -0.000032
   5 H :   -0.000000
   6 C :   -0.422921
   7 O :   -0.043885
   8 H :    0.171412
   9 H :    0.095399
  10 H :    0.104401
  11 H :    0.095645

  Mayer bond orders larger than 0.1
B(  6-C ,  7-O ) :   1.0095 B(  6-C ,  9-H ) :   0.9753 B(  6-C , 10-H ) :   0.9729
B(  6-C , 11-H ) :   0.9755 B(  7-O ,  8-H ) :   0.8974

Dispersion correction           -0.000228498
FINAL SINGLE POINT ENERGY      -115.734813589900

DIPOLE MOMENT
-------------
                                X             Y             Z
Electronic contribution:     -1.73417      -0.65879       0.26081
Nuclear contribution   :      1.86443       1.20160      -0.55949
                        -----------------------------------------
Total Dipole Moment    :      0.13027       0.54281      -0.29869
                        -----------------------------------------
Magnitude (a.u.)       :      0.63311
Magnitude (Debye)      :      1.60923

Rotational constants in cm-1:     4.258507     0.869435     0.839259
Rotational constants in MHz : 127666.818338 26064.991745 25160.360997

                             ****ORCA TERMINATED NORMALLY****
TOTAL RUN TIME: 0 days 0 hours 0 minutes 32 seconds 400 msec
