                         Program Version 4.1.2  - RELEASE  -
|  1> #Run DFT-D3 single point of the dimer
|  2> ! wB97X-D3 def2-TZVP TIGHTSCF CHELPG PMODEL PAL8
|  3>
|  4> %base "2-100_DFT_AB"
|  5>
|  6> %scf
|  7> MaxIter 1000
|  8> end
|  9>
| 10> * xyz 0 1
| 11>   C                      10.131559            -0.929883            -3.069840
| 12>   O                      8.749478             -0.835584            -3.413896
| 13>   H                      8.295501             -1.609561            -3.197512
| 14>   H                      10.881002            -1.133662            -3.916814
| 15>   H                      10.518113            -0.027949            -2.527007
| 16>   H                      10.152257            -1.698416            -2.209900
| 17>   C                      5.969071             -3.405384            -0.265019
| 18>   O                      7.102068             -2.889357            -0.942927
| 19>   H                      7.118643             -1.956619            -0.879665
| 20>   H                      6.277044             -3.784139            0.691122
| 21>   H                      5.188285             -2.625284            -0.197412
| 22>   H                      5.445635             -4.273494            -0.690587
| 23> *
| 24>
| 25> #Run DFT-D3 single point of the molecule with dimer basis set
| 26> $new_job
| 27> %base "2-100_DFT_A"
| 28> ! wB97X-D3 def2-TZVP TIGHTSCF CHELPG PMODEL
| 29>
| 30> %scf
| 31> MaxIter 1000
| 32> end
| 33>
| 34> * xyz 0 1
| 35>   C                      10.131559            -0.929883            -3.069840
| 36>   O                      8.749478             -0.835584            -3.413896
| 37>   H                      8.295501             -1.609561            -3.197512
| 38>   H                      10.881002            -1.133662            -3.916814
| 39>   H                      10.518113            -0.027949            -2.527007
| 40>   H                      10.152257            -1.698416            -2.209900
| 41>   C                    : 5.969071             -3.405384            -0.265019
| 42>   O                    : 7.102068             -2.889357            -0.942927
| 43>   H                    : 7.118643             -1.956619            -0.879665
| 44>   H                    : 6.277044             -3.784139            0.691122
| 45>   H                    : 5.188285             -2.625284            -0.197412
| 46>   H                    : 5.445635             -4.273494            -0.690587
| 47> *
| 48>
| 49> #Run DFT-D3 single point of the particle with dimer basis set
| 50> $new_job
| 51> %base "2-100_DFT_B"
| 52> ! wB97X-D3 def2-TZVP TIGHTSCF CHELPG PMODEL
| 53>
| 54> %scf
| 55> MaxIter 1000
| 56> end
| 57>
| 58> * xyz 0 1
| 59>   C                    : 10.131559            -0.929883            -3.069840
| 60>   O                    : 8.749478             -0.835584            -3.413896
| 61>   H                    : 8.295501             -1.609561            -3.197512
| 62>   H                    : 10.881002            -1.133662            -3.916814
| 63>   H                    : 10.518113            -0.027949            -2.527007
| 64>   H                    : 10.152257            -1.698416            -2.209900
| 65>   C                      5.969071             -3.405384            -0.265019
| 66>   O                      7.102068             -2.889357            -0.942927
| 67>   H                      7.118643             -1.956619            -0.879665
| 68>   H                      6.277044             -3.784139            0.691122
| 69>   H                      5.188285             -2.625284            -0.197412
| 70>   H                      5.445635             -4.273494            -0.690587
| 71> *
| 72>
| 73>                          ****END OF INPUT****
 Total Charge           Charge          ....    0
 Multiplicity           Mult            ....    1
 Number of Electrons    NEL             ....   36
Dispersion correction           -0.001363305
FINAL SINGLE POINT ENERGY      -231.459155850751
Dispersion correction           -0.000278317
FINAL SINGLE POINT ENERGY      -115.724529717020

CARTESIAN COORDINATES (ANGSTROEM)
---------------------------------
  C     10.131559   -0.929883   -3.069840
  O      8.749478   -0.835584   -3.413896
  H      8.295501   -1.609561   -3.197512
  H     10.881002   -1.133662   -3.916814
  H     10.518113   -0.027949   -2.527007
  H     10.152257   -1.698416   -2.209900
  C      5.969071   -3.405384   -0.265019
  O      7.102068   -2.889357   -0.942927
  H      7.118643   -1.956619   -0.879665
  H      6.277044   -3.784139    0.691122
  H      5.188285   -2.625284   -0.197412
  H      5.445635   -4.273494   -0.690587

 Multiplicity           Mult            ....    1
 Number of Electrons    NEL             ....   18
 Basis Dimension        Dim             ....  172

ORBITAL ENERGIES
----------------

  NO   OCC          E(Eh)            E(eV)
   0   2.0000     -19.228220      -523.2265
   1   2.0000     -10.315111      -280.6884
   2   2.0000      -1.139448       -31.0059
   3   2.0000      -0.801111       -21.7993
   4   2.0000      -0.614017       -16.7083
   5   2.0000      -0.544812       -14.8251
   6   2.0000      -0.531871       -14.4730
   7   2.0000      -0.427536       -11.6338
   8   2.0000      -0.374150       -10.1811
   9   0.0000       0.089844         2.4448
  10   0.0000       0.122934         3.3452
  11   0.0000       0.150789         4.1032
  12   0.0000       0.184271         5.0143
  13   0.0000       0.197480         5.3737

MULLIKEN ATOMIC CHARGES
-----------------------
   0 C :    0.001468
   1 O :    0.000454
   2 H :   -0.006838
   3 H :   -0.000033
   4 H :   -0.000021
   5 H :   -0.001984
   6 C :   -0.159144
   7 O :   -0.468218
   8 H :    0.317413
   9 H :    0.103145
  10 H :    0.100710
  11 H :    0.113046
Sum of atomic charges:    0.0000000

LOEWDIN ATOMIC CHARGES
----------------------
   0 C :   -0.000404
   1 O :   -0.000451
   2 H :   -0.006133
   3 H :   -0.000002
   4 H :   -0.000004
   5 H :   -0.000833
   6 C :   -0.379264
   7 O :   -0.064629
   8 H :    0.154260
   9 H :    0.092764
  10 H :    0.099542
  11 H :    0.105152

  Mayer bond orders larger than 0.1
B(  6-C ,  7-O ) :   1.0038 B(  6-C ,  9-H ) :   0.9796 B(  6-C , 10-H ) :   0.9873
B(  6-C , 11-H ) :   0.9722 B(  7-O ,  8-H ) :   0.8997

Dispersion correction           -0.000251834
FINAL SINGLE POINT ENERGY      -115.730749484826

DIPOLE MOMENT
-------------
                                X             Y             Z
Electronic contribution:      1.51898       0.55054      -0.92949
Nuclear contribution   :     -1.98892      -0.15820       1.25173
                        -----------------------------------------
Total Dipole Moment    :     -0.46994       0.39234       0.32225
                        -----------------------------------------
Magnitude (a.u.)       :      0.69182
Magnitude (Debye)      :      1.75847

Rotational constants in cm-1:     4.489803     0.820950     0.790213
Rotational constants in MHz : 134600.895300 24611.455645 23689.997719

                             ****ORCA TERMINATED NORMALLY****
TOTAL RUN TIME: 0 days 0 hours 4 minutes 44 seconds 363 msec
