                         Program Version 4.1.2  - RELEASE  -
|  1> #Run DFT-D3 single point of the dimer
|  2> ! wB97X-D3 def2-TZVP TIGHTSCF CHELPG PMODEL PAL8
|  3>
|  4> %base "8-133_DFT_AB"
|  5>
|  6> %scf
|  7> MaxIter 1000
|  8> end
|  9>
| 10> * xyz 0 1
| 11>   C                      -3.245610            4.766604             5.925738
| 12>   O                      -2.105204            5.526825             5.753957
| 13>   H                      -2.061038            5.470847             4.812791
| 14>   H                      -3.398093            4.514218             6.964937
| 15>   H                      -4.115643            5.335577             5.674308
| 16>   H                      -3.145554            3.834048             5.296263
| 17>   C                      -2.232339            6.120175             1.436863
| 18>   O                      -1.684877            5.426233             2.544154
| 19>   H                      -0.759028            5.616553             2.607638
| 20>   H                      -1.450779            6.683787             0.962567
| 21>   H                      -2.595102            5.439515             0.614280
| 22>   H                      -3.038450            6.785370             1.740800
| 23> *
| 24>
| 25> #Run DFT-D3 single point of the molecule with dimer basis set
| 26> $new_job
| 27> %base "8-133_DFT_A"
| 28> ! wB97X-D3 def2-TZVP TIGHTSCF CHELPG PMODEL
| 29>
| 30> %scf
| 31> MaxIter 1000
| 32> end
| 33>
| 34> * xyz 0 1
| 35>   C                      -3.245610            4.766604             5.925738
| 36>   O                      -2.105204            5.526825             5.753957
| 37>   H                      -2.061038            5.470847             4.812791
| 38>   H                      -3.398093            4.514218             6.964937
| 39>   H                      -4.115643            5.335577             5.674308
| 40>   H                      -3.145554            3.834048             5.296263
| 41>   C                    : -2.232339            6.120175             1.436863
| 42>   O                    : -1.684877            5.426233             2.544154
| 43>   H                    : -0.759028            5.616553             2.607638
| 44>   H                    : -1.450779            6.683787             0.962567
| 45>   H                    : -2.595102            5.439515             0.614280
| 46>   H                    : -3.038450            6.785370             1.740800
| 47> *
| 48>
| 49> #Run DFT-D3 single point of the particle with dimer basis set
| 50> $new_job
| 51> %base "8-133_DFT_B"
| 52> ! wB97X-D3 def2-TZVP TIGHTSCF CHELPG PMODEL
| 53>
| 54> %scf
| 55> MaxIter 1000
| 56> end
| 57>
| 58> * xyz 0 1
| 59>   C                    : -3.245610            4.766604             5.925738
| 60>   O                    : -2.105204            5.526825             5.753957
| 61>   H                    : -2.061038            5.470847             4.812791
| 62>   H                    : -3.398093            4.514218             6.964937
| 63>   H                    : -4.115643            5.335577             5.674308
| 64>   H                    : -3.145554            3.834048             5.296263
| 65>   C                      -2.232339            6.120175             1.436863
| 66>   O                      -1.684877            5.426233             2.544154
| 67>   H                      -0.759028            5.616553             2.607638
| 68>   H                      -1.450779            6.683787             0.962567
| 69>   H                      -2.595102            5.439515             0.614280
| 70>   H                      -3.038450            6.785370             1.740800
| 71> *
| 72>
| 73>                          ****END OF INPUT****
 Total Charge           Charge          ....    0
 Multiplicity           Mult            ....    1
 Number of Electrons    NEL             ....   36
Dispersion correction           -0.001447847
FINAL SINGLE POINT ENERGY      -231.470643131964
Dispersion correction           -0.000191737
FINAL SINGLE POINT ENERGY      -115.729331635035

CARTESIAN COORDINATES (ANGSTROEM)
---------------------------------
  C     -3.245610    4.766604    5.925738
  O     -2.105204    5.526825    5.753957
  H     -2.061038    5.470847    4.812791
  H     -3.398093    4.514218    6.964937
  H     -4.115643    5.335577    5.674308
  H     -3.145554    3.834048    5.296263
  C     -2.232339    6.120175    1.436863
  O     -1.684877    5.426233    2.544154
  H     -0.759028    5.616553    2.607638
  H     -1.450779    6.683787    0.962567
  H     -2.595102    5.439515    0.614280
  H     -3.038450    6.785370    1.740800

 Multiplicity           Mult            ....    1
 Number of Electrons    NEL             ....   18
 Basis Dimension        Dim             ....  172

ORBITAL ENERGIES
----------------

  NO   OCC          E(Eh)            E(eV)
   0   2.0000     -19.229233      -523.2540
   1   2.0000     -10.314966      -280.6845
   2   2.0000      -1.137813       -30.9615
   3   2.0000      -0.796864       -21.6838
   4   2.0000      -0.615997       -16.7621
   5   2.0000      -0.540777       -14.7153
   6   2.0000      -0.528320       -14.3763
   7   2.0000      -0.430787       -11.7223
   8   2.0000      -0.375033       -10.2052
   9   0.0000       0.099364         2.7038
  10   0.0000       0.121892         3.3168
  11   0.0000       0.151922         4.1340
  12   0.0000       0.188025         5.1164
  13   0.0000       0.200177         5.4471

MULLIKEN ATOMIC CHARGES
-----------------------
   0 C :    0.003634
   1 O :   -0.000027
   2 H :   -0.013432
   3 H :   -0.000108
   4 H :   -0.000529
   5 H :   -0.001770
   6 C :   -0.166997
   7 O :   -0.465485
   8 H :    0.317110
   9 H :    0.104766
  10 H :    0.104697
  11 H :    0.118142
Sum of atomic charges:    0.0000000

LOEWDIN ATOMIC CHARGES
----------------------
   0 C :   -0.002018
   1 O :   -0.001859
   2 H :   -0.021813
   3 H :   -0.000022
   4 H :   -0.000074
   5 H :   -0.000758
   6 C :   -0.380901
   7 O :   -0.054043
   8 H :    0.162299
   9 H :    0.093173
  10 H :    0.105634
  11 H :    0.100381

  Mayer bond orders larger than 0.1
B(  6-C ,  7-O ) :   1.0062 B(  6-C ,  9-H ) :   0.9868 B(  6-C , 10-H ) :   0.9687
B(  6-C , 11-H ) :   0.9751 B(  7-O ,  8-H ) :   0.8996

Dispersion correction           -0.000250699
FINAL SINGLE POINT ENERGY      -115.733914984286

DIPOLE MOMENT
-------------
                                X             Y             Z
Electronic contribution:      0.54952      -0.90683       1.49665
Nuclear contribution   :     -0.13162       1.33165      -1.92085
                        -----------------------------------------
Total Dipole Moment    :      0.41790       0.42482      -0.42420
                        -----------------------------------------
Magnitude (a.u.)       :      0.73147
Magnitude (Debye)      :      1.85926

Rotational constants in cm-1:     4.346374     0.822274     0.798948
Rotational constants in MHz : 130301.019729 24651.157104 23951.864031

                             ****ORCA TERMINATED NORMALLY****
TOTAL RUN TIME: 0 days 0 hours 0 minutes 45 seconds 687 msec
