                         Program Version 4.1.2  - RELEASE  -
|  1> #Run DFT-D3 single point of the dimer
|  2> ! wB97X-D3 def2-TZVP TIGHTSCF CHELPG PMODEL PAL8
|  3>
|  4> %base "5-83_DFT_AB"
|  5>
|  6> %scf
|  7> MaxIter 1000
|  8> end
|  9>
| 10> * xyz 0 1
| 11>   C                      7.210825             8.632815             -10.573525
| 12>   O                      6.489195             9.621712             -11.265290
| 13>   H                      5.643977             9.593942             -10.878869
| 14>   H                      8.271137             8.672598             -10.791634
| 15>   H                      7.248490             8.656114             -9.461360
| 16>   H                      6.873795             7.608064             -10.845225
| 17>   C                      2.990418             10.818987            -11.362344
| 18>   O                      3.702967             9.979064             -10.462756
| 19>   H                      3.067860             9.279831             -10.299921
| 20>   H                      2.041404             11.056248            -10.895912
| 21>   H                      3.617167             11.661581            -11.615777
| 22>   H                      2.827465             10.414444            -12.356257
| 23> *
| 24>
| 25> #Run DFT-D3 single point of the molecule with dimer basis set
| 26> $new_job
| 27> %base "5-83_DFT_A"
| 28> ! wB97X-D3 def2-TZVP TIGHTSCF CHELPG PMODEL
| 29>
| 30> %scf
| 31> MaxIter 1000
| 32> end
| 33>
| 34> * xyz 0 1
| 35>   C                      7.210825             8.632815             -10.573525
| 36>   O                      6.489195             9.621712             -11.265290
| 37>   H                      5.643977             9.593942             -10.878869
| 38>   H                      8.271137             8.672598             -10.791634
| 39>   H                      7.248490             8.656114             -9.461360
| 40>   H                      6.873795             7.608064             -10.845225
| 41>   C                    : 2.990418             10.818987            -11.362344
| 42>   O                    : 3.702967             9.979064             -10.462756
| 43>   H                    : 3.067860             9.279831             -10.299921
| 44>   H                    : 2.041404             11.056248            -10.895912
| 45>   H                    : 3.617167             11.661581            -11.615777
| 46>   H                    : 2.827465             10.414444            -12.356257
| 47> *
| 48>
| 49> #Run DFT-D3 single point of the particle with dimer basis set
| 50> $new_job
| 51> %base "5-83_DFT_B"
| 52> ! wB97X-D3 def2-TZVP TIGHTSCF CHELPG PMODEL
| 53>
| 54> %scf
| 55> MaxIter 1000
| 56> end
| 57>
| 58> * xyz 0 1
| 59>   C                    : 7.210825             8.632815             -10.573525
| 60>   O                    : 6.489195             9.621712             -11.265290
| 61>   H                    : 5.643977             9.593942             -10.878869
| 62>   H                    : 8.271137             8.672598             -10.791634
| 63>   H                    : 7.248490             8.656114             -9.461360
| 64>   H                    : 6.873795             7.608064             -10.845225
| 65>   C                      2.990418             10.818987            -11.362344
| 66>   O                      3.702967             9.979064             -10.462756
| 67>   H                      3.067860             9.279831             -10.299921
| 68>   H                      2.041404             11.056248            -10.895912
| 69>   H                      3.617167             11.661581            -11.615777
| 70>   H                      2.827465             10.414444            -12.356257
| 71> *
| 72>
| 73>                          ****END OF INPUT****
 Total Charge           Charge          ....    0
 Multiplicity           Mult            ....    1
 Number of Electrons    NEL             ....   36
Dispersion correction           -0.001560004
FINAL SINGLE POINT ENERGY      -231.473177914363
Dispersion correction           -0.000252767
FINAL SINGLE POINT ENERGY      -115.732460324492

CARTESIAN COORDINATES (ANGSTROEM)
---------------------------------
  C      7.210825    8.632815  -10.573525
  O      6.489195    9.621712  -11.265290
  H      5.643977    9.593942  -10.878869
  H      8.271137    8.672598  -10.791634
  H      7.248490    8.656114   -9.461360
  H      6.873795    7.608064  -10.845225
  C      2.990418   10.818987  -11.362344
  O      3.702967    9.979064  -10.462756
  H      3.067860    9.279831  -10.299921
  H      2.041404   11.056248  -10.895912
  H      3.617167   11.661581  -11.615777
  H      2.827465   10.414444  -12.356257

 Multiplicity           Mult            ....    1
 Number of Electrons    NEL             ....   18
 Basis Dimension        Dim             ....  172

ORBITAL ENERGIES
----------------

  NO   OCC          E(Eh)            E(eV)
   0   2.0000     -19.231985      -523.3289
   1   2.0000     -10.309851      -280.5453
   2   2.0000      -1.138576       -30.9822
   3   2.0000      -0.796469       -21.6730
   4   2.0000      -0.609451       -16.5840
   5   2.0000      -0.553676       -15.0663
   6   2.0000      -0.518031       -14.0963
   7   2.0000      -0.441756       -12.0208
   8   2.0000      -0.374496       -10.1905
   9   0.0000       0.098124         2.6701
  10   0.0000       0.121110         3.2956
  11   0.0000       0.154838         4.2134
  12   0.0000       0.187961         5.1147
  13   0.0000       0.201311         5.4780

MULLIKEN ATOMIC CHARGES
-----------------------
   0 C :   -0.000533
   1 O :   -0.002330
   2 H :   -0.003632
   3 H :   -0.000156
   4 H :   -0.000291
   5 H :   -0.000301
   6 C :   -0.167385
   7 O :   -0.460326
   8 H :    0.309584
   9 H :    0.104032
  10 H :    0.121557
  11 H :    0.099781
Sum of atomic charges:   -0.0000000

LOEWDIN ATOMIC CHARGES
----------------------
   0 C :   -0.001876
   1 O :   -0.004848
   2 H :   -0.036668
   3 H :   -0.000035
   4 H :   -0.000096
   5 H :   -0.000119
   6 C :   -0.379324
   7 O :   -0.044136
   8 H :    0.169265
   9 H :    0.097002
  10 H :    0.108257
  11 H :    0.092578

  Mayer bond orders larger than 0.1
B(  6-C ,  7-O ) :   0.9900 B(  6-C ,  9-H ) :   0.9794 B(  6-C , 10-H ) :   0.9791
B(  6-C , 11-H ) :   0.9689 B(  7-O ,  8-H ) :   0.9038

Dispersion correction           -0.000222223
FINAL SINGLE POINT ENERGY      -115.732710303459

DIPOLE MOMENT
-------------
                                X             Y             Z
Electronic contribution:      0.99582      -0.94991       1.18178
Nuclear contribution   :     -1.66412       0.85955      -1.44822
                        -----------------------------------------
Total Dipole Moment    :     -0.66830      -0.09036      -0.26644
                        -----------------------------------------
Magnitude (a.u.)       :      0.72511
Magnitude (Debye)      :      1.84308

Rotational constants in cm-1:     4.309998     0.836635     0.800780
Rotational constants in MHz : 129210.483119 25081.672541 24006.779274

                             ****ORCA TERMINATED NORMALLY****
TOTAL RUN TIME: 0 days 0 hours 1 minutes 4 seconds 472 msec
