                         Program Version 4.1.2  - RELEASE  -
|  1> #Run DFT-D3 single point of the dimer
|  2> ! wB97X-D3 def2-TZVP TIGHTSCF CHELPG PMODEL PAL8
|  3>
|  4> %base "7-88_DFT_AB"
|  5>
|  6> %scf
|  7> MaxIter 1000
|  8> end
|  9>
| 10> * xyz 0 1
| 11>   C                      -4.531715            -3.327488            3.855180
| 12>   O                      -5.285925            -4.508734            4.030222
| 13>   H                      -4.623814            -5.225967            3.998889
| 14>   H                      -4.056107            -3.085744            4.805620
| 15>   H                      -3.844368            -3.437728            3.013197
| 16>   H                      -5.163979            -2.483007            3.642173
| 17>   C                      -6.876157            -3.537889            6.430555
| 18>   O                      -7.557125            -4.068631            5.313738
| 19>   H                      -6.837903            -4.361989            4.734408
| 20>   H                      -6.067335            -2.821260            6.093197
| 21>   H                      -7.594730            -2.834349            6.993745
| 22>   H                      -6.463546            -4.327425            7.099497
| 23> *
| 24>
| 25> #Run DFT-D3 single point of the molecule with dimer basis set
| 26> $new_job
| 27> %base "7-88_DFT_A"
| 28> ! wB97X-D3 def2-TZVP TIGHTSCF CHELPG PMODEL
| 29>
| 30> %scf
| 31> MaxIter 1000
| 32> end
| 33>
| 34> * xyz 0 1
| 35>   C                      -4.531715            -3.327488            3.855180
| 36>   O                      -5.285925            -4.508734            4.030222
| 37>   H                      -4.623814            -5.225967            3.998889
| 38>   H                      -4.056107            -3.085744            4.805620
| 39>   H                      -3.844368            -3.437728            3.013197
| 40>   H                      -5.163979            -2.483007            3.642173
| 41>   C                    : -6.876157            -3.537889            6.430555
| 42>   O                    : -7.557125            -4.068631            5.313738
| 43>   H                    : -6.837903            -4.361989            4.734408
| 44>   H                    : -6.067335            -2.821260            6.093197
| 45>   H                    : -7.594730            -2.834349            6.993745
| 46>   H                    : -6.463546            -4.327425            7.099497
| 47> *
| 48>
| 49> #Run DFT-D3 single point of the particle with dimer basis set
| 50> $new_job
| 51> %base "7-88_DFT_B"
| 52> ! wB97X-D3 def2-TZVP TIGHTSCF CHELPG PMODEL
| 53>
| 54> %scf
| 55> MaxIter 1000
| 56> end
| 57>
| 58> * xyz 0 1
| 59>   C                    : -4.531715            -3.327488            3.855180
| 60>   O                    : -5.285925            -4.508734            4.030222
| 61>   H                    : -4.623814            -5.225967            3.998889
| 62>   H                    : -4.056107            -3.085744            4.805620
| 63>   H                    : -3.844368            -3.437728            3.013197
| 64>   H                    : -5.163979            -2.483007            3.642173
| 65>   C                      -6.876157            -3.537889            6.430555
| 66>   O                      -7.557125            -4.068631            5.313738
| 67>   H                      -6.837903            -4.361989            4.734408
| 68>   H                      -6.067335            -2.821260            6.093197
| 69>   H                      -7.594730            -2.834349            6.993745
| 70>   H                      -6.463546            -4.327425            7.099497
| 71> *
| 72>
| 73>                          ****END OF INPUT****
 Total Charge           Charge          ....    0
 Multiplicity           Mult            ....    1
 Number of Electrons    NEL             ....   36
Dispersion correction           -0.002301345
FINAL SINGLE POINT ENERGY      -231.474708989038
Dispersion correction           -0.000221102
FINAL SINGLE POINT ENERGY      -115.735033428869

CARTESIAN COORDINATES (ANGSTROEM)
---------------------------------
  C     -4.531715   -3.327488    3.855180
  O     -5.285925   -4.508734    4.030222
  H     -4.623814   -5.225967    3.998889
  H     -4.056107   -3.085744    4.805620
  H     -3.844368   -3.437728    3.013197
  H     -5.163979   -2.483007    3.642173
  C     -6.876157   -3.537889    6.430555
  O     -7.557125   -4.068631    5.313738
  H     -6.837903   -4.361989    4.734408
  H     -6.067335   -2.821260    6.093197
  H     -7.594730   -2.834349    6.993745
  H     -6.463546   -4.327425    7.099497

 Multiplicity           Mult            ....    1
 Number of Electrons    NEL             ....   18
 Basis Dimension        Dim             ....  172

ORBITAL ENERGIES
----------------

  NO   OCC          E(Eh)            E(eV)
   0   2.0000     -19.235339      -523.4202
   1   2.0000     -10.325485      -280.9707
   2   2.0000      -1.140576       -31.0366
   3   2.0000      -0.783538       -21.3211
   4   2.0000      -0.607525       -16.5316
   5   2.0000      -0.546300       -14.8656
   6   2.0000      -0.519565       -14.1381
   7   2.0000      -0.430412       -11.7121
   8   2.0000      -0.376990       -10.2584
   9   0.0000       0.069014         1.8780
  10   0.0000       0.138209         3.7609
  11   0.0000       0.144401         3.9294
  12   0.0000       0.161174         4.3858
  13   0.0000       0.191489         5.2107

MULLIKEN ATOMIC CHARGES
-----------------------
   0 C :    0.000695
   1 O :   -0.008313
   2 H :   -0.000468
   3 H :   -0.001655
   4 H :    0.000083
   5 H :   -0.000188
   6 C :   -0.183991
   7 O :   -0.457078
   8 H :    0.321303
   9 H :    0.100575
  10 H :    0.116947
  11 H :    0.112090
Sum of atomic charges:    0.0000000

LOEWDIN ATOMIC CHARGES
----------------------
   0 C :   -0.015143
   1 O :   -0.036484
   2 H :   -0.001586
   3 H :   -0.003541
   4 H :   -0.000134
   5 H :   -0.001621
   6 C :   -0.399191
   7 O :   -0.059754
   8 H :    0.194049
   9 H :    0.106878
  10 H :    0.117606
  11 H :    0.098920

  Mayer bond orders larger than 0.1
B(  6-C ,  7-O ) :   0.9996 B(  6-C ,  9-H ) :   0.9761 B(  6-C , 10-H ) :   0.9707
B(  6-C , 11-H ) :   0.9703 B(  7-O ,  8-H ) :   0.9040

Dispersion correction           -0.000243711
FINAL SINGLE POINT ENERGY      -115.732671006656

DIPOLE MOMENT
-------------
                                X             Y             Z
Electronic contribution:     -1.02670      -0.80028      -1.37793
Nuclear contribution   :      1.71447       0.83199       1.42755
                        -----------------------------------------
Total Dipole Moment    :      0.68777       0.03171       0.04962
                        -----------------------------------------
Magnitude (a.u.)       :      0.69028
Magnitude (Debye)      :      1.75456

Rotational constants in cm-1:     3.991316     0.829376     0.803396
Rotational constants in MHz : 119656.638482 24864.078939 24085.193481

                             ****ORCA TERMINATED NORMALLY****
TOTAL RUN TIME: 0 days 0 hours 1 minutes 5 seconds 941 msec
