                         Program Version 4.1.2  - RELEASE  -
|  1> #Run DFT-D3 single point of the dimer
|  2> ! wB97X-D3 def2-TZVP TIGHTSCF CHELPG PMODEL PAL8
|  3>
|  4> %base "18-17_DFT_AB"
|  5>
|  6> %scf
|  7> MaxIter 1000
|  8> end
|  9>
| 10> * xyz 0 1
| 11>   C                      1.789285             9.798423             -2.464702
| 12>   O                      2.889570             10.586637            -2.007297
| 13>   H                      2.798921             10.643839            -1.020595
| 14>   H                      1.306149             10.392855            -3.281718
| 15>   H                      2.071224             8.818361             -2.858965
| 16>   H                      0.975558             9.695420             -1.724452
| 17>   C                      -0.737842            8.074966             -4.224974
| 18>   O                      -0.837398            7.776012             -2.862114
| 19>   H                      -0.171429            7.075582             -2.764346
| 20>   H                      0.352102             8.046983             -4.530430
| 21>   H                      -1.171739            7.360708             -4.842329
| 22>   H                      -1.044718            8.953931             -4.647239
| 23> *
| 24>
| 25> #Run DFT-D3 single point of the molecule with dimer basis set
| 26> $new_job
| 27> %base "18-17_DFT_A"
| 28> ! wB97X-D3 def2-TZVP TIGHTSCF CHELPG PMODEL
| 29>
| 30> %scf
| 31> MaxIter 1000
| 32> end
| 33>
| 34> * xyz 0 1
| 35>   C                      1.789285             9.798423             -2.464702
| 36>   O                      2.889570             10.586637            -2.007297
| 37>   H                      2.798921             10.643839            -1.020595
| 38>   H                      1.306149             10.392855            -3.281718
| 39>   H                      2.071224             8.818361             -2.858965
| 40>   H                      0.975558             9.695420             -1.724452
| 41>   C                    : -0.737842            8.074966             -4.224974
| 42>   O                    : -0.837398            7.776012             -2.862114
| 43>   H                    : -0.171429            7.075582             -2.764346
| 44>   H                    : 0.352102             8.046983             -4.530430
| 45>   H                    : -1.171739            7.360708             -4.842329
| 46>   H                    : -1.044718            8.953931             -4.647239
| 47> *
| 48>
| 49> #Run DFT-D3 single point of the particle with dimer basis set
| 50> $new_job
| 51> %base "18-17_DFT_B"
| 52> ! wB97X-D3 def2-TZVP TIGHTSCF CHELPG PMODEL
| 53>
| 54> %scf
| 55> MaxIter 1000
| 56> end
| 57>
| 58> * xyz 0 1
| 59>   C                    : 1.789285             9.798423             -2.464702
| 60>   O                    : 2.889570             10.586637            -2.007297
| 61>   H                    : 2.798921             10.643839            -1.020595
| 62>   H                    : 1.306149             10.392855            -3.281718
| 63>   H                    : 2.071224             8.818361             -2.858965
| 64>   H                    : 0.975558             9.695420             -1.724452
| 65>   C                      -0.737842            8.074966             -4.224974
| 66>   O                      -0.837398            7.776012             -2.862114
| 67>   H                      -0.171429            7.075582             -2.764346
| 68>   H                      0.352102             8.046983             -4.530430
| 69>   H                      -1.171739            7.360708             -4.842329
| 70>   H                      -1.044718            8.953931             -4.647239
| 71> *
| 72>
| 73>                          ****END OF INPUT****
 Total Charge           Charge          ....    0
 Multiplicity           Mult            ....    1
 Number of Electrons    NEL             ....   36
Dispersion correction           -0.002125043
FINAL SINGLE POINT ENERGY      -231.454983971036
Dispersion correction           -0.000263189
FINAL SINGLE POINT ENERGY      -115.732675190245

CARTESIAN COORDINATES (ANGSTROEM)
---------------------------------
  C      1.789285    9.798423   -2.464702
  O      2.889570   10.586637   -2.007297
  H      2.798921   10.643839   -1.020595
  H      1.306149   10.392855   -3.281718
  H      2.071224    8.818361   -2.858965
  H      0.975558    9.695420   -1.724452
  C     -0.737842    8.074966   -4.224974
  O     -0.837398    7.776012   -2.862114
  H     -0.171429    7.075582   -2.764346
  H      0.352102    8.046983   -4.530430
  H     -1.171739    7.360708   -4.842329
  H     -1.044718    8.953931   -4.647239

 Multiplicity           Mult            ....    1
 Number of Electrons    NEL             ....   18
 Basis Dimension        Dim             ....  172

ORBITAL ENERGIES
----------------

  NO   OCC          E(Eh)            E(eV)
   0   2.0000     -19.237079      -523.4675
   1   2.0000     -10.303407      -280.3700
   2   2.0000      -1.145222       -31.1631
   3   2.0000      -0.805603       -21.9216
   4   2.0000      -0.614576       -16.7235
   5   2.0000      -0.547006       -14.8848
   6   2.0000      -0.541021       -14.7219
   7   2.0000      -0.433657       -11.8004
   8   2.0000      -0.374615       -10.1938
   9   0.0000       0.084461         2.2983
  10   0.0000       0.124937         3.3997
  11   0.0000       0.148551         4.0423
  12   0.0000       0.184252         5.0138
  13   0.0000       0.186661         5.0793

MULLIKEN ATOMIC CHARGES
-----------------------
   0 C :    0.004980
   1 O :   -0.000083
   2 H :   -0.000035
   3 H :   -0.001668
   4 H :   -0.003659
   5 H :   -0.004590
   6 C :   -0.190079
   7 O :   -0.460881
   8 H :    0.325041
   9 H :    0.093857
  10 H :    0.112998
  11 H :    0.124118
Sum of atomic charges:   -0.0000000

LOEWDIN ATOMIC CHARGES
----------------------
   0 C :   -0.011982
   1 O :   -0.000054
   2 H :   -0.000008
   3 H :   -0.001290
   4 H :   -0.003112
   5 H :   -0.005388
   6 C :   -0.393561
   7 O :   -0.055214
   8 H :    0.187517
   9 H :    0.106416
  10 H :    0.085337
  11 H :    0.091340

  Mayer bond orders larger than 0.1
B(  6-C ,  7-O ) :   0.9928 B(  6-C ,  9-H ) :   0.9954 B(  6-C , 10-H ) :   0.9787
B(  6-C , 11-H ) :   0.9745 B(  7-O ,  8-H ) :   0.8953

Dispersion correction           -0.000218873
FINAL SINGLE POINT ENERGY      -115.720322970426

DIPOLE MOMENT
-------------
                                X             Y             Z
Electronic contribution:     -0.51047      -0.16858       1.96651
Nuclear contribution   :      0.93627      -0.14913      -2.44889
                        -----------------------------------------
Total Dipole Moment    :      0.42581      -0.31771      -0.48238
                        -----------------------------------------
Magnitude (a.u.)       :      0.71759
Magnitude (Debye)      :      1.82398

Rotational constants in cm-1:     4.660019     0.843276     0.809886
Rotational constants in MHz : 139703.867612 25280.774437 24279.765195

                             ****ORCA TERMINATED NORMALLY****
TOTAL RUN TIME: 0 days 0 hours 1 minutes 7 seconds 418 msec
