                         Program Version 4.1.2  - RELEASE  -
|  1> #Run DFT-D3 single point of the dimer
|  2> ! wB97X-D3 def2-TZVP TIGHTSCF CHELPG PMODEL PAL8
|  3>
|  4> %base "10-149_DFT_AB"
|  5>
|  6> %scf
|  7> MaxIter 1000
|  8> end
|  9>
| 10> * xyz 0 1
| 11>   C                      -2.728455            -8.294067            -3.970005
| 12>   O                      -1.346350            -8.753726            -4.049427
| 13>   H                      -1.341560            -9.587864            -3.613665
| 14>   H                      -3.399248            -9.087153            -4.171375
| 15>   H                      -2.930991            -7.956123            -2.995674
| 16>   H                      -2.988727            -7.505298            -4.671363
| 17>   C                      3.153078             -7.645306            -3.207908
| 18>   O                      2.836734             -6.398947            -3.647315
| 19>   H                      3.203133             -6.282440            -4.503657
| 20>   H                      4.238093             -7.697912            -2.989028
| 21>   H                      2.670314             -7.902382            -2.312206
| 22>   H                      2.984515             -8.353490            -4.071394
| 23> *
| 24>
| 25> #Run DFT-D3 single point of the molecule with dimer basis set
| 26> $new_job
| 27> %base "10-149_DFT_A"
| 28> ! wB97X-D3 def2-TZVP TIGHTSCF CHELPG PMODEL
| 29>
| 30> %scf
| 31> MaxIter 1000
| 32> end
| 33>
| 34> * xyz 0 1
| 35>   C                      -2.728455            -8.294067            -3.970005
| 36>   O                      -1.346350            -8.753726            -4.049427
| 37>   H                      -1.341560            -9.587864            -3.613665
| 38>   H                      -3.399248            -9.087153            -4.171375
| 39>   H                      -2.930991            -7.956123            -2.995674
| 40>   H                      -2.988727            -7.505298            -4.671363
| 41>   C                    : 3.153078             -7.645306            -3.207908
| 42>   O                    : 2.836734             -6.398947            -3.647315
| 43>   H                    : 3.203133             -6.282440            -4.503657
| 44>   H                    : 4.238093             -7.697912            -2.989028
| 45>   H                    : 2.670314             -7.902382            -2.312206
| 46>   H                    : 2.984515             -8.353490            -4.071394
| 47> *
| 48>
| 49> #Run DFT-D3 single point of the particle with dimer basis set
| 50> $new_job
| 51> %base "10-149_DFT_B"
| 52> ! wB97X-D3 def2-TZVP TIGHTSCF CHELPG PMODEL
| 53>
| 54> %scf
| 55> MaxIter 1000
| 56> end
| 57>
| 58> * xyz 0 1
| 59>   C                    : -2.728455            -8.294067            -3.970005
| 60>   O                    : -1.346350            -8.753726            -4.049427
| 61>   H                    : -1.341560            -9.587864            -3.613665
| 62>   H                    : -3.399248            -9.087153            -4.171375
| 63>   H                    : -2.930991            -7.956123            -2.995674
| 64>   H                    : -2.988727            -7.505298            -4.671363
| 65>   C                      3.153078             -7.645306            -3.207908
| 66>   O                      2.836734             -6.398947            -3.647315
| 67>   H                      3.203133             -6.282440            -4.503657
| 68>   H                      4.238093             -7.697912            -2.989028
| 69>   H                      2.670314             -7.902382            -2.312206
| 70>   H                      2.984515             -8.353490            -4.071394
| 71> *
| 72>
| 73>                          ****END OF INPUT****
 Total Charge           Charge          ....    0
 Multiplicity           Mult            ....    1
 Number of Electrons    NEL             ....   36
Dispersion correction           -0.000651009
FINAL SINGLE POINT ENERGY      -231.460973722830
Dispersion correction           -0.000236137
FINAL SINGLE POINT ENERGY      -115.731583790574

CARTESIAN COORDINATES (ANGSTROEM)
---------------------------------
  C     -2.728455   -8.294067   -3.970005
  O     -1.346350   -8.753726   -4.049427
  H     -1.341560   -9.587864   -3.613665
  H     -3.399248   -9.087153   -4.171375
  H     -2.930991   -7.956123   -2.995674
  H     -2.988727   -7.505298   -4.671363
  C      3.153078   -7.645306   -3.207908
  O      2.836734   -6.398947   -3.647315
  H      3.203133   -6.282440   -4.503657
  H      4.238093   -7.697912   -2.989028
  H      2.670314   -7.902382   -2.312206
  H      2.984515   -8.353490   -4.071394

 Multiplicity           Mult            ....    1
 Number of Electrons    NEL             ....   18
 Basis Dimension        Dim             ....  172

ORBITAL ENERGIES
----------------

  NO   OCC          E(Eh)            E(eV)
   0   2.0000     -19.225655      -523.1567
   1   2.0000     -10.309076      -280.5242
   2   2.0000      -1.158171       -31.5154
   3   2.0000      -0.795518       -21.6471
   4   2.0000      -0.621755       -16.9188
   5   2.0000      -0.550730       -14.9861
   6   2.0000      -0.539504       -14.6806
   7   2.0000      -0.432002       -11.7554
   8   2.0000      -0.364579        -9.9207
   9   0.0000       0.088627         2.4117
  10   0.0000       0.113780         3.0961
  11   0.0000       0.155265         4.2250
  12   0.0000       0.173492         4.7210
  13   0.0000       0.198284         5.3956

MULLIKEN ATOMIC CHARGES
-----------------------
   0 C :    0.000000
   1 O :    0.000001
   2 H :   -0.000028
   3 H :   -0.000001
   4 H :   -0.000001
   5 H :    0.000001
   6 C :   -0.152298
   7 O :   -0.458937
   8 H :    0.314887
   9 H :    0.087017
  10 H :    0.119456
  11 H :    0.089902
Sum of atomic charges:   -0.0000000

LOEWDIN ATOMIC CHARGES
----------------------
   0 C :   -0.000007
   1 O :   -0.000019
   2 H :   -0.000016
   3 H :   -0.000000
   4 H :   -0.000000
   5 H :   -0.000000
   6 C :   -0.421643
   7 O :   -0.028980
   8 H :    0.161152
   9 H :    0.092833
  10 H :    0.096993
  11 H :    0.099687

  Mayer bond orders larger than 0.1
B(  6-C ,  7-O ) :   1.0022 B(  6-C ,  9-H ) :   0.9785 B(  6-C , 10-H ) :   0.9710
B(  6-C , 11-H ) :   0.9895 B(  7-O ,  8-H ) :   0.9008

Dispersion correction           -0.000201219
FINAL SINGLE POINT ENERGY      -115.729628970110

DIPOLE MOMENT
-------------
                                X             Y             Z
Electronic contribution:     -0.64233       1.67610      -0.33695
Nuclear contribution   :      0.98692      -2.04339      -0.03616
                        -----------------------------------------
Total Dipole Moment    :      0.34459      -0.36729      -0.37311
                        -----------------------------------------
Magnitude (a.u.)       :      0.62678
Magnitude (Debye)      :      1.59314

Rotational constants in cm-1:     4.283478     0.896305     0.857074
Rotational constants in MHz : 128415.440460 26870.556181 25694.419033

                             ****ORCA TERMINATED NORMALLY****
TOTAL RUN TIME: 0 days 0 hours 1 minutes 3 seconds 363 msec
