                         Program Version 4.1.2  - RELEASE  -
|  1> #Run DFT-D3 single point of the dimer
|  2> ! wB97X-D3 def2-TZVP TIGHTSCF CHELPG PMODEL PAL8
|  3>
|  4> %base "16-7_DFT_AB"
|  5>
|  6> %scf
|  7> MaxIter 1000
|  8> end
|  9>
| 10> * xyz 0 1
| 11>   C                      -3.613576            2.949622             3.934506
| 12>   O                      -3.601508            3.698823             5.159507
| 13>   H                      -2.638820            3.713132             5.390762
| 14>   H                      -2.909974            3.467466             3.239017
| 15>   H                      -3.265800            1.935287             3.994618
| 16>   H                      -4.596142            2.930245             3.440482
| 17>   C                      -8.326062            2.645754             3.193357
| 18>   O                      -9.471380            1.834753             3.573380
| 19>   H                      -9.147680            1.019631             3.952367
| 20>   H                      -8.261319            2.762300             2.108534
| 21>   H                      -8.453512            3.660884             3.527145
| 22>   H                      -7.380208            2.241632             3.505309
| 23> *
| 24>
| 25> #Run DFT-D3 single point of the molecule with dimer basis set
| 26> $new_job
| 27> %base "16-7_DFT_A"
| 28> ! wB97X-D3 def2-TZVP TIGHTSCF CHELPG PMODEL
| 29>
| 30> %scf
| 31> MaxIter 1000
| 32> end
| 33>
| 34> * xyz 0 1
| 35>   C                      -3.613576            2.949622             3.934506
| 36>   O                      -3.601508            3.698823             5.159507
| 37>   H                      -2.638820            3.713132             5.390762
| 38>   H                      -2.909974            3.467466             3.239017
| 39>   H                      -3.265800            1.935287             3.994618
| 40>   H                      -4.596142            2.930245             3.440482
| 41>   C                    : -8.326062            2.645754             3.193357
| 42>   O                    : -9.471380            1.834753             3.573380
| 43>   H                    : -9.147680            1.019631             3.952367
| 44>   H                    : -8.261319            2.762300             2.108534
| 45>   H                    : -8.453512            3.660884             3.527145
| 46>   H                    : -7.380208            2.241632             3.505309
| 47> *
| 48>
| 49> #Run DFT-D3 single point of the particle with dimer basis set
| 50> $new_job
| 51> %base "16-7_DFT_B"
| 52> ! wB97X-D3 def2-TZVP TIGHTSCF CHELPG PMODEL
| 53>
| 54> %scf
| 55> MaxIter 1000
| 56> end
| 57>
| 58> * xyz 0 1
| 59>   C                    : -3.613576            2.949622             3.934506
| 60>   O                    : -3.601508            3.698823             5.159507
| 61>   H                    : -2.638820            3.713132             5.390762
| 62>   H                    : -2.909974            3.467466             3.239017
| 63>   H                    : -3.265800            1.935287             3.994618
| 64>   H                    : -4.596142            2.930245             3.440482
| 65>   C                      -8.326062            2.645754             3.193357
| 66>   O                      -9.471380            1.834753             3.573380
| 67>   H                      -9.147680            1.019631             3.952367
| 68>   H                      -8.261319            2.762300             2.108534
| 69>   H                      -8.453512            3.660884             3.527145
| 70>   H                      -7.380208            2.241632             3.505309
| 71> *
| 72>
| 73>                          ****END OF INPUT****
 Total Charge           Charge          ....    0
 Multiplicity           Mult            ....    1
 Number of Electrons    NEL             ....   36
Dispersion correction           -0.000946426
FINAL SINGLE POINT ENERGY      -231.465704899376
Dispersion correction           -0.000238810
FINAL SINGLE POINT ENERGY      -115.732031813321

CARTESIAN COORDINATES (ANGSTROEM)
---------------------------------
  C     -3.613576    2.949622    3.934506
  O     -3.601508    3.698823    5.159507
  H     -2.638820    3.713132    5.390762
  H     -2.909974    3.467466    3.239017
  H     -3.265800    1.935287    3.994618
  H     -4.596142    2.930245    3.440482
  C     -8.326062    2.645754    3.193357
  O     -9.471380    1.834753    3.573380
  H     -9.147680    1.019631    3.952367
  H     -8.261319    2.762300    2.108534
  H     -8.453512    3.660884    3.527145
  H     -7.380208    2.241632    3.505309

 Multiplicity           Mult            ....    1
 Number of Electrons    NEL             ....   18
 Basis Dimension        Dim             ....  172

ORBITAL ENERGIES
----------------

  NO   OCC          E(Eh)            E(eV)
   0   2.0000     -19.230129      -523.2784
   1   2.0000     -10.312729      -280.6236
   2   2.0000      -1.124947       -30.6114
   3   2.0000      -0.801925       -21.8215
   4   2.0000      -0.607840       -16.5402
   5   2.0000      -0.531129       -14.4527
   6   2.0000      -0.527447       -14.3526
   7   2.0000      -0.441724       -12.0199
   8   2.0000      -0.372992       -10.1496
   9   0.0000       0.081429         2.2158
  10   0.0000       0.116358         3.1663
  11   0.0000       0.139479         3.7954
  12   0.0000       0.170997         4.6531
  13   0.0000       0.184177         5.0117

MULLIKEN ATOMIC CHARGES
-----------------------
   0 C :    0.000415
   1 O :    0.000006
   2 H :    0.000002
   3 H :   -0.000033
   4 H :   -0.000035
   5 H :   -0.000982
   6 C :   -0.167761
   7 O :   -0.481647
   8 H :    0.315266
   9 H :    0.109627
  10 H :    0.117914
  11 H :    0.107229
Sum of atomic charges:   -0.0000000

LOEWDIN ATOMIC CHARGES
----------------------
   0 C :   -0.000442
   1 O :   -0.000004
   2 H :   -0.000000
   3 H :   -0.000002
   4 H :   -0.000007
   5 H :   -0.001378
   6 C :   -0.353150
   7 O :   -0.102058
   8 H :    0.162750
   9 H :    0.099887
  10 H :    0.100490
  11 H :    0.093912

  Mayer bond orders larger than 0.1
B(  6-C ,  7-O ) :   1.0106 B(  6-C ,  9-H ) :   0.9752 B(  6-C , 10-H ) :   0.9774
B(  6-C , 11-H ) :   0.9834 B(  7-O ,  8-H ) :   0.9023

Dispersion correction           -0.000267417
FINAL SINGLE POINT ENERGY      -115.733312240757

DIPOLE MOMENT
-------------
                                X             Y             Z
Electronic contribution:     -1.48669      -0.96061       0.53273
Nuclear contribution   :      2.18802       0.77711      -0.44703
                        -----------------------------------------
Total Dipole Moment    :      0.70133      -0.18350       0.08570
                        -----------------------------------------
Magnitude (a.u.)       :      0.72999
Magnitude (Debye)      :      1.85549

Rotational constants in cm-1:     4.450273     0.794290     0.760982
Rotational constants in MHz : 133415.840220 23812.202231 22813.668261

                             ****ORCA TERMINATED NORMALLY****
TOTAL RUN TIME: 0 days 0 hours 0 minutes 57 seconds 374 msec
