                         Program Version 4.1.2  - RELEASE  -
|  1> #Run DFT-D3 single point of the dimer
|  2> ! wB97X-D3 def2-TZVP TIGHTSCF CHELPG PMODEL PAL8
|  3>
|  4> %base "21-34_DFT_AB"
|  5>
|  6> %scf
|  7> MaxIter 1000
|  8> end
|  9>
| 10> * xyz 0 1
| 11>   C                      2.453454             1.166860             -5.874115
| 12>   O                      3.686145             1.240109             -5.184784
| 13>   H                      3.920853             2.166736             -5.242162
| 14>   H                      1.624176             1.779049             -5.362332
| 15>   H                      2.542419             1.779453             -6.767790
| 16>   H                      2.112095             0.179773             -6.170195
| 17>   C                      6.967380             2.365094             -4.468360
| 18>   O                      6.786280             0.978257             -4.387859
| 19>   H                      5.891313             0.887971             -4.708444
| 20>   H                      7.140251             2.770999             -5.463026
| 21>   H                      6.044840             2.850187             -4.180671
| 22>   H                      7.689173             2.773234             -3.763041
| 23> *
| 24>
| 25> #Run DFT-D3 single point of the molecule with dimer basis set
| 26> $new_job
| 27> %base "21-34_DFT_A"
| 28> ! wB97X-D3 def2-TZVP TIGHTSCF CHELPG PMODEL
| 29>
| 30> %scf
| 31> MaxIter 1000
| 32> end
| 33>
| 34> * xyz 0 1
| 35>   C                      2.453454             1.166860             -5.874115
| 36>   O                      3.686145             1.240109             -5.184784
| 37>   H                      3.920853             2.166736             -5.242162
| 38>   H                      1.624176             1.779049             -5.362332
| 39>   H                      2.542419             1.779453             -6.767790
| 40>   H                      2.112095             0.179773             -6.170195
| 41>   C                    : 6.967380             2.365094             -4.468360
| 42>   O                    : 6.786280             0.978257             -4.387859
| 43>   H                    : 5.891313             0.887971             -4.708444
| 44>   H                    : 7.140251             2.770999             -5.463026
| 45>   H                    : 6.044840             2.850187             -4.180671
| 46>   H                    : 7.689173             2.773234             -3.763041
| 47> *
| 48>
| 49> #Run DFT-D3 single point of the particle with dimer basis set
| 50> $new_job
| 51> %base "21-34_DFT_B"
| 52> ! wB97X-D3 def2-TZVP TIGHTSCF CHELPG PMODEL
| 53>
| 54> %scf
| 55> MaxIter 1000
| 56> end
| 57>
| 58> * xyz 0 1
| 59>   C                    : 2.453454             1.166860             -5.874115
| 60>   O                    : 3.686145             1.240109             -5.184784
| 61>   H                    : 3.920853             2.166736             -5.242162
| 62>   H                    : 1.624176             1.779049             -5.362332
| 63>   H                    : 2.542419             1.779453             -6.767790
| 64>   H                    : 2.112095             0.179773             -6.170195
| 65>   C                      6.967380             2.365094             -4.468360
| 66>   O                      6.786280             0.978257             -4.387859
| 67>   H                      5.891313             0.887971             -4.708444
| 68>   H                      7.140251             2.770999             -5.463026
| 69>   H                      6.044840             2.850187             -4.180671
| 70>   H                      7.689173             2.773234             -3.763041
| 71> *
| 72>
| 73>                          ****END OF INPUT****
 Total Charge           Charge          ....    0
 Multiplicity           Mult            ....    1
 Number of Electrons    NEL             ....   36
Dispersion correction           -0.001599903
FINAL SINGLE POINT ENERGY      -231.464956260365
Dispersion correction           -0.000230652
FINAL SINGLE POINT ENERGY      -115.728676069491

CARTESIAN COORDINATES (ANGSTROEM)
---------------------------------
  C      2.453454    1.166860   -5.874115
  O      3.686145    1.240109   -5.184784
  H      3.920853    2.166736   -5.242162
  H      1.624176    1.779049   -5.362332
  H      2.542419    1.779453   -6.767790
  H      2.112095    0.179773   -6.170195
  C      6.967380    2.365094   -4.468360
  O      6.786280    0.978257   -4.387859
  H      5.891313    0.887971   -4.708444
  H      7.140251    2.770999   -5.463026
  H      6.044840    2.850187   -4.180671
  H      7.689173    2.773234   -3.763041

 Multiplicity           Mult            ....    1
 Number of Electrons    NEL             ....   18
 Basis Dimension        Dim             ....  172

ORBITAL ENERGIES
----------------

  NO   OCC          E(Eh)            E(eV)
   0   2.0000     -19.234275      -523.3912
   1   2.0000     -10.309801      -280.5439
   2   2.0000      -1.147654       -31.2293
   3   2.0000      -0.796117       -21.6635
   4   2.0000      -0.617831       -16.8120
   5   2.0000      -0.543275       -14.7833
   6   2.0000      -0.531084       -14.4515
   7   2.0000      -0.438710       -11.9379
   8   2.0000      -0.375162       -10.2087
   9   0.0000       0.070171         1.9094
  10   0.0000       0.121924         3.3177
  11   0.0000       0.150574         4.0973
  12   0.0000       0.179514         4.8848
  13   0.0000       0.193229         5.2580

MULLIKEN ATOMIC CHARGES
-----------------------
   0 C :   -0.000522
   1 O :   -0.001870
   2 H :    0.000268
   3 H :   -0.000001
   4 H :    0.000013
   5 H :    0.000038
   6 C :   -0.175470
   7 O :   -0.454276
   8 H :    0.314333
   9 H :    0.097681
  10 H :    0.098255
  11 H :    0.121550
Sum of atomic charges:   -0.0000000

LOEWDIN ATOMIC CHARGES
----------------------
   0 C :   -0.000475
   1 O :   -0.007985
   2 H :   -0.003838
   3 H :   -0.000014
   4 H :   -0.000012
   5 H :   -0.000011
   6 C :   -0.398969
   7 O :   -0.056129
   8 H :    0.174074
   9 H :    0.093020
  10 H :    0.093900
  11 H :    0.106439

  Mayer bond orders larger than 0.1
B(  6-C ,  7-O ) :   0.9987 B(  6-C ,  9-H ) :   0.9704 B(  6-C , 10-H ) :   0.9897
B(  6-C , 11-H ) :   0.9736 B(  7-O ,  8-H ) :   0.9112

Dispersion correction           -0.000222165
FINAL SINGLE POINT ENERGY      -115.731366288291

DIPOLE MOMENT
-------------
                                X             Y             Z
Electronic contribution:      0.05403      -1.96245       0.14031
Nuclear contribution   :     -0.56685       2.44247      -0.34839
                        -----------------------------------------
Total Dipole Moment    :     -0.51283       0.48002      -0.20808
                        -----------------------------------------
Magnitude (a.u.)       :      0.73260
Magnitude (Debye)      :      1.86213

Rotational constants in cm-1:     4.418546     0.846013     0.812789
Rotational constants in MHz : 132464.664006 25362.823967 24366.802496

                             ****ORCA TERMINATED NORMALLY****
TOTAL RUN TIME: 0 days 0 hours 1 minutes 2 seconds 675 msec
