                         Program Version 4.1.2  - RELEASE  -
|  1> #Run DFT-D3 single point of the dimer
|  2> ! wB97X-D3 def2-TZVP TIGHTSCF CHELPG PMODEL PAL8
|  3>
|  4> %base "12-45_DFT_AB"
|  5>
|  6> %scf
|  7> MaxIter 1000
|  8> end
|  9>
| 10> * xyz 0 1
| 11>   C                      -2.565252            4.718114             -0.085181
| 12>   O                      -2.001019            4.805665             -1.430314
| 13>   H                      -1.240345            5.338943             -1.221299
| 14>   H                      -1.779562            4.387065             0.613376
| 15>   H                      -2.893558            5.626545             0.347260
| 16>   H                      -3.394099            4.098800             0.009473
| 17>   C                      -0.727275            1.563052             -0.967298
| 18>   O                      0.096966             0.363734             -0.938946
| 19>   H                      0.008853             -0.073685            -1.808591
| 20>   H                      -1.797823            1.336049             -1.111129
| 21>   H                      -0.641607            2.169287             -0.038777
| 22>   H                      -0.399857            2.277220             -1.734787
| 23> *
| 24>
| 25> #Run DFT-D3 single point of the molecule with dimer basis set
| 26> $new_job
| 27> %base "12-45_DFT_A"
| 28> ! wB97X-D3 def2-TZVP TIGHTSCF CHELPG PMODEL
| 29>
| 30> %scf
| 31> MaxIter 1000
| 32> end
| 33>
| 34> * xyz 0 1
| 35>   C                      -2.565252            4.718114             -0.085181
| 36>   O                      -2.001019            4.805665             -1.430314
| 37>   H                      -1.240345            5.338943             -1.221299
| 38>   H                      -1.779562            4.387065             0.613376
| 39>   H                      -2.893558            5.626545             0.347260
| 40>   H                      -3.394099            4.098800             0.009473
| 41>   C                    : -0.727275            1.563052             -0.967298
| 42>   O                    : 0.096966             0.363734             -0.938946
| 43>   H                    : 0.008853             -0.073685            -1.808591
| 44>   H                    : -1.797823            1.336049             -1.111129
| 45>   H                    : -0.641607            2.169287             -0.038777
| 46>   H                    : -0.399857            2.277220             -1.734787
| 47> *
| 48>
| 49> #Run DFT-D3 single point of the particle with dimer basis set
| 50> $new_job
| 51> %base "12-45_DFT_B"
| 52> ! wB97X-D3 def2-TZVP TIGHTSCF CHELPG PMODEL
| 53>
| 54> %scf
| 55> MaxIter 1000
| 56> end
| 57>
| 58> * xyz 0 1
| 59>   C                    : -2.565252            4.718114             -0.085181
| 60>   O                    : -2.001019            4.805665             -1.430314
| 61>   H                    : -1.240345            5.338943             -1.221299
| 62>   H                    : -1.779562            4.387065             0.613376
| 63>   H                    : -2.893558            5.626545             0.347260
| 64>   H                    : -3.394099            4.098800             0.009473
| 65>   C                      -0.727275            1.563052             -0.967298
| 66>   O                      0.096966             0.363734             -0.938946
| 67>   H                      0.008853             -0.073685            -1.808591
| 68>   H                      -1.797823            1.336049             -1.111129
| 69>   H                      -0.641607            2.169287             -0.038777
| 70>   H                      -0.399857            2.277220             -1.734787
| 71> *
| 72>
| 73>                          ****END OF INPUT****
 Total Charge           Charge          ....    0
 Multiplicity           Mult            ....    1
 Number of Electrons    NEL             ....   36
Dispersion correction           -0.001913626
FINAL SINGLE POINT ENERGY      -231.463080481984
Dispersion correction           -0.000233859
FINAL SINGLE POINT ENERGY      -115.727279053207

CARTESIAN COORDINATES (ANGSTROEM)
---------------------------------
  C     -2.565252    4.718114   -0.085181
  O     -2.001019    4.805665   -1.430314
  H     -1.240345    5.338943   -1.221299
  H     -1.779562    4.387065    0.613376
  H     -2.893558    5.626545    0.347260
  H     -3.394099    4.098800    0.009473
  C     -0.727275    1.563052   -0.967298
  O      0.096966    0.363734   -0.938946
  H      0.008853   -0.073685   -1.808591
  H     -1.797823    1.336049   -1.111129
  H     -0.641607    2.169287   -0.038777
  H     -0.399857    2.277220   -1.734787

 Multiplicity           Mult            ....    1
 Number of Electrons    NEL             ....   18
 Basis Dimension        Dim             ....  172

ORBITAL ENERGIES
----------------

  NO   OCC          E(Eh)            E(eV)
   0   2.0000     -19.233825      -523.3790
   1   2.0000     -10.320156      -280.8257
   2   2.0000      -1.121400       -30.5148
   3   2.0000      -0.794487       -21.6191
   4   2.0000      -0.599921       -16.3247
   5   2.0000      -0.538390       -14.6503
   6   2.0000      -0.520213       -14.1557
   7   2.0000      -0.432761       -11.7760
   8   2.0000      -0.376644       -10.2490
   9   0.0000       0.079844         2.1727
  10   0.0000       0.114835         3.1248
  11   0.0000       0.153921         4.1884
  12   0.0000       0.159577         4.3423
  13   0.0000       0.175687         4.7807

MULLIKEN ATOMIC CHARGES
-----------------------
   0 C :    0.001666
   1 O :   -0.000392
   2 H :   -0.000318
   3 H :   -0.001215
   4 H :    0.000006
   5 H :   -0.000325
   6 C :   -0.186574
   7 O :   -0.479135
   8 H :    0.316914
   9 H :    0.110589
  10 H :    0.128235
  11 H :    0.110550
Sum of atomic charges:   -0.0000000

LOEWDIN ATOMIC CHARGES
----------------------
   0 C :   -0.003477
   1 O :   -0.001281
   2 H :   -0.000454
   3 H :   -0.002157
   4 H :   -0.000017
   5 H :   -0.000286
   6 C :   -0.367288
   7 O :   -0.112464
   8 H :    0.176793
   9 H :    0.098131
  10 H :    0.115320
  11 H :    0.097179

  Mayer bond orders larger than 0.1
B(  6-C ,  7-O ) :   0.9994 B(  6-C ,  9-H ) :   0.9713 B(  6-C , 10-H ) :   0.9718
B(  6-C , 11-H ) :   0.9733 B(  7-O ,  8-H ) :   0.8964

Dispersion correction           -0.000273636
FINAL SINGLE POINT ENERGY      -115.733726226655

DIPOLE MOMENT
-------------
                                X             Y             Z
Electronic contribution:      1.08427      -1.55557       0.17677
Nuclear contribution   :     -1.47386       1.79302      -0.72839
                        -----------------------------------------
Total Dipole Moment    :     -0.38960       0.23745      -0.55161
                        -----------------------------------------
Magnitude (a.u.)       :      0.71585
Magnitude (Debye)      :      1.81955

Rotational constants in cm-1:     4.281722     0.781134     0.757064
Rotational constants in MHz : 128362.803249 23417.810073 22696.210214

                             ****ORCA TERMINATED NORMALLY****
TOTAL RUN TIME: 0 days 0 hours 1 minutes 14 seconds 420 msec
