                         Program Version 4.1.2  - RELEASE  -
|  1> #Run DFT-D3 single point of the dimer
|  2> ! wB97X-D3 def2-TZVP TIGHTSCF CHELPG PMODEL PAL8
|  3>
|  4> %base "21-211_DFT_AB"
|  5>
|  6> %scf
|  7> MaxIter 1000
|  8> end
|  9>
| 10> * xyz 0 1
| 11>   C                      1.092669             3.256761             10.282271
| 12>   O                      -0.323301            3.204230             10.477573
| 13>   H                      -0.614453            2.407768             10.082326
| 14>   H                      1.454039             4.279143             10.030922
| 15>   H                      1.616951             2.812471             11.087171
| 16>   H                      1.296782             2.522550             9.503206
| 17>   C                      -2.218287            5.664021             8.630185
| 18>   O                      -0.931570            5.676409             9.243623
| 19>   H                      -0.849726            4.808067             9.689148
| 20>   H                      -2.394326            4.671944             8.191348
| 21>   H                      -3.081464            5.887541             9.282524
| 22>   H                      -2.271306            6.373568             7.844386
| 23> *
| 24>
| 25> #Run DFT-D3 single point of the molecule with dimer basis set
| 26> $new_job
| 27> %base "21-211_DFT_A"
| 28> ! wB97X-D3 def2-TZVP TIGHTSCF CHELPG PMODEL
| 29>
| 30> %scf
| 31> MaxIter 1000
| 32> end
| 33>
| 34> * xyz 0 1
| 35>   C                      1.092669             3.256761             10.282271
| 36>   O                      -0.323301            3.204230             10.477573
| 37>   H                      -0.614453            2.407768             10.082326
| 38>   H                      1.454039             4.279143             10.030922
| 39>   H                      1.616951             2.812471             11.087171
| 40>   H                      1.296782             2.522550             9.503206
| 41>   C                    : -2.218287            5.664021             8.630185
| 42>   O                    : -0.931570            5.676409             9.243623
| 43>   H                    : -0.849726            4.808067             9.689148
| 44>   H                    : -2.394326            4.671944             8.191348
| 45>   H                    : -3.081464            5.887541             9.282524
| 46>   H                    : -2.271306            6.373568             7.844386
| 47> *
| 48>
| 49> #Run DFT-D3 single point of the particle with dimer basis set
| 50> $new_job
| 51> %base "21-211_DFT_B"
| 52> ! wB97X-D3 def2-TZVP TIGHTSCF CHELPG PMODEL
| 53>
| 54> %scf
| 55> MaxIter 1000
| 56> end
| 57>
| 58> * xyz 0 1
| 59>   C                    : 1.092669             3.256761             10.282271
| 60>   O                    : -0.323301            3.204230             10.477573
| 61>   H                    : -0.614453            2.407768             10.082326
| 62>   H                    : 1.454039             4.279143             10.030922
| 63>   H                    : 1.616951             2.812471             11.087171
| 64>   H                    : 1.296782             2.522550             9.503206
| 65>   C                      -2.218287            5.664021             8.630185
| 66>   O                      -0.931570            5.676409             9.243623
| 67>   H                      -0.849726            4.808067             9.689148
| 68>   H                      -2.394326            4.671944             8.191348
| 69>   H                      -3.081464            5.887541             9.282524
| 70>   H                      -2.271306            6.373568             7.844386
| 71> *
| 72>
| 73>                          ****END OF INPUT****
 Total Charge           Charge          ....    0
 Multiplicity           Mult            ....    1
 Number of Electrons    NEL             ....   36
Dispersion correction           -0.001791155
FINAL SINGLE POINT ENERGY      -231.473614669707
Dispersion correction           -0.000228983
FINAL SINGLE POINT ENERGY      -115.729764423397

CARTESIAN COORDINATES (ANGSTROEM)
---------------------------------
  C      1.092669    3.256761   10.282271
  O     -0.323301    3.204230   10.477573
  H     -0.614453    2.407768   10.082326
  H      1.454039    4.279143   10.030922
  H      1.616951    2.812471   11.087171
  H      1.296782    2.522550    9.503206
  C     -2.218287    5.664021    8.630185
  O     -0.931570    5.676409    9.243623
  H     -0.849726    4.808067    9.689148
  H     -2.394326    4.671944    8.191348
  H     -3.081464    5.887541    9.282524
  H     -2.271306    6.373568    7.844386

 Multiplicity           Mult            ....    1
 Number of Electrons    NEL             ....   18
 Basis Dimension        Dim             ....  172

ORBITAL ENERGIES
----------------

  NO   OCC          E(Eh)            E(eV)
   0   2.0000     -19.235510      -523.4248
   1   2.0000     -10.312657      -280.6217
   2   2.0000      -1.132142       -30.8071
   3   2.0000      -0.796591       -21.6763
   4   2.0000      -0.607589       -16.5333
   5   2.0000      -0.538263       -14.6469
   6   2.0000      -0.530370       -14.4321
   7   2.0000      -0.437985       -11.9182
   8   2.0000      -0.375286       -10.2121
   9   0.0000       0.072537         1.9738
  10   0.0000       0.130865         3.5610
  11   0.0000       0.155416         4.2291
  12   0.0000       0.173359         4.7173
  13   0.0000       0.195030         5.3070

MULLIKEN ATOMIC CHARGES
-----------------------
   0 C :   -0.004161
   1 O :   -0.002783
   2 H :   -0.000124
   3 H :   -0.001094
   4 H :   -0.000049
   5 H :    0.000677
   6 C :   -0.165891
   7 O :   -0.465064
   8 H :    0.316234
   9 H :    0.100923
  10 H :    0.101035
  11 H :    0.120297
Sum of atomic charges:   -0.0000000

LOEWDIN ATOMIC CHARGES
----------------------
   0 C :   -0.010584
   1 O :   -0.022956
   2 H :   -0.001594
   3 H :   -0.003109
   4 H :   -0.000180
   5 H :   -0.000169
   6 C :   -0.377819
   7 O :   -0.074206
   8 H :    0.197307
   9 H :    0.097937
  10 H :    0.096630
  11 H :    0.098742

  Mayer bond orders larger than 0.1
B(  6-C ,  7-O ) :   1.0003 B(  6-C ,  9-H ) :   0.9841 B(  6-C , 10-H ) :   0.9697
B(  6-C , 11-H ) :   0.9766 B(  7-O ,  8-H ) :   0.9017

Dispersion correction           -0.000247768
FINAL SINGLE POINT ENERGY      -115.734681065595

DIPOLE MOMENT
-------------
                                X             Y             Z
Electronic contribution:      1.71249       0.23878       0.74944
Nuclear contribution   :     -2.17500      -0.77308      -0.74600
                        -----------------------------------------
Total Dipole Moment    :     -0.46251      -0.53430       0.00344
                        -----------------------------------------
Magnitude (a.u.)       :      0.70668
Magnitude (Debye)      :      1.79624

Rotational constants in cm-1:     4.343116     0.818502     0.788227
Rotational constants in MHz : 130203.336972 24538.071709 23630.461548

                             ****ORCA TERMINATED NORMALLY****
TOTAL RUN TIME: 0 days 0 hours 1 minutes 6 seconds 950 msec
