                         Program Version 4.1.2  - RELEASE  -
|  1> #Run DFT-D3 single point of the dimer
|  2> ! wB97X-D3 def2-TZVP TIGHTSCF CHELPG PMODEL PAL8
|  3>
|  4> %base "11-63_DFT_AB"
|  5>
|  6> %scf
|  7> MaxIter 1000
|  8> end
|  9>
| 10> * xyz 0 1
| 11>   C                      0.029205             -3.305085            5.575801
| 12>   O                      -1.152025            -2.596991            5.492510
| 13>   H                      -0.980307            -2.042697            4.669758
| 14>   H                      0.889800             -2.641096            5.935441
| 15>   H                      -0.058726            -4.169142            6.203153
| 16>   H                      0.260555             -3.587206            4.550461
| 17>   C                      -0.704495            -0.888094            8.540632
| 18>   O                      -0.622797            -1.770370            9.664507
| 19>   H                      -0.366410            -2.662427            9.339516
| 20>   H                      0.180823             -0.908649            7.909095
| 21>   H                      -1.600900            -1.033869            7.949400
| 22>   H                      -0.783568            0.097204             9.030896
| 23> *
| 24>
| 25> #Run DFT-D3 single point of the molecule with dimer basis set
| 26> $new_job
| 27> %base "11-63_DFT_A"
| 28> ! wB97X-D3 def2-TZVP TIGHTSCF CHELPG PMODEL
| 29>
| 30> %scf
| 31> MaxIter 1000
| 32> end
| 33>
| 34> * xyz 0 1
| 35>   C                      0.029205             -3.305085            5.575801
| 36>   O                      -1.152025            -2.596991            5.492510
| 37>   H                      -0.980307            -2.042697            4.669758
| 38>   H                      0.889800             -2.641096            5.935441
| 39>   H                      -0.058726            -4.169142            6.203153
| 40>   H                      0.260555             -3.587206            4.550461
| 41>   C                    : -0.704495            -0.888094            8.540632
| 42>   O                    : -0.622797            -1.770370            9.664507
| 43>   H                    : -0.366410            -2.662427            9.339516
| 44>   H                    : 0.180823             -0.908649            7.909095
| 45>   H                    : -1.600900            -1.033869            7.949400
| 46>   H                    : -0.783568            0.097204             9.030896
| 47> *
| 48>
| 49> #Run DFT-D3 single point of the particle with dimer basis set
| 50> $new_job
| 51> %base "11-63_DFT_B"
| 52> ! wB97X-D3 def2-TZVP TIGHTSCF CHELPG PMODEL
| 53>
| 54> %scf
| 55> MaxIter 1000
| 56> end
| 57>
| 58> * xyz 0 1
| 59>   C                    : 0.029205             -3.305085            5.575801
| 60>   O                    : -1.152025            -2.596991            5.492510
| 61>   H                    : -0.980307            -2.042697            4.669758
| 62>   H                    : 0.889800             -2.641096            5.935441
| 63>   H                    : -0.058726            -4.169142            6.203153
| 64>   H                    : 0.260555             -3.587206            4.550461
| 65>   C                      -0.704495            -0.888094            8.540632
| 66>   O                      -0.622797            -1.770370            9.664507
| 67>   H                      -0.366410            -2.662427            9.339516
| 68>   H                      0.180823             -0.908649            7.909095
| 69>   H                      -1.600900            -1.033869            7.949400
| 70>   H                      -0.783568            0.097204             9.030896
| 71> *
| 72>
| 73>                          ****END OF INPUT****
 Total Charge           Charge          ....    0
 Multiplicity           Mult            ....    1
 Number of Electrons    NEL             ....   36
Dispersion correction           -0.001840598
FINAL SINGLE POINT ENERGY      -231.465404410879
Dispersion correction           -0.000203093
FINAL SINGLE POINT ENERGY      -115.728158011135

CARTESIAN COORDINATES (ANGSTROEM)
---------------------------------
  C      0.029205   -3.305085    5.575801
  O     -1.152025   -2.596991    5.492510
  H     -0.980307   -2.042697    4.669758
  H      0.889800   -2.641096    5.935441
  H     -0.058726   -4.169142    6.203153
  H      0.260555   -3.587206    4.550461
  C     -0.704495   -0.888094    8.540632
  O     -0.622797   -1.770370    9.664507
  H     -0.366410   -2.662427    9.339516
  H      0.180823   -0.908649    7.909095
  H     -1.600900   -1.033869    7.949400
  H     -0.783568    0.097204    9.030896

 Multiplicity           Mult            ....    1
 Number of Electrons    NEL             ....   18
 Basis Dimension        Dim             ....  172

ORBITAL ENERGIES
----------------

  NO   OCC          E(Eh)            E(eV)
   0   2.0000     -19.231188      -523.3072
   1   2.0000     -10.312195      -280.6091
   2   2.0000      -1.125803       -30.6347
   3   2.0000      -0.793811       -21.6007
   4   2.0000      -0.606361       -16.4999
   5   2.0000      -0.542919       -14.7736
   6   2.0000      -0.516378       -14.0514
   7   2.0000      -0.434625       -11.8267
   8   2.0000      -0.375052       -10.2057
   9   0.0000       0.073062         1.9881
  10   0.0000       0.120667         3.2835
  11   0.0000       0.148917         4.0522
  12   0.0000       0.168500         4.5851
  13   0.0000       0.185452         5.0464

MULLIKEN ATOMIC CHARGES
-----------------------
   0 C :    0.001481
   1 O :   -0.000678
   2 H :   -0.000174
   3 H :   -0.000639
   4 H :   -0.000335
   5 H :    0.000128
   6 C :   -0.169774
   7 O :   -0.478364
   8 H :    0.311922
   9 H :    0.107380
  10 H :    0.105861
  11 H :    0.123191
Sum of atomic charges:   -0.0000000

LOEWDIN ATOMIC CHARGES
----------------------
   0 C :   -0.002650
   1 O :   -0.001843
   2 H :   -0.000234
   3 H :   -0.001627
   4 H :   -0.000153
   5 H :   -0.000011
   6 C :   -0.373776
   7 O :   -0.099459
   8 H :    0.177202
   9 H :    0.095014
  10 H :    0.093305
  11 H :    0.114232

  Mayer bond orders larger than 0.1
B(  6-C ,  7-O ) :   0.9985 B(  6-C ,  9-H ) :   0.9734 B(  6-C , 10-H ) :   0.9717
B(  6-C , 11-H ) :   0.9762 B(  7-O ,  8-H ) :   0.8993

Dispersion correction           -0.000251495
FINAL SINGLE POINT ENERGY      -115.735609708060

DIPOLE MOMENT
-------------
                                X             Y             Z
Electronic contribution:      0.08083      -1.05603       1.39291
Nuclear contribution   :      0.05073       0.86358      -2.04316
                        -----------------------------------------
Total Dipole Moment    :      0.13157      -0.19245      -0.65025
                        -----------------------------------------
Magnitude (a.u.)       :      0.69078
Magnitude (Debye)      :      1.75583

Rotational constants in cm-1:     4.229220     0.819233     0.788798
Rotational constants in MHz : 126788.821492 24559.984066 23647.561672

                             ****ORCA TERMINATED NORMALLY****
TOTAL RUN TIME: 0 days 0 hours 1 minutes 10 seconds 626 msec
