                         Program Version 4.1.2  - RELEASE  -
|  1> #Run DFT-D3 single point of the dimer
|  2> ! wB97X-D3 def2-TZVP TIGHTSCF CHELPG PMODEL PAL8
|  3>
|  4> %base "16-52_DFT_AB"
|  5>
|  6> %scf
|  7> MaxIter 1000
|  8> end
|  9>
| 10> * xyz 0 1
| 11>   C                      3.918612             -5.045741            2.896027
| 12>   O                      4.275113             -3.748419            2.773380
| 13>   H                      5.177996             -3.619790            2.820687
| 14>   H                      3.911424             -5.560728            1.980114
| 15>   H                      4.669848             -5.508734            3.468600
| 16>   H                      2.869578             -5.280809            3.312576
| 17>   C                      6.734664             -1.465832            4.134875
| 18>   O                      6.850133             -2.723269            3.574663
| 19>   H                      7.554024             -2.634037            2.919549
| 20>   H                      7.197122             -0.684707            3.440621
| 21>   H                      5.634631             -1.156529            4.236709
| 22>   H                      7.234480             -1.426352            5.052072
| 23> *
| 24>
| 25> #Run DFT-D3 single point of the molecule with dimer basis set
| 26> $new_job
| 27> %base "16-52_DFT_A"
| 28> ! wB97X-D3 def2-TZVP TIGHTSCF CHELPG PMODEL
| 29>
| 30> %scf
| 31> MaxIter 1000
| 32> end
| 33>
| 34> * xyz 0 1
| 35>   C                      3.918612             -5.045741            2.896027
| 36>   O                      4.275113             -3.748419            2.773380
| 37>   H                      5.177996             -3.619790            2.820687
| 38>   H                      3.911424             -5.560728            1.980114
| 39>   H                      4.669848             -5.508734            3.468600
| 40>   H                      2.869578             -5.280809            3.312576
| 41>   C                    : 6.734664             -1.465832            4.134875
| 42>   O                    : 6.850133             -2.723269            3.574663
| 43>   H                    : 7.554024             -2.634037            2.919549
| 44>   H                    : 7.197122             -0.684707            3.440621
| 45>   H                    : 5.634631             -1.156529            4.236709
| 46>   H                    : 7.234480             -1.426352            5.052072
| 47> *
| 48>
| 49> #Run DFT-D3 single point of the particle with dimer basis set
| 50> $new_job
| 51> %base "16-52_DFT_B"
| 52> ! wB97X-D3 def2-TZVP TIGHTSCF CHELPG PMODEL
| 53>
| 54> %scf
| 55> MaxIter 1000
| 56> end
| 57>
| 58> * xyz 0 1
| 59>   C                    : 3.918612             -5.045741            2.896027
| 60>   O                    : 4.275113             -3.748419            2.773380
| 61>   H                    : 5.177996             -3.619790            2.820687
| 62>   H                    : 3.911424             -5.560728            1.980114
| 63>   H                    : 4.669848             -5.508734            3.468600
| 64>   H                    : 2.869578             -5.280809            3.312576
| 65>   C                      6.734664             -1.465832            4.134875
| 66>   O                      6.850133             -2.723269            3.574663
| 67>   H                      7.554024             -2.634037            2.919549
| 68>   H                      7.197122             -0.684707            3.440621
| 69>   H                      5.634631             -1.156529            4.236709
| 70>   H                      7.234480             -1.426352            5.052072
| 71> *
| 72>
| 73>                          ****END OF INPUT****
 Total Charge           Charge          ....    0
 Multiplicity           Mult            ....    1
 Number of Electrons    NEL             ....   36
Dispersion correction           -0.001572102
FINAL SINGLE POINT ENERGY      -231.460026039478
Dispersion correction           -0.000218031
FINAL SINGLE POINT ENERGY      -115.722395343261

CARTESIAN COORDINATES (ANGSTROEM)
---------------------------------
  C      3.918612   -5.045741    2.896027
  O      4.275113   -3.748419    2.773380
  H      5.177996   -3.619790    2.820687
  H      3.911424   -5.560728    1.980114
  H      4.669848   -5.508734    3.468600
  H      2.869578   -5.280809    3.312576
  C      6.734664   -1.465832    4.134875
  O      6.850133   -2.723269    3.574663
  H      7.554024   -2.634037    2.919549
  H      7.197122   -0.684707    3.440621
  H      5.634631   -1.156529    4.236709
  H      7.234480   -1.426352    5.052072

 Multiplicity           Mult            ....    1
 Number of Electrons    NEL             ....   18
 Basis Dimension        Dim             ....  172

ORBITAL ENERGIES
----------------

  NO   OCC          E(Eh)            E(eV)
   0   2.0000     -19.232137      -523.3330
   1   2.0000     -10.315804      -280.7073
   2   2.0000      -1.149406       -31.2769
   3   2.0000      -0.788062       -21.4442
   4   2.0000      -0.615435       -16.7468
   5   2.0000      -0.553556       -15.0630
   6   2.0000      -0.526410       -14.3243
   7   2.0000      -0.426902       -11.6166
   8   2.0000      -0.374852       -10.2002
   9   0.0000       0.098225         2.6728
  10   0.0000       0.116889         3.1807
  11   0.0000       0.155164         4.2222
  12   0.0000       0.180231         4.9043
  13   0.0000       0.206335         5.6146

MULLIKEN ATOMIC CHARGES
-----------------------
   0 C :    0.002437
   1 O :   -0.000195
   2 H :   -0.011893
   3 H :   -0.000176
   4 H :   -0.001587
   5 H :   -0.000020
   6 C :   -0.164003
   7 O :   -0.454002
   8 H :    0.319835
   9 H :    0.090605
  10 H :    0.109014
  11 H :    0.109985
Sum of atomic charges:    0.0000000

LOEWDIN ATOMIC CHARGES
----------------------
   0 C :   -0.001262
   1 O :   -0.005529
   2 H :   -0.035235
   3 H :   -0.000013
   4 H :   -0.000533
   5 H :   -0.000010
   6 C :   -0.412492
   7 O :   -0.022994
   8 H :    0.179435
   9 H :    0.101985
  10 H :    0.112147
  11 H :    0.084500

  Mayer bond orders larger than 0.1
B(  6-C ,  7-O ) :   0.9974 B(  6-C ,  9-H ) :   0.9890 B(  6-C , 10-H ) :   0.9752
B(  6-C , 11-H ) :   0.9700 B(  7-O ,  8-H ) :   0.8963

Dispersion correction           -0.000225845
FINAL SINGLE POINT ENERGY      -115.729889976353

DIPOLE MOMENT
-------------
                                X             Y             Z
Electronic contribution:      0.08385      -1.79639      -0.52424
Nuclear contribution   :      0.34317       2.31545       0.31562
                        -----------------------------------------
Total Dipole Moment    :      0.42702       0.51906      -0.20862
                        -----------------------------------------
Magnitude (a.u.)       :      0.70377
Magnitude (Debye)      :      1.78884

Rotational constants in cm-1:     4.126310     0.866776     0.831627
Rotational constants in MHz : 123703.662408 25985.289231 24931.565189

                             ****ORCA TERMINATED NORMALLY****
TOTAL RUN TIME: 0 days 0 hours 1 minutes 9 seconds 77 msec
