                         Program Version 4.1.2  - RELEASE  -
|  1> #Run DFT-D3 single point of the dimer
|  2> ! wB97X-D3 def2-TZVP TIGHTSCF CHELPG PMODEL PAL8
|  3>
|  4> %base "22-90_DFT_AB"
|  5>
|  6> %scf
|  7> MaxIter 1000
|  8> end
|  9>
| 10> * xyz 0 1
| 11>   C                      2.808889             0.844054             -8.414163
| 12>   O                      2.751306             -0.322919            -7.643315
| 13>   H                      2.321928             -0.062151            -6.767259
| 14>   H                      3.391022             0.885911             -9.374107
| 15>   H                      1.750066             0.987597             -8.760820
| 16>   H                      3.044555             1.683032             -7.747926
| 17>   C                      3.680089             -2.891072            -5.754529
| 18>   O                      4.708801             -2.510868            -4.915442
| 19>   H                      4.904022             -1.557423            -4.987716
| 20>   H                      3.258538             -2.075596            -6.336842
| 21>   H                      3.851655             -3.787714            -6.399860
| 22>   H                      2.863482             -3.084857            -5.079649
| 23> *
| 24>
| 25> #Run DFT-D3 single point of the molecule with dimer basis set
| 26> $new_job
| 27> %base "22-90_DFT_A"
| 28> ! wB97X-D3 def2-TZVP TIGHTSCF CHELPG PMODEL
| 29>
| 30> %scf
| 31> MaxIter 1000
| 32> end
| 33>
| 34> * xyz 0 1
| 35>   C                      2.808889             0.844054             -8.414163
| 36>   O                      2.751306             -0.322919            -7.643315
| 37>   H                      2.321928             -0.062151            -6.767259
| 38>   H                      3.391022             0.885911             -9.374107
| 39>   H                      1.750066             0.987597             -8.760820
| 40>   H                      3.044555             1.683032             -7.747926
| 41>   C                    : 3.680089             -2.891072            -5.754529
| 42>   O                    : 4.708801             -2.510868            -4.915442
| 43>   H                    : 4.904022             -1.557423            -4.987716
| 44>   H                    : 3.258538             -2.075596            -6.336842
| 45>   H                    : 3.851655             -3.787714            -6.399860
| 46>   H                    : 2.863482             -3.084857            -5.079649
| 47> *
| 48>
| 49> #Run DFT-D3 single point of the particle with dimer basis set
| 50> $new_job
| 51> %base "22-90_DFT_B"
| 52> ! wB97X-D3 def2-TZVP TIGHTSCF CHELPG PMODEL
| 53>
| 54> %scf
| 55> MaxIter 1000
| 56> end
| 57>
| 58> * xyz 0 1
| 59>   C                    : 2.808889             0.844054             -8.414163
| 60>   O                    : 2.751306             -0.322919            -7.643315
| 61>   H                    : 2.321928             -0.062151            -6.767259
| 62>   H                    : 3.391022             0.885911             -9.374107
| 63>   H                    : 1.750066             0.987597             -8.760820
| 64>   H                    : 3.044555             1.683032             -7.747926
| 65>   C                      3.680089             -2.891072            -5.754529
| 66>   O                      4.708801             -2.510868            -4.915442
| 67>   H                      4.904022             -1.557423            -4.987716
| 68>   H                      3.258538             -2.075596            -6.336842
| 69>   H                      3.851655             -3.787714            -6.399860
| 70>   H                      2.863482             -3.084857            -5.079649
| 71> *
| 72>
| 73>                          ****END OF INPUT****
 Total Charge           Charge          ....    0
 Multiplicity           Mult            ....    1
 Number of Electrons    NEL             ....   36
Dispersion correction           -0.001419750
FINAL SINGLE POINT ENERGY      -231.452867994697
Dispersion correction           -0.000226306
FINAL SINGLE POINT ENERGY      -115.724066323141

CARTESIAN COORDINATES (ANGSTROEM)
---------------------------------
  C      2.808889    0.844054   -8.414163
  O      2.751306   -0.322919   -7.643315
  H      2.321928   -0.062151   -6.767259
  H      3.391022    0.885911   -9.374107
  H      1.750066    0.987597   -8.760820
  H      3.044555    1.683032   -7.747926
  C      3.680089   -2.891072   -5.754529
  O      4.708801   -2.510868   -4.915442
  H      4.904022   -1.557423   -4.987716
  H      3.258538   -2.075596   -6.336842
  H      3.851655   -3.787714   -6.399860
  H      2.863482   -3.084857   -5.079649

 Multiplicity           Mult            ....    1
 Number of Electrons    NEL             ....   18
 Basis Dimension        Dim             ....  172

ORBITAL ENERGIES
----------------

  NO   OCC          E(Eh)            E(eV)
   0   2.0000     -19.229273      -523.2551
   1   2.0000     -10.308944      -280.5206
   2   2.0000      -1.141494       -31.0616
   3   2.0000      -0.794535       -21.6204
   4   2.0000      -0.619144       -16.8478
   5   2.0000      -0.545110       -14.8332
   6   2.0000      -0.526767       -14.3341
   7   2.0000      -0.426951       -11.6179
   8   2.0000      -0.367283        -9.9943
   9   0.0000       0.076370         2.0781
  10   0.0000       0.117664         3.2018
  11   0.0000       0.150256         4.0887
  12   0.0000       0.174101         4.7375
  13   0.0000       0.185844         5.0571

MULLIKEN ATOMIC CHARGES
-----------------------
   0 C :   -0.000192
   1 O :    0.002856
   2 H :    0.000784
   3 H :   -0.000062
   4 H :   -0.000002
   5 H :   -0.000006
   6 C :   -0.140388
   7 O :   -0.478957
   8 H :    0.322089
   9 H :    0.077789
  10 H :    0.110387
  11 H :    0.105702
Sum of atomic charges:    0.0000000

LOEWDIN ATOMIC CHARGES
----------------------
   0 C :   -0.000804
   1 O :   -0.013131
   2 H :   -0.004440
   3 H :   -0.000027
   4 H :   -0.000026
   5 H :   -0.000024
   6 C :   -0.411144
   7 O :   -0.061768
   8 H :    0.181651
   9 H :    0.104252
  10 H :    0.106793
  11 H :    0.098668

  Mayer bond orders larger than 0.1
B(  6-C ,  7-O ) :   1.0063 B(  6-C ,  9-H ) :   0.9881 B(  6-C , 10-H ) :   0.9694
B(  6-C , 11-H ) :   0.9859 B(  7-O ,  8-H ) :   0.8921

Dispersion correction           -0.000241812
FINAL SINGLE POINT ENERGY      -115.728507690027

DIPOLE MOMENT
-------------
                                X             Y             Z
Electronic contribution:      1.50622       0.35293       1.02967
Nuclear contribution   :     -1.79099       0.15817      -1.39060
                        -----------------------------------------
Total Dipole Moment    :     -0.28477       0.51109      -0.36094
                        -----------------------------------------
Magnitude (a.u.)       :      0.68745
Magnitude (Debye)      :      1.74736

Rotational constants in cm-1:     4.390518     0.856177     0.823162
Rotational constants in MHz : 131624.414616 25667.555492 24677.766495

                             ****ORCA TERMINATED NORMALLY****
TOTAL RUN TIME: 0 days 0 hours 0 minutes 56 seconds 718 msec
