                         Program Version 4.1.2  - RELEASE  -
|  1> #Run DFT-D3 single point of the dimer
|  2> ! wB97X-D3 def2-TZVP TIGHTSCF  CHELPG PAL8
|  3>
|  4> %base "148_charges"
|  5>
|  6> %scf
|  7> MaxIter 1000
|  8> end
|  9> %output
| 10>   Print[ P_Mayer ] 1
| 11>   Print[ P_NatPop ] 1
| 12>   Print[ P_Hirshfeld ] 1
| 13>   Print[ P_Mulliken ] 1
| 14>   Print [ P_Loewdin ] 1
| 15> end
| 16>
| 17> * xyz 0 1
| 18>   C                      11.119324            -6.065437            -9.394500
| 19>   O                      9.991535             -5.417447            -8.810873
| 20>   H                      10.323432            -4.763089            -8.197233
| 21>   H                      11.670771            -6.694737            -8.669204
| 22>   H                      10.838372            -6.558334            -10.338291
| 23>   H                      11.958172            -5.352719            -9.652173
| 24> *
| 25>
| 26>                          ****END OF INPUT****

CARTESIAN COORDINATES (ANGSTROEM)
---------------------------------
  C     11.119324   -6.065437   -9.394500
  O      9.991535   -5.417447   -8.810873
  H     10.323432   -4.763089   -8.197233
  H     11.670771   -6.694737   -8.669204
  H     10.838372   -6.558334  -10.338291
  H     11.958172   -5.352719   -9.652173

 Total Charge           Charge          ....    0
 Multiplicity           Mult            ....    1
 Number of Electrons    NEL             ....   18
 Basis Dimension        Dim             ....   86

ORBITAL ENERGIES
----------------

  NO   OCC          E(Eh)            E(eV)
   0   2.0000     -19.232253      -523.3362
   1   2.0000     -10.321071      -280.8506
   2   2.0000      -1.134952       -30.8836
   3   2.0000      -0.792939       -21.5770
   4   2.0000      -0.614293       -16.7158
   5   2.0000      -0.537755       -14.6330
   6   2.0000      -0.517211       -14.0740
   7   2.0000      -0.439716       -11.9653
   8   2.0000      -0.371354       -10.1051
   9   0.0000       0.113639         3.0923
  10   0.0000       0.152011         4.1364
  11   0.0000       0.193597         5.2681
  12   0.0000       0.204454         5.5635
  13   0.0000       0.230111         6.2616

MULLIKEN ATOMIC CHARGES
-----------------------
   0 C :   -0.176183
   1 O :   -0.469351
   2 H :    0.314709
   3 H :    0.103429
   4 H :    0.128795
   5 H :    0.098601
Sum of atomic charges:    0.0000000

LOEWDIN ATOMIC CHARGES
----------------------
   0 C :   -0.388749
   1 O :   -0.083091
   2 H :    0.166511
   3 H :    0.095879
   4 H :    0.110614
   5 H :    0.098836

  Mayer bond orders larger than 0.1
B(  0-C ,  1-O ) :   0.9998 B(  0-C ,  3-H ) :   0.9695 B(  0-C ,  4-H ) :   0.9714
B(  0-C ,  5-H ) :   0.9767 B(  1-O ,  2-H ) :   0.9003

Dispersion correction           -0.000254707
FINAL SINGLE POINT ENERGY      -115.732277964053

DIPOLE MOMENT
-------------
                                X             Y             Z
Electronic contribution:     -1.69726       0.65577       0.65041
Nuclear contribution   :      2.36180      -0.47754      -0.49821
                        -----------------------------------------
Total Dipole Moment    :      0.66453       0.17822       0.15220
                        -----------------------------------------
Magnitude (a.u.)       :      0.70465
Magnitude (Debye)      :      1.79108

Rotational constants in cm-1:     4.226444     0.817444     0.779022
Rotational constants in MHz : 126705.607076 24506.354113 23354.484757

                             ****ORCA TERMINATED NORMALLY****
TOTAL RUN TIME: 0 days 0 hours 0 minutes 42 seconds 549 msec
