                         Program Version 4.1.2  - RELEASE  -
|  1> #Run DFT-D3 single point of the dimer
|  2> ! wB97X-D3 def2-TZVP TIGHTSCF CHELPG PMODEL PAL8
|  3>
|  4> %base "15-110_DFT_AB"
|  5>
|  6> %scf
|  7> MaxIter 1000
|  8> end
|  9>
| 10> * xyz 0 1
| 11>   C                      3.793136             -2.119971            5.263232
| 12>   O                      4.220589             -3.495471            5.145390
| 13>   H                      3.619160             -3.900213            4.545235
| 14>   H                      3.588674             -1.651833            4.345481
| 15>   H                      2.919482             -2.042182            5.867256
| 16>   H                      4.566814             -1.552746            5.743861
| 17>   C                      2.398260             -5.869834            6.434853
| 18>   O                      2.376605             -6.984504            5.571263
| 19>   H                      3.233743             -7.105075            5.180101
| 20>   H                      1.883316             -5.041345            5.975365
| 21>   H                      1.853889             -6.033390            7.371049
| 22>   H                      3.466878             -5.646524            6.583676
| 23> *
| 24>
| 25> #Run DFT-D3 single point of the molecule with dimer basis set
| 26> $new_job
| 27> %base "15-110_DFT_A"
| 28> ! wB97X-D3 def2-TZVP TIGHTSCF CHELPG PMODEL
| 29>
| 30> %scf
| 31> MaxIter 1000
| 32> end
| 33>
| 34> * xyz 0 1
| 35>   C                      3.793136             -2.119971            5.263232
| 36>   O                      4.220589             -3.495471            5.145390
| 37>   H                      3.619160             -3.900213            4.545235
| 38>   H                      3.588674             -1.651833            4.345481
| 39>   H                      2.919482             -2.042182            5.867256
| 40>   H                      4.566814             -1.552746            5.743861
| 41>   C                    : 2.398260             -5.869834            6.434853
| 42>   O                    : 2.376605             -6.984504            5.571263
| 43>   H                    : 3.233743             -7.105075            5.180101
| 44>   H                    : 1.883316             -5.041345            5.975365
| 45>   H                    : 1.853889             -6.033390            7.371049
| 46>   H                    : 3.466878             -5.646524            6.583676
| 47> *
| 48>
| 49> #Run DFT-D3 single point of the particle with dimer basis set
| 50> $new_job
| 51> %base "15-110_DFT_B"
| 52> ! wB97X-D3 def2-TZVP TIGHTSCF CHELPG PMODEL
| 53>
| 54> %scf
| 55> MaxIter 1000
| 56> end
| 57>
| 58> * xyz 0 1
| 59>   C                    : 3.793136             -2.119971            5.263232
| 60>   O                    : 4.220589             -3.495471            5.145390
| 61>   H                    : 3.619160             -3.900213            4.545235
| 62>   H                    : 3.588674             -1.651833            4.345481
| 63>   H                    : 2.919482             -2.042182            5.867256
| 64>   H                    : 4.566814             -1.552746            5.743861
| 65>   C                      2.398260             -5.869834            6.434853
| 66>   O                      2.376605             -6.984504            5.571263
| 67>   H                      3.233743             -7.105075            5.180101
| 68>   H                      1.883316             -5.041345            5.975365
| 69>   H                      1.853889             -6.033390            7.371049
| 70>   H                      3.466878             -5.646524            6.583676
| 71> *
| 72>
| 73>                          ****END OF INPUT****
 Total Charge           Charge          ....    0
 Multiplicity           Mult            ....    1
 Number of Electrons    NEL             ....   36
Dispersion correction           -0.001854192
FINAL SINGLE POINT ENERGY      -231.468686429650
Dispersion correction           -0.000236627
FINAL SINGLE POINT ENERGY      -115.734622907376

CARTESIAN COORDINATES (ANGSTROEM)
---------------------------------
  C      3.793136   -2.119971    5.263232
  O      4.220589   -3.495471    5.145390
  H      3.619160   -3.900213    4.545235
  H      3.588674   -1.651833    4.345481
  H      2.919482   -2.042182    5.867256
  H      4.566814   -1.552746    5.743861
  C      2.398260   -5.869834    6.434853
  O      2.376605   -6.984504    5.571263
  H      3.233743   -7.105075    5.180101
  H      1.883316   -5.041345    5.975365
  H      1.853889   -6.033390    7.371049
  H      3.466878   -5.646524    6.583676

 Multiplicity           Mult            ....    1
 Number of Electrons    NEL             ....   18
 Basis Dimension        Dim             ....  172

ORBITAL ENERGIES
----------------

  NO   OCC          E(Eh)            E(eV)
   0   2.0000     -19.225021      -523.1394
   1   2.0000     -10.312197      -280.6091
   2   2.0000      -1.137216       -30.9452
   3   2.0000      -0.796088       -21.6627
   4   2.0000      -0.610328       -16.6079
   5   2.0000      -0.544111       -14.8060
   6   2.0000      -0.535327       -14.5670
   7   2.0000      -0.427551       -11.6343
   8   2.0000      -0.370257       -10.0752
   9   0.0000       0.082005         2.2315
  10   0.0000       0.112850         3.0708
  11   0.0000       0.157510         4.2861
  12   0.0000       0.177387         4.8269
  13   0.0000       0.181917         4.9502

MULLIKEN ATOMIC CHARGES
-----------------------
   0 C :   -0.001296
   1 O :   -0.001630
   2 H :    0.001689
   3 H :    0.000062
   4 H :   -0.000298
   5 H :   -0.000027
   6 C :   -0.150045
   7 O :   -0.476674
   8 H :    0.316326
   9 H :    0.101289
  10 H :    0.114066
  11 H :    0.096538
Sum of atomic charges:   -0.0000000

LOEWDIN ATOMIC CHARGES
----------------------
   0 C :   -0.001821
   1 O :   -0.004665
   2 H :   -0.003606
   3 H :   -0.000019
   4 H :   -0.000573
   5 H :   -0.000025
   6 C :   -0.376850
   7 O :   -0.074540
   8 H :    0.162092
   9 H :    0.095090
  10 H :    0.103087
  11 H :    0.101831

  Mayer bond orders larger than 0.1
B(  6-C ,  7-O ) :   1.0074 B(  6-C ,  9-H ) :   0.9770 B(  6-C , 10-H ) :   0.9709
B(  6-C , 11-H ) :   0.9954 B(  7-O ,  8-H ) :   0.9013

Dispersion correction           -0.000233836
FINAL SINGLE POINT ENERGY      -115.732556194807

DIPOLE MOMENT
-------------
                                X             Y             Z
Electronic contribution:     -0.16682      -1.42949      -1.00250
Nuclear contribution   :      0.73285       1.79597       1.09604
                        -----------------------------------------
Total Dipole Moment    :      0.56603       0.36648       0.09353
                        -----------------------------------------
Magnitude (a.u.)       :      0.68077
Magnitude (Debye)      :      1.73038

Rotational constants in cm-1:     4.312176     0.843969     0.805385
Rotational constants in MHz : 129275.794482 25301.563646 24144.844599

                             ****ORCA TERMINATED NORMALLY****
TOTAL RUN TIME: 0 days 0 hours 0 minutes 52 seconds 426 msec
