                         Program Version 4.1.2  - RELEASE  -
|  1> #Run DFT-D3 single point of the dimer
|  2> ! wB97X-D3 def2-TZVP TIGHTSCF CHELPG PMODEL PAL8
|  3>
|  4> %base "12-212_DFT_AB"
|  5>
|  6> %scf
|  7> MaxIter 1000
|  8> end
|  9>
| 10> * xyz 0 1
| 11>   C                      5.209246             -10.120723           -5.701148
| 12>   O                      4.037578             -10.757201           -5.220941
| 13>   H                      3.358062             -10.743566           -5.919133
| 14>   H                      5.900256             -9.825994            -4.963677
| 15>   H                      5.751556             -10.784558           -6.357159
| 16>   H                      4.989983             -9.157232            -6.158616
| 17>   C                      4.774426             -8.100343            -2.462904
| 18>   O                      3.775210             -8.706812            -3.317403
| 19>   H                      3.715647             -9.629430            -3.337274
| 20>   H                      5.720722             -8.688947            -2.542135
| 21>   H                      5.002248             -7.044043            -2.599598
| 22>   H                      4.446611             -8.023833            -1.378385
| 23> *
| 24>
| 25> #Run DFT-D3 single point of the molecule with dimer basis set
| 26> $new_job
| 27> %base "12-212_DFT_A"
| 28> ! wB97X-D3 def2-TZVP TIGHTSCF CHELPG PMODEL
| 29>
| 30> %scf
| 31> MaxIter 1000
| 32> end
| 33>
| 34> * xyz 0 1
| 35>   C                      5.209246             -10.120723           -5.701148
| 36>   O                      4.037578             -10.757201           -5.220941
| 37>   H                      3.358062             -10.743566           -5.919133
| 38>   H                      5.900256             -9.825994            -4.963677
| 39>   H                      5.751556             -10.784558           -6.357159
| 40>   H                      4.989983             -9.157232            -6.158616
| 41>   C                    : 4.774426             -8.100343            -2.462904
| 42>   O                    : 3.775210             -8.706812            -3.317403
| 43>   H                    : 3.715647             -9.629430            -3.337274
| 44>   H                    : 5.720722             -8.688947            -2.542135
| 45>   H                    : 5.002248             -7.044043            -2.599598
| 46>   H                    : 4.446611             -8.023833            -1.378385
| 47> *
| 48>
| 49> #Run DFT-D3 single point of the particle with dimer basis set
| 50> $new_job
| 51> %base "12-212_DFT_B"
| 52> ! wB97X-D3 def2-TZVP TIGHTSCF CHELPG PMODEL
| 53>
| 54> %scf
| 55> MaxIter 1000
| 56> end
| 57>
| 58> * xyz 0 1
| 59>   C                    : 5.209246             -10.120723           -5.701148
| 60>   O                    : 4.037578             -10.757201           -5.220941
| 61>   H                    : 3.358062             -10.743566           -5.919133
| 62>   H                    : 5.900256             -9.825994            -4.963677
| 63>   H                    : 5.751556             -10.784558           -6.357159
| 64>   H                    : 4.989983             -9.157232            -6.158616
| 65>   C                      4.774426             -8.100343            -2.462904
| 66>   O                      3.775210             -8.706812            -3.317403
| 67>   H                      3.715647             -9.629430            -3.337274
| 68>   H                      5.720722             -8.688947            -2.542135
| 69>   H                      5.002248             -7.044043            -2.599598
| 70>   H                      4.446611             -8.023833            -1.378385
| 71> *
| 72>
| 73>                          ****END OF INPUT****
 Total Charge           Charge          ....    0
 Multiplicity           Mult            ....    1
 Number of Electrons    NEL             ....   36
Dispersion correction           -0.002167717
FINAL SINGLE POINT ENERGY      -231.462009960998
Dispersion correction           -0.000243735
FINAL SINGLE POINT ENERGY      -115.732476441963

CARTESIAN COORDINATES (ANGSTROEM)
---------------------------------
  C      5.209246  -10.120723   -5.701148
  O      4.037578  -10.757201   -5.220941
  H      3.358062  -10.743566   -5.919133
  H      5.900256   -9.825994   -4.963677
  H      5.751556  -10.784558   -6.357159
  H      4.989983   -9.157232   -6.158616
  C      4.774426   -8.100343   -2.462904
  O      3.775210   -8.706812   -3.317403
  H      3.715647   -9.629430   -3.337274
  H      5.720722   -8.688947   -2.542135
  H      5.002248   -7.044043   -2.599598
  H      4.446611   -8.023833   -1.378385

 Multiplicity           Mult            ....    1
 Number of Electrons    NEL             ....   18
 Basis Dimension        Dim             ....  172

ORBITAL ENERGIES
----------------

  NO   OCC          E(Eh)            E(eV)
   0   2.0000     -19.227042      -523.1944
   1   2.0000     -10.326795      -281.0064
   2   2.0000      -1.128874       -30.7182
   3   2.0000      -0.803533       -21.8652
   4   2.0000      -0.612463       -16.6660
   5   2.0000      -0.544185       -14.8080
   6   2.0000      -0.519881       -14.1467
   7   2.0000      -0.420393       -11.4395
   8   2.0000      -0.374423       -10.1886
   9   0.0000       0.084579         2.3015
  10   0.0000       0.135136         3.6772
  11   0.0000       0.142784         3.8853
  12   0.0000       0.172339         4.6896
  13   0.0000       0.189883         5.1670

MULLIKEN ATOMIC CHARGES
-----------------------
   0 C :   -0.008476
   1 O :   -0.002696
   2 H :   -0.000581
   3 H :   -0.000572
   4 H :   -0.000664
   5 H :   -0.001093
   6 C :   -0.167932
   7 O :   -0.482230
   8 H :    0.317249
   9 H :    0.110465
  10 H :    0.129956
  11 H :    0.106575
Sum of atomic charges:    0.0000000

LOEWDIN ATOMIC CHARGES
----------------------
   0 C :   -0.017300
   1 O :   -0.011506
   2 H :   -0.000943
   3 H :   -0.003296
   4 H :   -0.000311
   5 H :   -0.002365
   6 C :   -0.363814
   7 O :   -0.061229
   8 H :    0.145752
   9 H :    0.103025
  10 H :    0.108039
  11 H :    0.103947

  Mayer bond orders larger than 0.1
B(  6-C ,  7-O ) :   0.9859 B(  6-C ,  9-H ) :   0.9785 B(  6-C , 10-H ) :   0.9695
B(  6-C , 11-H ) :   0.9738 B(  7-O ,  8-H ) :   0.8980

Dispersion correction           -0.000296314
FINAL SINGLE POINT ENERGY      -115.724621730182

DIPOLE MOMENT
-------------
                                X             Y             Z
Electronic contribution:     -1.29269      -0.64368      -1.21997
Nuclear contribution   :      1.69075       0.32463       1.59008
                        -----------------------------------------
Total Dipole Moment    :      0.39806      -0.31905       0.37010
                        -----------------------------------------
Magnitude (a.u.)       :      0.63026
Magnitude (Debye)      :      1.60198

Rotational constants in cm-1:     4.516241     0.774103     0.752738
Rotational constants in MHz : 135393.502081 23207.017853 22566.521696

                             ****ORCA TERMINATED NORMALLY****
TOTAL RUN TIME: 0 days 0 hours 1 minutes 15 seconds 90 msec
