                         Program Version 4.1.2  - RELEASE  -
|  1> #Run DFT-D3 single point of the dimer
|  2> ! wB97X-D3 def2-TZVP TIGHTSCF CHELPG PMODEL PAL8
|  3>
|  4> %base "11-202_DFT_AB"
|  5>
|  6> %scf
|  7> MaxIter 1000
|  8> end
|  9>
| 10> * xyz 0 1
| 11>   C                      9.367639             -8.678602            0.619427
| 12>   O                      8.593254             -9.207392            -0.476758
| 13>   H                      7.982472             -8.500838            -0.750835
| 14>   H                      9.941304             -9.446459            1.203495
| 15>   H                      10.109017            -7.974802            0.249839
| 16>   H                      8.692363             -8.251948            1.436759
| 17>   C                      5.635893             -6.833822            2.354291
| 18>   O                      6.823807             -6.280611            1.810459
| 19>   H                      6.745220             -6.353284            0.879229
| 20>   H                      5.770594             -7.966270            2.477913
| 21>   H                      5.374123             -6.412915            3.351586
| 22>   H                      4.775735             -6.656951            1.729860
| 23> *
| 24>
| 25> #Run DFT-D3 single point of the molecule with dimer basis set
| 26> $new_job
| 27> %base "11-202_DFT_A"
| 28> ! wB97X-D3 def2-TZVP TIGHTSCF CHELPG PMODEL
| 29>
| 30> %scf
| 31> MaxIter 1000
| 32> end
| 33>
| 34> * xyz 0 1
| 35>   C                      9.367639             -8.678602            0.619427
| 36>   O                      8.593254             -9.207392            -0.476758
| 37>   H                      7.982472             -8.500838            -0.750835
| 38>   H                      9.941304             -9.446459            1.203495
| 39>   H                      10.109017            -7.974802            0.249839
| 40>   H                      8.692363             -8.251948            1.436759
| 41>   C                    : 5.635893             -6.833822            2.354291
| 42>   O                    : 6.823807             -6.280611            1.810459
| 43>   H                    : 6.745220             -6.353284            0.879229
| 44>   H                    : 5.770594             -7.966270            2.477913
| 45>   H                    : 5.374123             -6.412915            3.351586
| 46>   H                    : 4.775735             -6.656951            1.729860
| 47> *
| 48>
| 49> #Run DFT-D3 single point of the particle with dimer basis set
| 50> $new_job
| 51> %base "11-202_DFT_B"
| 52> ! wB97X-D3 def2-TZVP TIGHTSCF CHELPG PMODEL
| 53>
| 54> %scf
| 55> MaxIter 1000
| 56> end
| 57>
| 58> * xyz 0 1
| 59>   C                    : 9.367639             -8.678602            0.619427
| 60>   O                    : 8.593254             -9.207392            -0.476758
| 61>   H                    : 7.982472             -8.500838            -0.750835
| 62>   H                    : 9.941304             -9.446459            1.203495
| 63>   H                    : 10.109017            -7.974802            0.249839
| 64>   H                    : 8.692363             -8.251948            1.436759
| 65>   C                      5.635893             -6.833822            2.354291
| 66>   O                      6.823807             -6.280611            1.810459
| 67>   H                      6.745220             -6.353284            0.879229
| 68>   H                      5.770594             -7.966270            2.477913
| 69>   H                      5.374123             -6.412915            3.351586
| 70>   H                      4.775735             -6.656951            1.729860
| 71> *
| 72>
| 73>                          ****END OF INPUT****
 Total Charge           Charge          ....    0
 Multiplicity           Mult            ....    1
 Number of Electrons    NEL             ....   36
Dispersion correction           -0.001675147
FINAL SINGLE POINT ENERGY      -231.465956385155
Dispersion correction           -0.000266596
FINAL SINGLE POINT ENERGY      -115.731459198488

CARTESIAN COORDINATES (ANGSTROEM)
---------------------------------
  C      9.367639   -8.678602    0.619427
  O      8.593254   -9.207392   -0.476758
  H      7.982472   -8.500838   -0.750835
  H      9.941304   -9.446459    1.203495
  H     10.109017   -7.974802    0.249839
  H      8.692363   -8.251948    1.436759
  C      5.635893   -6.833822    2.354291
  O      6.823807   -6.280611    1.810459
  H      6.745220   -6.353284    0.879229
  H      5.770594   -7.966270    2.477913
  H      5.374123   -6.412915    3.351586
  H      4.775735   -6.656951    1.729860

 Multiplicity           Mult            ....    1
 Number of Electrons    NEL             ....   18
 Basis Dimension        Dim             ....  172

ORBITAL ENERGIES
----------------

  NO   OCC          E(Eh)            E(eV)
   0   2.0000     -19.231242      -523.3087
   1   2.0000     -10.320275      -280.8290
   2   2.0000      -1.142284       -31.0831
   3   2.0000      -0.793733       -21.5986
   4   2.0000      -0.614890       -16.7320
   5   2.0000      -0.536788       -14.6067
   6   2.0000      -0.527647       -14.3580
   7   2.0000      -0.437373       -11.9015
   8   2.0000      -0.374208       -10.1827
   9   0.0000       0.084169         2.2903
  10   0.0000       0.128902         3.5076
  11   0.0000       0.149217         4.0604
  12   0.0000       0.171918         4.6781
  13   0.0000       0.185278         5.0417

MULLIKEN ATOMIC CHARGES
-----------------------
   0 C :   -0.000196
   1 O :    0.000429
   2 H :   -0.001353
   3 H :   -0.000345
   4 H :    0.000195
   5 H :   -0.007403
   6 C :   -0.175775
   7 O :   -0.458112
   8 H :    0.313826
   9 H :    0.100673
  10 H :    0.116629
  11 H :    0.111431
Sum of atomic charges:    0.0000000

LOEWDIN ATOMIC CHARGES
----------------------
   0 C :   -0.003913
   1 O :   -0.000076
   2 H :   -0.001027
   3 H :   -0.000032
   4 H :   -0.000077
   5 H :   -0.007856
   6 C :   -0.387977
   7 O :   -0.059277
   8 H :    0.155680
   9 H :    0.103672
  10 H :    0.109511
  11 H :    0.091372

  Mayer bond orders larger than 0.1
B(  6-C ,  7-O ) :   1.0039 B(  6-C ,  9-H ) :   0.9746 B(  6-C , 10-H ) :   0.9719
B(  6-C , 11-H ) :   0.9784 B(  7-O ,  8-H ) :   0.9040

Dispersion correction           -0.000248179
FINAL SINGLE POINT ENERGY      -115.733886545642

DIPOLE MOMENT
-------------
                                X             Y             Z
Electronic contribution:      1.56916       0.85404      -0.60316
Nuclear contribution   :     -2.11701      -1.07687       0.21290
                        -----------------------------------------
Total Dipole Moment    :     -0.54785      -0.22283      -0.39027
                        -----------------------------------------
Magnitude (a.u.)       :      0.70859
Magnitude (Debye)      :      1.80110

Rotational constants in cm-1:     4.235135     0.819322     0.796847
Rotational constants in MHz : 126966.163861 24562.669236 23888.877365

                             ****ORCA TERMINATED NORMALLY****
TOTAL RUN TIME: 0 days 0 hours 1 minutes 1 seconds 325 msec
