                         Program Version 4.1.2  - RELEASE  -
|  1> #Run DFT-D3 single point of the dimer
|  2> ! wB97X-D3 def2-TZVP TIGHTSCF CHELPG PMODEL PAL8
|  3>
|  4> %base "20-126_DFT_AB"
|  5>
|  6> %scf
|  7> MaxIter 1000
|  8> end
|  9>
| 10> * xyz 0 1
| 11>   C                      -1.761067            5.722091             -2.002277
| 12>   O                      -1.949604            4.450320             -2.319201
| 13>   H                      -2.743328            3.992807             -2.075747
| 14>   H                      -2.692750            6.144057             -1.678658
| 15>   H                      -0.954174            5.871586             -1.341224
| 16>   H                      -1.561292            6.309232             -2.952997
| 17>   C                      1.020687             2.972538             -0.782984
| 18>   O                      0.345693             2.531546             -1.988019
| 19>   H                      -0.473600            3.038289             -2.076340
| 20>   H                      1.187707             2.209235             -0.070315
| 21>   H                      2.030811             3.457052             -0.969221
| 22>   H                      0.326062             3.697414             -0.317371
| 23> *
| 24>
| 25> #Run DFT-D3 single point of the molecule with dimer basis set
| 26> $new_job
| 27> %base "20-126_DFT_A"
| 28> ! wB97X-D3 def2-TZVP TIGHTSCF CHELPG PMODEL
| 29>
| 30> %scf
| 31> MaxIter 1000
| 32> end
| 33>
| 34> * xyz 0 1
| 35>   C                      -1.761067            5.722091             -2.002277
| 36>   O                      -1.949604            4.450320             -2.319201
| 37>   H                      -2.743328            3.992807             -2.075747
| 38>   H                      -2.692750            6.144057             -1.678658
| 39>   H                      -0.954174            5.871586             -1.341224
| 40>   H                      -1.561292            6.309232             -2.952997
| 41>   C                    : 1.020687             2.972538             -0.782984
| 42>   O                    : 0.345693             2.531546             -1.988019
| 43>   H                    : -0.473600            3.038289             -2.076340
| 44>   H                    : 1.187707             2.209235             -0.070315
| 45>   H                    : 2.030811             3.457052             -0.969221
| 46>   H                    : 0.326062             3.697414             -0.317371
| 47> *
| 48>
| 49> #Run DFT-D3 single point of the particle with dimer basis set
| 50> $new_job
| 51> %base "20-126_DFT_B"
| 52> ! wB97X-D3 def2-TZVP TIGHTSCF CHELPG PMODEL
| 53>
| 54> %scf
| 55> MaxIter 1000
| 56> end
| 57>
| 58> * xyz 0 1
| 59>   C                    : -1.761067            5.722091             -2.002277
| 60>   O                    : -1.949604            4.450320             -2.319201
| 61>   H                    : -2.743328            3.992807             -2.075747
| 62>   H                    : -2.692750            6.144057             -1.678658
| 63>   H                    : -0.954174            5.871586             -1.341224
| 64>   H                    : -1.561292            6.309232             -2.952997
| 65>   C                      1.020687             2.972538             -0.782984
| 66>   O                      0.345693             2.531546             -1.988019
| 67>   H                      -0.473600            3.038289             -2.076340
| 68>   H                      1.187707             2.209235             -0.070315
| 69>   H                      2.030811             3.457052             -0.969221
| 70>   H                      0.326062             3.697414             -0.317371
| 71> *
| 72>
| 73>                          ****END OF INPUT****
 Total Charge           Charge          ....    0
 Multiplicity           Mult            ....    1
 Number of Electrons    NEL             ....   36
Dispersion correction           -0.001936103
FINAL SINGLE POINT ENERGY      -231.461968763661
Dispersion correction           -0.000226593
FINAL SINGLE POINT ENERGY      -115.723509757812

CARTESIAN COORDINATES (ANGSTROEM)
---------------------------------
  C     -1.761067    5.722091   -2.002277
  O     -1.949604    4.450320   -2.319201
  H     -2.743328    3.992807   -2.075747
  H     -2.692750    6.144057   -1.678658
  H     -0.954174    5.871586   -1.341224
  H     -1.561292    6.309232   -2.952997
  C      1.020687    2.972538   -0.782984
  O      0.345693    2.531546   -1.988019
  H     -0.473600    3.038289   -2.076340
  H      1.187707    2.209235   -0.070315
  H      2.030811    3.457052   -0.969221
  H      0.326062    3.697414   -0.317371

 Multiplicity           Mult            ....    1
 Number of Electrons    NEL             ....   18
 Basis Dimension        Dim             ....  172

ORBITAL ENERGIES
----------------

  NO   OCC          E(Eh)            E(eV)
   0   2.0000     -19.230998      -523.3021
   1   2.0000     -10.319482      -280.8074
   2   2.0000      -1.124679       -30.6041
   3   2.0000      -0.795844       -21.6560
   4   2.0000      -0.603492       -16.4219
   5   2.0000      -0.536996       -14.6124
   6   2.0000      -0.530087       -14.4244
   7   2.0000      -0.428693       -11.6653
   8   2.0000      -0.376125       -10.2349
   9   0.0000       0.067664         1.8412
  10   0.0000       0.133941         3.6447
  11   0.0000       0.142397         3.8748
  12   0.0000       0.170496         4.6394
  13   0.0000       0.183927         5.0049

MULLIKEN ATOMIC CHARGES
-----------------------
   0 C :   -0.003936
   1 O :   -0.002060
   2 H :   -0.000390
   3 H :    0.000001
   4 H :    0.000907
   5 H :    0.000340
   6 C :   -0.171351
   7 O :   -0.474907
   8 H :    0.315974
   9 H :    0.122546
  10 H :    0.109596
  11 H :    0.103281
Sum of atomic charges:   -0.0000000

LOEWDIN ATOMIC CHARGES
----------------------
   0 C :   -0.004460
   1 O :   -0.014309
   2 H :   -0.001640
   3 H :   -0.000091
   4 H :   -0.001405
   5 H :   -0.000059
   6 C :   -0.357208
   7 O :   -0.099176
   8 H :    0.177180
   9 H :    0.091114
  10 H :    0.108191
  11 H :    0.101862

  Mayer bond orders larger than 0.1
B(  6-C ,  7-O ) :   0.9952 B(  6-C ,  9-H ) :   0.9731 B(  6-C , 10-H ) :   0.9699
B(  6-C , 11-H ) :   0.9910 B(  7-O ,  8-H ) :   0.9078

Dispersion correction           -0.000263145
FINAL SINGLE POINT ENERGY      -115.730380884484

DIPOLE MOMENT
-------------
                                X             Y             Z
Electronic contribution:     -0.68608      -0.74861      -1.53703
Nuclear contribution   :      0.43049       1.24259       2.00207
                        -----------------------------------------
Total Dipole Moment    :     -0.25559       0.49398       0.46504
                        -----------------------------------------
Magnitude (a.u.)       :      0.72498
Magnitude (Debye)      :      1.84276

Rotational constants in cm-1:     4.285485     0.795643     0.765353
Rotational constants in MHz : 128475.600388 23852.768008 22944.707253

                             ****ORCA TERMINATED NORMALLY****
TOTAL RUN TIME: 0 days 0 hours 1 minutes 8 seconds 378 msec
