                         Program Version 4.1.2  - RELEASE  -
|  1> #Run DFT-D3 single point of the dimer
|  2> ! wB97X-D3 def2-TZVP TIGHTSCF CHELPG PMODEL PAL8
|  3>
|  4> %base "14-72_DFT_AB"
|  5>
|  6> %scf
|  7> MaxIter 1000
|  8> end
|  9>
| 10> * xyz 0 1
| 11>   C                      -7.703937            4.864431             7.544231
| 12>   O                      -8.044865            6.226566             7.754114
| 13>   H                      -8.552644            6.657544             7.051836
| 14>   H                      -8.567473            4.275343             7.272627
| 15>   H                      -6.941389            4.675493             6.753926
| 16>   H                      -7.290078            4.411499             8.488377
| 17>   C                      -7.295653            6.882654             11.336733
| 18>   O                      -7.611649            7.595172             10.162655
| 19>   H                      -7.893238            6.961517             9.520003
| 20>   H                      -6.307211            7.133193             11.697630
| 21>   H                      -7.907502            7.253166             12.120447
| 22>   H                      -7.305074            5.754684             11.228086
| 23> *
| 24>
| 25> #Run DFT-D3 single point of the molecule with dimer basis set
| 26> $new_job
| 27> %base "14-72_DFT_A"
| 28> ! wB97X-D3 def2-TZVP TIGHTSCF CHELPG PMODEL
| 29>
| 30> %scf
| 31> MaxIter 1000
| 32> end
| 33>
| 34> * xyz 0 1
| 35>   C                      -7.703937            4.864431             7.544231
| 36>   O                      -8.044865            6.226566             7.754114
| 37>   H                      -8.552644            6.657544             7.051836
| 38>   H                      -8.567473            4.275343             7.272627
| 39>   H                      -6.941389            4.675493             6.753926
| 40>   H                      -7.290078            4.411499             8.488377
| 41>   C                    : -7.295653            6.882654             11.336733
| 42>   O                    : -7.611649            7.595172             10.162655
| 43>   H                    : -7.893238            6.961517             9.520003
| 44>   H                    : -6.307211            7.133193             11.697630
| 45>   H                    : -7.907502            7.253166             12.120447
| 46>   H                    : -7.305074            5.754684             11.228086
| 47> *
| 48>
| 49> #Run DFT-D3 single point of the particle with dimer basis set
| 50> $new_job
| 51> %base "14-72_DFT_B"
| 52> ! wB97X-D3 def2-TZVP TIGHTSCF CHELPG PMODEL
| 53>
| 54> %scf
| 55> MaxIter 1000
| 56> end
| 57>
| 58> * xyz 0 1
| 59>   C                    : -7.703937            4.864431             7.544231
| 60>   O                    : -8.044865            6.226566             7.754114
| 61>   H                    : -8.552644            6.657544             7.051836
| 62>   H                    : -8.567473            4.275343             7.272627
| 63>   H                    : -6.941389            4.675493             6.753926
| 64>   H                    : -7.290078            4.411499             8.488377
| 65>   C                      -7.295653            6.882654             11.336733
| 66>   O                      -7.611649            7.595172             10.162655
| 67>   H                      -7.893238            6.961517             9.520003
| 68>   H                      -6.307211            7.133193             11.697630
| 69>   H                      -7.907502            7.253166             12.120447
| 70>   H                      -7.305074            5.754684             11.228086
| 71> *
| 72>
| 73>                          ****END OF INPUT****
 Total Charge           Charge          ....    0
 Multiplicity           Mult            ....    1
 Number of Electrons    NEL             ....   36
Dispersion correction           -0.001761541
FINAL SINGLE POINT ENERGY      -231.472542186961
Dispersion correction           -0.000279199
FINAL SINGLE POINT ENERGY      -115.733820766729

CARTESIAN COORDINATES (ANGSTROEM)
---------------------------------
  C     -7.703937    4.864431    7.544231
  O     -8.044865    6.226566    7.754114
  H     -8.552644    6.657544    7.051836
  H     -8.567473    4.275343    7.272627
  H     -6.941389    4.675493    6.753926
  H     -7.290078    4.411499    8.488377
  C     -7.295653    6.882654   11.336733
  O     -7.611649    7.595172   10.162655
  H     -7.893238    6.961517    9.520003
  H     -6.307211    7.133193   11.697630
  H     -7.907502    7.253166   12.120447
  H     -7.305074    5.754684   11.228086

 Multiplicity           Mult            ....    1
 Number of Electrons    NEL             ....   18
 Basis Dimension        Dim             ....  172

ORBITAL ENERGIES
----------------

  NO   OCC          E(Eh)            E(eV)
   0   2.0000     -19.229787      -523.2691
   1   2.0000     -10.311760      -280.5972
   2   2.0000      -1.141468       -31.0609
   3   2.0000      -0.798667       -21.7328
   4   2.0000      -0.612525       -16.6677
   5   2.0000      -0.539943       -14.6926
   6   2.0000      -0.531558       -14.4644
   7   2.0000      -0.438480       -11.9316
   8   2.0000      -0.371058       -10.0970
   9   0.0000       0.069499         1.8912
  10   0.0000       0.132961         3.6181
  11   0.0000       0.144835         3.9412
  12   0.0000       0.171767         4.6740
  13   0.0000       0.191638         5.2147

MULLIKEN ATOMIC CHARGES
-----------------------
   0 C :   -0.002516
   1 O :   -0.002315
   2 H :   -0.000213
   3 H :    0.000024
   4 H :    0.000089
   5 H :   -0.000019
   6 C :   -0.168424
   7 O :   -0.460759
   8 H :    0.310058
   9 H :    0.104000
  10 H :    0.115056
  11 H :    0.105020
Sum of atomic charges:   -0.0000000

LOEWDIN ATOMIC CHARGES
----------------------
   0 C :   -0.003965
   1 O :   -0.020780
   2 H :   -0.001150
   3 H :   -0.000073
   4 H :   -0.000067
   5 H :   -0.000759
   6 C :   -0.387511
   7 O :   -0.053139
   8 H :    0.170106
   9 H :    0.097145
  10 H :    0.094177
  11 H :    0.106016

  Mayer bond orders larger than 0.1
B(  6-C ,  7-O ) :   1.0022 B(  6-C ,  9-H ) :   0.9752 B(  6-C , 10-H ) :   0.9845
B(  6-C , 11-H ) :   0.9779 B(  7-O ,  8-H ) :   0.9091

Dispersion correction           -0.000249349
FINAL SINGLE POINT ENERGY      -115.731863459325

DIPOLE MOMENT
-------------
                                X             Y             Z
Electronic contribution:     -0.44484       1.00480      -1.49458
Nuclear contribution   :      0.40091      -1.68068       1.55131
                        -----------------------------------------
Total Dipole Moment    :     -0.04393      -0.67588       0.05673
                        -----------------------------------------
Magnitude (a.u.)       :      0.67968
Magnitude (Debye)      :      1.72761

Rotational constants in cm-1:     4.362746     0.841988     0.798775
Rotational constants in MHz : 130791.819847 25242.155360 23946.672856

                             ****ORCA TERMINATED NORMALLY****
TOTAL RUN TIME: 0 days 0 hours 0 minutes 58 seconds 633 msec
