                         Program Version 4.1.2  - RELEASE  -
|  1> #Run DFT-D3 single point of the dimer
|  2> ! wB97X-D3 def2-TZVP TIGHTSCF CHELPG PMODEL PAL8
|  3>
|  4> %base "17-39_DFT_AB"
|  5>
|  6> %scf
|  7> MaxIter 1000
|  8> end
|  9>
| 10> * xyz 0 1
| 11>   C                      -11.061836           -2.606470            -4.644816
| 12>   O                      -10.141956           -2.658420            -5.709561
| 13>   H                      -9.563849            -3.404879            -5.487740
| 14>   H                      -11.760266           -1.855055            -4.820786
| 15>   H                      -11.555235           -3.625237            -4.519928
| 16>   H                      -10.483612           -2.275485            -3.754695
| 17>   C                      -7.895082            -0.450816            -3.438418
| 18>   O                      -6.790914            -1.236352            -2.968042
| 19>   H                      -6.962837            -1.616194            -2.049960
| 20>   H                      -8.781143            -1.121909            -3.639668
| 21>   H                      -8.113031            0.359831             -2.751344
| 22>   H                      -7.681932            -0.008726            -4.411791
| 23> *
| 24>
| 25> #Run DFT-D3 single point of the molecule with dimer basis set
| 26> $new_job
| 27> %base "17-39_DFT_A"
| 28> ! wB97X-D3 def2-TZVP TIGHTSCF CHELPG PMODEL
| 29>
| 30> %scf
| 31> MaxIter 1000
| 32> end
| 33>
| 34> * xyz 0 1
| 35>   C                      -11.061836           -2.606470            -4.644816
| 36>   O                      -10.141956           -2.658420            -5.709561
| 37>   H                      -9.563849            -3.404879            -5.487740
| 38>   H                      -11.760266           -1.855055            -4.820786
| 39>   H                      -11.555235           -3.625237            -4.519928
| 40>   H                      -10.483612           -2.275485            -3.754695
| 41>   C                    : -7.895082            -0.450816            -3.438418
| 42>   O                    : -6.790914            -1.236352            -2.968042
| 43>   H                    : -6.962837            -1.616194            -2.049960
| 44>   H                    : -8.781143            -1.121909            -3.639668
| 45>   H                    : -8.113031            0.359831             -2.751344
| 46>   H                    : -7.681932            -0.008726            -4.411791
| 47> *
| 48>
| 49> #Run DFT-D3 single point of the particle with dimer basis set
| 50> $new_job
| 51> %base "17-39_DFT_B"
| 52> ! wB97X-D3 def2-TZVP TIGHTSCF CHELPG PMODEL
| 53>
| 54> %scf
| 55> MaxIter 1000
| 56> end
| 57>
| 58> * xyz 0 1
| 59>   C                    : -11.061836           -2.606470            -4.644816
| 60>   O                    : -10.141956           -2.658420            -5.709561
| 61>   H                    : -9.563849            -3.404879            -5.487740
| 62>   H                    : -11.760266           -1.855055            -4.820786
| 63>   H                    : -11.555235           -3.625237            -4.519928
| 64>   H                    : -10.483612           -2.275485            -3.754695
| 65>   C                      -7.895082            -0.450816            -3.438418
| 66>   O                      -6.790914            -1.236352            -2.968042
| 67>   H                      -6.962837            -1.616194            -2.049960
| 68>   H                      -8.781143            -1.121909            -3.639668
| 69>   H                      -8.113031            0.359831             -2.751344
| 70>   H                      -7.681932            -0.008726            -4.411791
| 71> *
| 72>
| 73>                          ****END OF INPUT****
 Total Charge           Charge          ....    0
 Multiplicity           Mult            ....    1
 Number of Electrons    NEL             ....   36
Dispersion correction           -0.001587548
FINAL SINGLE POINT ENERGY      -231.464938615996
Dispersion correction           -0.000213336
FINAL SINGLE POINT ENERGY      -115.731927278934

CARTESIAN COORDINATES (ANGSTROEM)
---------------------------------
  C    -11.061836   -2.606470   -4.644816
  O    -10.141956   -2.658420   -5.709561
  H     -9.563849   -3.404879   -5.487740
  H    -11.760266   -1.855055   -4.820786
  H    -11.555235   -3.625237   -4.519928
  H    -10.483612   -2.275485   -3.754695
  C     -7.895082   -0.450816   -3.438418
  O     -6.790914   -1.236352   -2.968042
  H     -6.962837   -1.616194   -2.049960
  H     -8.781143   -1.121909   -3.639668
  H     -8.113031    0.359831   -2.751344
  H     -7.681932   -0.008726   -4.411791

 Multiplicity           Mult            ....    1
 Number of Electrons    NEL             ....   18
 Basis Dimension        Dim             ....  172

ORBITAL ENERGIES
----------------

  NO   OCC          E(Eh)            E(eV)
   0   2.0000     -19.231450      -523.3143
   1   2.0000     -10.317161      -280.7442
   2   2.0000      -1.117960       -30.4212
   3   2.0000      -0.792097       -21.5540
   4   2.0000      -0.597288       -16.2530
   5   2.0000      -0.542365       -14.7585
   6   2.0000      -0.524868       -14.2824
   7   2.0000      -0.423827       -11.5329
   8   2.0000      -0.372342       -10.1319
   9   0.0000       0.085006         2.3131
  10   0.0000       0.114144         3.1060
  11   0.0000       0.155963         4.2440
  12   0.0000       0.164027         4.4634
  13   0.0000       0.195506         5.3200

MULLIKEN ATOMIC CHARGES
-----------------------
   0 C :   -0.003665
   1 O :    0.000726
   2 H :    0.000250
   3 H :    0.000302
   4 H :   -0.000116
   5 H :    0.003019
   6 C :   -0.149961
   7 O :   -0.496030
   8 H :    0.320477
   9 H :    0.094794
  10 H :    0.111683
  11 H :    0.118519
Sum of atomic charges:   -0.0000000

LOEWDIN ATOMIC CHARGES
----------------------
   0 C :   -0.006924
   1 O :   -0.000846
   2 H :   -0.000292
   3 H :   -0.000162
   4 H :   -0.000072
   5 H :   -0.009127
   6 C :   -0.371662
   7 O :   -0.117217
   8 H :    0.193310
   9 H :    0.110664
  10 H :    0.094085
  11 H :    0.108243

  Mayer bond orders larger than 0.1
B(  6-C ,  7-O ) :   0.9879 B(  6-C ,  9-H ) :   0.9789 B(  6-C , 10-H ) :   0.9779
B(  6-C , 11-H ) :   0.9681 B(  7-O ,  8-H ) :   0.8875

Dispersion correction           -0.000265219
FINAL SINGLE POINT ENERGY      -115.732186886131

DIPOLE MOMENT
-------------
                                X             Y             Z
Electronic contribution:      1.47692      -0.88363       0.50495
Nuclear contribution   :     -2.02687       0.98764      -0.13946
                        -----------------------------------------
Total Dipole Moment    :     -0.54995       0.10401       0.36548
                        -----------------------------------------
Magnitude (a.u.)       :      0.66846
Magnitude (Debye)      :      1.69910

Rotational constants in cm-1:     4.215488     0.799062     0.778904
Rotational constants in MHz : 126377.164935 23955.266502 23350.940537

                             ****ORCA TERMINATED NORMALLY****
TOTAL RUN TIME: 0 days 0 hours 1 minutes 11 seconds 304 msec
