                         Program Version 4.1.2  - RELEASE  -
|  1> #Run DFT-D3 single point of the dimer
|  2> ! wB97X-D3 def2-TZVP TIGHTSCF CHELPG PMODEL PAL8
|  3>
|  4> %base "16-155_DFT_AB"
|  5>
|  6> %scf
|  7> MaxIter 1000
|  8> end
|  9>
| 10> * xyz 0 1
| 11>   C                      2.939771             -2.227790            -3.898580
| 12>   O                      1.598532             -2.364146            -4.278818
| 13>   H                      1.030626             -2.578482            -3.519687
| 14>   H                      3.277107             -1.226841            -3.999841
| 15>   H                      3.127707             -2.535293            -2.947594
| 16>   H                      3.644106             -2.871156            -4.413165
| 17>   C                      -2.101916            -0.279065            -4.788085
| 18>   O                      -1.050809            -0.721957            -5.590494
| 19>   H                      -0.525827            -1.437274            -5.185186
| 20>   H                      -2.636806            -1.236754            -4.606401
| 21>   H                      -1.745714            0.126371             -3.848970
| 22>   H                      -2.700001            0.405300             -5.380022
| 23> *
| 24>
| 25> #Run DFT-D3 single point of the molecule with dimer basis set
| 26> $new_job
| 27> %base "16-155_DFT_A"
| 28> ! wB97X-D3 def2-TZVP TIGHTSCF CHELPG PMODEL
| 29>
| 30> %scf
| 31> MaxIter 1000
| 32> end
| 33>
| 34> * xyz 0 1
| 35>   C                      2.939771             -2.227790            -3.898580
| 36>   O                      1.598532             -2.364146            -4.278818
| 37>   H                      1.030626             -2.578482            -3.519687
| 38>   H                      3.277107             -1.226841            -3.999841
| 39>   H                      3.127707             -2.535293            -2.947594
| 40>   H                      3.644106             -2.871156            -4.413165
| 41>   C                    : -2.101916            -0.279065            -4.788085
| 42>   O                    : -1.050809            -0.721957            -5.590494
| 43>   H                    : -0.525827            -1.437274            -5.185186
| 44>   H                    : -2.636806            -1.236754            -4.606401
| 45>   H                    : -1.745714            0.126371             -3.848970
| 46>   H                    : -2.700001            0.405300             -5.380022
| 47> *
| 48>
| 49> #Run DFT-D3 single point of the particle with dimer basis set
| 50> $new_job
| 51> %base "16-155_DFT_B"
| 52> ! wB97X-D3 def2-TZVP TIGHTSCF CHELPG PMODEL
| 53>
| 54> %scf
| 55> MaxIter 1000
| 56> end
| 57>
| 58> * xyz 0 1
| 59>   C                    : 2.939771             -2.227790            -3.898580
| 60>   O                    : 1.598532             -2.364146            -4.278818
| 61>   H                    : 1.030626             -2.578482            -3.519687
| 62>   H                    : 3.277107             -1.226841            -3.999841
| 63>   H                    : 3.127707             -2.535293            -2.947594
| 64>   H                    : 3.644106             -2.871156            -4.413165
| 65>   C                      -2.101916            -0.279065            -4.788085
| 66>   O                      -1.050809            -0.721957            -5.590494
| 67>   H                      -0.525827            -1.437274            -5.185186
| 68>   H                      -2.636806            -1.236754            -4.606401
| 69>   H                      -1.745714            0.126371             -3.848970
| 70>   H                      -2.700001            0.405300             -5.380022
| 71> *
| 72>
| 73>                          ****END OF INPUT****
 Total Charge           Charge          ....    0
 Multiplicity           Mult            ....    1
 Number of Electrons    NEL             ....   36
Dispersion correction           -0.001234000
FINAL SINGLE POINT ENERGY      -231.460339154324
Dispersion correction           -0.000245648
FINAL SINGLE POINT ENERGY      -115.727482151261

CARTESIAN COORDINATES (ANGSTROEM)
---------------------------------
  C      2.939771   -2.227790   -3.898580
  O      1.598532   -2.364146   -4.278818
  H      1.030626   -2.578482   -3.519687
  H      3.277107   -1.226841   -3.999841
  H      3.127707   -2.535293   -2.947594
  H      3.644106   -2.871156   -4.413165
  C     -2.101916   -0.279065   -4.788085
  O     -1.050809   -0.721957   -5.590494
  H     -0.525827   -1.437274   -5.185186
  H     -2.636806   -1.236754   -4.606401
  H     -1.745714    0.126371   -3.848970
  H     -2.700001    0.405300   -5.380022

 Multiplicity           Mult            ....    1
 Number of Electrons    NEL             ....   18
 Basis Dimension        Dim             ....  172

ORBITAL ENERGIES
----------------

  NO   OCC          E(Eh)            E(eV)
   0   2.0000     -19.222359      -523.0670
   1   2.0000     -10.311610      -280.5932
   2   2.0000      -1.134215       -30.8636
   3   2.0000      -0.792664       -21.5695
   4   2.0000      -0.608826       -16.5670
   5   2.0000      -0.546312       -14.8659
   6   2.0000      -0.535304       -14.5664
   7   2.0000      -0.423146       -11.5144
   8   2.0000      -0.364365        -9.9149
   9   0.0000       0.073844         2.0094
  10   0.0000       0.118028         3.2117
  11   0.0000       0.156489         4.2583
  12   0.0000       0.180306         4.9064
  13   0.0000       0.195275         5.3137

MULLIKEN ATOMIC CHARGES
-----------------------
   0 C :   -0.000131
   1 O :   -0.000655
   2 H :   -0.001105
   3 H :   -0.000068
   4 H :   -0.000000
   5 H :    0.000011
   6 C :   -0.136295
   7 O :   -0.488831
   8 H :    0.314709
   9 H :    0.097609
  10 H :    0.094752
  11 H :    0.120005
Sum of atomic charges:    0.0000000

LOEWDIN ATOMIC CHARGES
----------------------
   0 C :   -0.000397
   1 O :   -0.004715
   2 H :   -0.001924
   3 H :   -0.000040
   4 H :   -0.000008
   5 H :   -0.000008
   6 C :   -0.389478
   7 O :   -0.078774
   8 H :    0.176052
   9 H :    0.101669
  10 H :    0.089945
  11 H :    0.107679

  Mayer bond orders larger than 0.1
B(  6-C ,  7-O ) :   0.9826 B(  6-C ,  9-H ) :   0.9993 B(  6-C , 10-H ) :   0.9683
B(  6-C , 11-H ) :   0.9697 B(  7-O ,  8-H ) :   0.8968

Dispersion correction           -0.000213879
FINAL SINGLE POINT ENERGY      -115.730421656504

DIPOLE MOMENT
-------------
                                X             Y             Z
Electronic contribution:      1.22284      -0.26530      -1.03433
Nuclear contribution   :     -1.30659      -0.01445       1.60559
                        -----------------------------------------
Total Dipole Moment    :     -0.08375      -0.27975       0.57126
                        -----------------------------------------
Magnitude (a.u.)       :      0.64157
Magnitude (Debye)      :      1.63075

Rotational constants in cm-1:     4.188843     0.862307     0.828721
Rotational constants in MHz : 125578.351840 25851.305613 24844.420649

                             ****ORCA TERMINATED NORMALLY****
TOTAL RUN TIME: 0 days 0 hours 0 minutes 54 seconds 260 msec
