                         Program Version 4.1.2  - RELEASE  -
|  1> #Run DFT-D3 single point of the dimer
|  2> ! wB97X-D3 def2-TZVP TIGHTSCF CHELPG PMODEL PAL8
|  3>
|  4> %base "20-82_DFT_AB"
|  5>
|  6> %scf
|  7> MaxIter 1000
|  8> end
|  9>
| 10> * xyz 0 1
| 11>   C                      -2.839955            -3.953407            -0.078150
| 12>   O                      -2.008247            -2.946951            0.371114
| 13>   H                      -2.187683            -2.219467            -0.178250
| 14>   H                      -3.058394            -3.772306            -1.120352
| 15>   H                      -2.431864            -4.948480            0.016022
| 16>   H                      -3.792097            -3.920621            0.402216
| 17>   C                      1.972360             -3.242380            -2.291110
| 18>   O                      0.886188             -3.726054            -3.031860
| 19>   H                      0.164085             -3.641322            -2.396645
| 20>   H                      1.793747             -2.285866            -1.788684
| 21>   H                      2.331288             -3.957920            -1.507135
| 22>   H                      2.874275             -3.131901            -2.845409
| 23> *
| 24>
| 25> #Run DFT-D3 single point of the molecule with dimer basis set
| 26> $new_job
| 27> %base "20-82_DFT_A"
| 28> ! wB97X-D3 def2-TZVP TIGHTSCF CHELPG PMODEL
| 29>
| 30> %scf
| 31> MaxIter 1000
| 32> end
| 33>
| 34> * xyz 0 1
| 35>   C                      -2.839955            -3.953407            -0.078150
| 36>   O                      -2.008247            -2.946951            0.371114
| 37>   H                      -2.187683            -2.219467            -0.178250
| 38>   H                      -3.058394            -3.772306            -1.120352
| 39>   H                      -2.431864            -4.948480            0.016022
| 40>   H                      -3.792097            -3.920621            0.402216
| 41>   C                    : 1.972360             -3.242380            -2.291110
| 42>   O                    : 0.886188             -3.726054            -3.031860
| 43>   H                    : 0.164085             -3.641322            -2.396645
| 44>   H                    : 1.793747             -2.285866            -1.788684
| 45>   H                    : 2.331288             -3.957920            -1.507135
| 46>   H                    : 2.874275             -3.131901            -2.845409
| 47> *
| 48>
| 49> #Run DFT-D3 single point of the particle with dimer basis set
| 50> $new_job
| 51> %base "20-82_DFT_B"
| 52> ! wB97X-D3 def2-TZVP TIGHTSCF CHELPG PMODEL
| 53>
| 54> %scf
| 55> MaxIter 1000
| 56> end
| 57>
| 58> * xyz 0 1
| 59>   C                    : -2.839955            -3.953407            -0.078150
| 60>   O                    : -2.008247            -2.946951            0.371114
| 61>   H                    : -2.187683            -2.219467            -0.178250
| 62>   H                    : -3.058394            -3.772306            -1.120352
| 63>   H                    : -2.431864            -4.948480            0.016022
| 64>   H                    : -3.792097            -3.920621            0.402216
| 65>   C                      1.972360             -3.242380            -2.291110
| 66>   O                      0.886188             -3.726054            -3.031860
| 67>   H                      0.164085             -3.641322            -2.396645
| 68>   H                      1.793747             -2.285866            -1.788684
| 69>   H                      2.331288             -3.957920            -1.507135
| 70>   H                      2.874275             -3.131901            -2.845409
| 71> *
| 72>
| 73>                          ****END OF INPUT****
 Total Charge           Charge          ....    0
 Multiplicity           Mult            ....    1
 Number of Electrons    NEL             ....   36
Dispersion correction           -0.000986345
FINAL SINGLE POINT ENERGY      -231.465515552970
Dispersion correction           -0.000207890
FINAL SINGLE POINT ENERGY      -115.731918905470

CARTESIAN COORDINATES (ANGSTROEM)
---------------------------------
  C     -2.839955   -3.953407   -0.078150
  O     -2.008247   -2.946951    0.371114
  H     -2.187683   -2.219467   -0.178250
  H     -3.058394   -3.772306   -1.120352
  H     -2.431864   -4.948480    0.016022
  H     -3.792097   -3.920621    0.402216
  C      1.972360   -3.242380   -2.291110
  O      0.886188   -3.726054   -3.031860
  H      0.164085   -3.641322   -2.396645
  H      1.793747   -2.285866   -1.788684
  H      2.331288   -3.957920   -1.507135
  H      2.874275   -3.131901   -2.845409

 Multiplicity           Mult            ....    1
 Number of Electrons    NEL             ....   18
 Basis Dimension        Dim             ....  172

ORBITAL ENERGIES
----------------

  NO   OCC          E(Eh)            E(eV)
   0   2.0000     -19.237064      -523.4671
   1   2.0000     -10.311497      -280.5901
   2   2.0000      -1.145656       -31.1749
   3   2.0000      -0.795553       -21.6481
   4   2.0000      -0.613208       -16.6863
   5   2.0000      -0.541650       -14.7390
   6   2.0000      -0.531384       -14.4597
   7   2.0000      -0.439639       -11.9632
   8   2.0000      -0.374200       -10.1825
   9   0.0000       0.069164         1.8820
  10   0.0000       0.123806         3.3689
  11   0.0000       0.150721         4.1013
  12   0.0000       0.162609         4.4248
  13   0.0000       0.190047         5.1714

MULLIKEN ATOMIC CHARGES
-----------------------
   0 C :   -0.000393
   1 O :    0.000001
   2 H :   -0.000063
   3 H :    0.000004
   4 H :    0.000039
   5 H :   -0.000011
   6 C :   -0.181371
   7 O :   -0.457109
   8 H :    0.318628
   9 H :    0.103398
  10 H :    0.095374
  11 H :    0.121504
Sum of atomic charges:   -0.0000000

LOEWDIN ATOMIC CHARGES
----------------------
   0 C :   -0.000574
   1 O :   -0.000081
   2 H :   -0.000105
   3 H :   -0.000112
   4 H :   -0.000038
   5 H :   -0.000014
   6 C :   -0.408964
   7 O :   -0.063103
   8 H :    0.179227
   9 H :    0.094752
  10 H :    0.097929
  11 H :    0.101085

  Mayer bond orders larger than 0.1
B(  6-C ,  7-O ) :   1.0062 B(  6-C ,  9-H ) :   0.9771 B(  6-C , 10-H ) :   0.9742
B(  6-C , 11-H ) :   0.9747 B(  7-O ,  8-H ) :   0.9010

Dispersion correction           -0.000236821
FINAL SINGLE POINT ENERGY      -115.732254357988

DIPOLE MOMENT
-------------
                                X             Y             Z
Electronic contribution:     -1.45319      -0.62121      -1.24517
Nuclear contribution   :      1.43209       0.86379       1.89608
                        -----------------------------------------
Total Dipole Moment    :     -0.02110       0.24258       0.65091
                        -----------------------------------------
Magnitude (a.u.)       :      0.69496
Magnitude (Debye)      :      1.76646

Rotational constants in cm-1:     4.398267     0.836789     0.807690
Rotational constants in MHz : 131856.716097 25086.308483 24213.926377

                             ****ORCA TERMINATED NORMALLY****
TOTAL RUN TIME: 0 days 0 hours 0 minutes 56 seconds 262 msec
