                         Program Version 4.1.2  - RELEASE  -
|  1> #Run DFT-D3 single point of the dimer
|  2> ! wB97X-D3 def2-TZVP TIGHTSCF CHELPG PMODEL PAL8
|  3>
|  4> %base "18-123_DFT_AB"
|  5>
|  6> %scf
|  7> MaxIter 1000
|  8> end
|  9>
| 10> * xyz 0 1
| 11>   C                      -2.094311            2.283453             2.567803
| 12>   O                      -2.206315            1.869918             1.194003
| 13>   H                      -3.161988            1.826491             1.108694
| 14>   H                      -2.770650            1.809254             3.256604
| 15>   H                      -1.121342            2.272797             2.978147
| 16>   H                      -2.354916            3.318122             2.580382
| 17>   C                      -3.115504            7.001241             2.301586
| 18>   O                      -3.053146            6.462424             0.964257
| 19>   H                      -2.899011            7.214064             0.348305
| 20>   H                      -3.798502            7.837995             2.319530
| 21>   H                      -3.430143            6.398298             3.171585
| 22>   H                      -2.108414            7.378747             2.531896
| 23> *
| 24>
| 25> #Run DFT-D3 single point of the molecule with dimer basis set
| 26> $new_job
| 27> %base "18-123_DFT_A"
| 28> ! wB97X-D3 def2-TZVP TIGHTSCF CHELPG PMODEL
| 29>
| 30> %scf
| 31> MaxIter 1000
| 32> end
| 33>
| 34> * xyz 0 1
| 35>   C                      -2.094311            2.283453             2.567803
| 36>   O                      -2.206315            1.869918             1.194003
| 37>   H                      -3.161988            1.826491             1.108694
| 38>   H                      -2.770650            1.809254             3.256604
| 39>   H                      -1.121342            2.272797             2.978147
| 40>   H                      -2.354916            3.318122             2.580382
| 41>   C                    : -3.115504            7.001241             2.301586
| 42>   O                    : -3.053146            6.462424             0.964257
| 43>   H                    : -2.899011            7.214064             0.348305
| 44>   H                    : -3.798502            7.837995             2.319530
| 45>   H                    : -3.430143            6.398298             3.171585
| 46>   H                    : -2.108414            7.378747             2.531896
| 47> *
| 48>
| 49> #Run DFT-D3 single point of the particle with dimer basis set
| 50> $new_job
| 51> %base "18-123_DFT_B"
| 52> ! wB97X-D3 def2-TZVP TIGHTSCF CHELPG PMODEL
| 53>
| 54> %scf
| 55> MaxIter 1000
| 56> end
| 57>
| 58> * xyz 0 1
| 59>   C                    : -2.094311            2.283453             2.567803
| 60>   O                    : -2.206315            1.869918             1.194003
| 61>   H                    : -3.161988            1.826491             1.108694
| 62>   H                    : -2.770650            1.809254             3.256604
| 63>   H                    : -1.121342            2.272797             2.978147
| 64>   H                    : -2.354916            3.318122             2.580382
| 65>   C                      -3.115504            7.001241             2.301586
| 66>   O                      -3.053146            6.462424             0.964257
| 67>   H                      -2.899011            7.214064             0.348305
| 68>   H                      -3.798502            7.837995             2.319530
| 69>   H                      -3.430143            6.398298             3.171585
| 70>   H                      -2.108414            7.378747             2.531896
| 71> *
| 72>
| 73>                          ****END OF INPUT****
 Total Charge           Charge          ....    0
 Multiplicity           Mult            ....    1
 Number of Electrons    NEL             ....   36
Dispersion correction           -0.000966499
FINAL SINGLE POINT ENERGY      -231.457113971991
Dispersion correction           -0.000222008
FINAL SINGLE POINT ENERGY      -115.729075561305

CARTESIAN COORDINATES (ANGSTROEM)
---------------------------------
  C     -2.094311    2.283453    2.567803
  O     -2.206315    1.869918    1.194003
  H     -3.161988    1.826491    1.108694
  H     -2.770650    1.809254    3.256604
  H     -1.121342    2.272797    2.978147
  H     -2.354916    3.318122    2.580382
  C     -3.115504    7.001241    2.301586
  O     -3.053146    6.462424    0.964257
  H     -2.899011    7.214064    0.348305
  H     -3.798502    7.837995    2.319530
  H     -3.430143    6.398298    3.171585
  H     -2.108414    7.378747    2.531896

 Multiplicity           Mult            ....    1
 Number of Electrons    NEL             ....   18
 Basis Dimension        Dim             ....  172

ORBITAL ENERGIES
----------------

  NO   OCC          E(Eh)            E(eV)
   0   2.0000     -19.231778      -523.3233
   1   2.0000     -10.316821      -280.7350
   2   2.0000      -1.123279       -30.5660
   3   2.0000      -0.795572       -21.6486
   4   2.0000      -0.600851       -16.3500
   5   2.0000      -0.540161       -14.6985
   6   2.0000      -0.530357       -14.4317
   7   2.0000      -0.427331       -11.6283
   8   2.0000      -0.371991       -10.1224
   9   0.0000       0.093919         2.5557
  10   0.0000       0.114208         3.1078
  11   0.0000       0.145186         3.9507
  12   0.0000       0.175915         4.7869
  13   0.0000       0.193541         5.2665

MULLIKEN ATOMIC CHARGES
-----------------------
   0 C :   -0.000454
   1 O :    0.000014
   2 H :   -0.000051
   3 H :    0.000009
   4 H :    0.000040
   5 H :    0.000269
   6 C :   -0.178996
   7 O :   -0.483255
   8 H :    0.319962
   9 H :    0.109141
  10 H :    0.129869
  11 H :    0.103452
Sum of atomic charges:    0.0000000

LOEWDIN ATOMIC CHARGES
----------------------
   0 C :   -0.000282
   1 O :   -0.000019
   2 H :   -0.000032
   3 H :   -0.000005
   4 H :   -0.000003
   5 H :   -0.000411
   6 C :   -0.371917
   7 O :   -0.112792
   8 H :    0.183981
   9 H :    0.092388
  10 H :    0.111992
  11 H :    0.097099

  Mayer bond orders larger than 0.1
B(  6-C ,  7-O ) :   0.9811 B(  6-C ,  9-H ) :   0.9810 B(  6-C , 10-H ) :   0.9673
B(  6-C , 11-H ) :   0.9847 B(  7-O ,  8-H ) :   0.8922

Dispersion correction           -0.000249049
FINAL SINGLE POINT ENERGY      -115.727631737206

DIPOLE MOMENT
-------------
                                X             Y             Z
Electronic contribution:     -0.01470      -0.97609      -1.62890
Nuclear contribution   :      0.06881       1.68114       1.81152
                        -----------------------------------------
Total Dipole Moment    :      0.05412       0.70505       0.18261
                        -----------------------------------------
Magnitude (a.u.)       :      0.73032
Magnitude (Debye)      :      1.85634

Rotational constants in cm-1:     4.400264     0.793016     0.768638
Rotational constants in MHz : 131916.583156 23774.026325 23043.185147

                             ****ORCA TERMINATED NORMALLY****
TOTAL RUN TIME: 0 days 0 hours 1 minutes 5 seconds 969 msec
