                         Program Version 4.1.2  - RELEASE  -
|  1> #Run DFT-D3 single point of the dimer
|  2> ! wB97X-D3 def2-TZVP TIGHTSCF CHELPG PMODEL PAL8
|  3>
|  4> %base "9-72_DFT_AB"
|  5>
|  6> %scf
|  7> MaxIter 1000
|  8> end
|  9>
| 10> * xyz 0 1
| 11>   C                      -6.988085            5.917320             -1.756806
| 12>   O                      -5.841079            5.346315             -1.198149
| 13>   H                      -6.238028            4.725105             -0.596400
| 14>   H                      -7.469596            5.138823             -2.402609
| 15>   H                      -7.670168            6.304700             -1.043612
| 16>   H                      -6.732474            6.712058             -2.340388
| 17>   C                      -3.049772            3.971039             1.999479
| 18>   O                      -4.150856            4.440409             2.744925
| 19>   H                      -4.224266            5.375310             2.680488
| 20>   H                      -3.204653            2.957929             1.505377
| 21>   H                      -2.924149            4.441856             1.049381
| 22>   H                      -2.092798            4.019810             2.500846
| 23> *
| 24>
| 25> #Run DFT-D3 single point of the molecule with dimer basis set
| 26> $new_job
| 27> %base "9-72_DFT_A"
| 28> ! wB97X-D3 def2-TZVP TIGHTSCF CHELPG PMODEL
| 29>
| 30> %scf
| 31> MaxIter 1000
| 32> end
| 33>
| 34> * xyz 0 1
| 35>   C                      -6.988085            5.917320             -1.756806
| 36>   O                      -5.841079            5.346315             -1.198149
| 37>   H                      -6.238028            4.725105             -0.596400
| 38>   H                      -7.469596            5.138823             -2.402609
| 39>   H                      -7.670168            6.304700             -1.043612
| 40>   H                      -6.732474            6.712058             -2.340388
| 41>   C                    : -3.049772            3.971039             1.999479
| 42>   O                    : -4.150856            4.440409             2.744925
| 43>   H                    : -4.224266            5.375310             2.680488
| 44>   H                    : -3.204653            2.957929             1.505377
| 45>   H                    : -2.924149            4.441856             1.049381
| 46>   H                    : -2.092798            4.019810             2.500846
| 47> *
| 48>
| 49> #Run DFT-D3 single point of the particle with dimer basis set
| 50> $new_job
| 51> %base "9-72_DFT_B"
| 52> ! wB97X-D3 def2-TZVP TIGHTSCF CHELPG PMODEL
| 53>
| 54> %scf
| 55> MaxIter 1000
| 56> end
| 57>
| 58> * xyz 0 1
| 59>   C                    : -6.988085            5.917320             -1.756806
| 60>   O                    : -5.841079            5.346315             -1.198149
| 61>   H                    : -6.238028            4.725105             -0.596400
| 62>   H                    : -7.469596            5.138823             -2.402609
| 63>   H                    : -7.670168            6.304700             -1.043612
| 64>   H                    : -6.732474            6.712058             -2.340388
| 65>   C                      -3.049772            3.971039             1.999479
| 66>   O                      -4.150856            4.440409             2.744925
| 67>   H                      -4.224266            5.375310             2.680488
| 68>   H                      -3.204653            2.957929             1.505377
| 69>   H                      -2.924149            4.441856             1.049381
| 70>   H                      -2.092798            4.019810             2.500846
| 71> *
| 72>
| 73>                          ****END OF INPUT****
 Total Charge           Charge          ....    0
 Multiplicity           Mult            ....    1
 Number of Electrons    NEL             ....   36
Dispersion correction           -0.000893082
FINAL SINGLE POINT ENERGY      -231.457628941911
Dispersion correction           -0.000197776
FINAL SINGLE POINT ENERGY      -115.729276919865

CARTESIAN COORDINATES (ANGSTROEM)
---------------------------------
  C     -6.988085    5.917320   -1.756806
  O     -5.841079    5.346315   -1.198149
  H     -6.238028    4.725105   -0.596400
  H     -7.469596    5.138823   -2.402609
  H     -7.670168    6.304700   -1.043612
  H     -6.732474    6.712058   -2.340388
  C     -3.049772    3.971039    1.999479
  O     -4.150856    4.440409    2.744925
  H     -4.224266    5.375310    2.680488
  H     -3.204653    2.957929    1.505377
  H     -2.924149    4.441856    1.049381
  H     -2.092798    4.019810    2.500846

 Multiplicity           Mult            ....    1
 Number of Electrons    NEL             ....   18
 Basis Dimension        Dim             ....  172

ORBITAL ENERGIES
----------------

  NO   OCC          E(Eh)            E(eV)
   0   2.0000     -19.231971      -523.3285
   1   2.0000     -10.313385      -280.6415
   2   2.0000      -1.141093       -31.0507
   3   2.0000      -0.802420       -21.8350
   4   2.0000      -0.621126       -16.9017
   5   2.0000      -0.551096       -14.9961
   6   2.0000      -0.517354       -14.0779
   7   2.0000      -0.418825       -11.3968
   8   2.0000      -0.381660       -10.3855
   9   0.0000       0.085013         2.3133
  10   0.0000       0.117368         3.1938
  11   0.0000       0.146291         3.9808
  12   0.0000       0.176664         4.8073
  13   0.0000       0.190960         5.1963

MULLIKEN ATOMIC CHARGES
-----------------------
   0 C :    0.000171
   1 O :    0.000050
   2 H :   -0.001006
   3 H :   -0.000006
   4 H :   -0.000030
   5 H :    0.000005
   6 C :   -0.170679
   7 O :   -0.474231
   8 H :    0.316486
   9 H :    0.110143
  10 H :    0.107107
  11 H :    0.111992
Sum of atomic charges:   -0.0000000

LOEWDIN ATOMIC CHARGES
----------------------
   0 C :   -0.000014
   1 O :   -0.000120
   2 H :   -0.000593
   3 H :   -0.000000
   4 H :   -0.000001
   5 H :   -0.000002
   6 C :   -0.400814
   7 O :   -0.060712
   8 H :    0.157591
   9 H :    0.118943
  10 H :    0.091941
  11 H :    0.093781

  Mayer bond orders larger than 0.1
B(  6-C ,  7-O ) :   1.0026 B(  6-C ,  9-H ) :   0.9700 B(  6-C , 10-H ) :   0.9761
B(  6-C , 11-H ) :   0.9733 B(  7-O ,  8-H ) :   0.8998

Dispersion correction           -0.000267579
FINAL SINGLE POINT ENERGY      -115.726614926776

DIPOLE MOMENT
-------------
                                X             Y             Z
Electronic contribution:     -1.46798       0.57780       1.21230
Nuclear contribution   :      1.85276      -0.12952      -1.60588
                        -----------------------------------------
Total Dipole Moment    :      0.38478       0.44828      -0.39359
                        -----------------------------------------
Magnitude (a.u.)       :      0.70988
Magnitude (Debye)      :      1.80436

Rotational constants in cm-1:     4.580983     0.808903     0.794507
Rotational constants in MHz : 137334.403235 24250.301296 23818.730523

                             ****ORCA TERMINATED NORMALLY****
TOTAL RUN TIME: 0 days 0 hours 0 minutes 41 seconds 989 msec
