                         Program Version 4.1.2  - RELEASE  -
|  1> #Run DFT-D3 single point of the dimer
|  2> ! wB97X-D3 def2-TZVP TIGHTSCF CHELPG PMODEL PAL8
|  3>
|  4> %base "12-6_DFT_AB"
|  5>
|  6> %scf
|  7> MaxIter 1000
|  8> end
|  9>
| 10> * xyz 0 1
| 11>   C                      -3.318311            -0.619609            -4.975786
| 12>   O                      -2.848868            -0.188945            -3.711665
| 13>   H                      -2.709265            0.711760             -3.772373
| 14>   H                      -2.662649            -0.195860            -5.703031
| 15>   H                      -3.228268            -1.702189            -5.124246
| 16>   H                      -4.392851            -0.308560            -5.145854
| 17>   C                      -1.886966            3.401750             -6.044239
| 18>   O                      -0.921737            4.078071             -6.853895
| 19>   H                      -0.892529            4.940198             -6.472396
| 20>   H                      -2.806686            4.015178             -6.070793
| 21>   H                      -2.034100            2.396483             -6.525987
| 22>   H                      -1.610210            3.299918             -5.032761
| 23> *
| 24>
| 25> #Run DFT-D3 single point of the molecule with dimer basis set
| 26> $new_job
| 27> %base "12-6_DFT_A"
| 28> ! wB97X-D3 def2-TZVP TIGHTSCF CHELPG PMODEL
| 29>
| 30> %scf
| 31> MaxIter 1000
| 32> end
| 33>
| 34> * xyz 0 1
| 35>   C                      -3.318311            -0.619609            -4.975786
| 36>   O                      -2.848868            -0.188945            -3.711665
| 37>   H                      -2.709265            0.711760             -3.772373
| 38>   H                      -2.662649            -0.195860            -5.703031
| 39>   H                      -3.228268            -1.702189            -5.124246
| 40>   H                      -4.392851            -0.308560            -5.145854
| 41>   C                    : -1.886966            3.401750             -6.044239
| 42>   O                    : -0.921737            4.078071             -6.853895
| 43>   H                    : -0.892529            4.940198             -6.472396
| 44>   H                    : -2.806686            4.015178             -6.070793
| 45>   H                    : -2.034100            2.396483             -6.525987
| 46>   H                    : -1.610210            3.299918             -5.032761
| 47> *
| 48>
| 49> #Run DFT-D3 single point of the particle with dimer basis set
| 50> $new_job
| 51> %base "12-6_DFT_B"
| 52> ! wB97X-D3 def2-TZVP TIGHTSCF CHELPG PMODEL
| 53>
| 54> %scf
| 55> MaxIter 1000
| 56> end
| 57>
| 58> * xyz 0 1
| 59>   C                    : -3.318311            -0.619609            -4.975786
| 60>   O                    : -2.848868            -0.188945            -3.711665
| 61>   H                    : -2.709265            0.711760             -3.772373
| 62>   H                    : -2.662649            -0.195860            -5.703031
| 63>   H                    : -3.228268            -1.702189            -5.124246
| 64>   H                    : -4.392851            -0.308560            -5.145854
| 65>   C                      -1.886966            3.401750             -6.044239
| 66>   O                      -0.921737            4.078071             -6.853895
| 67>   H                      -0.892529            4.940198             -6.472396
| 68>   H                      -2.806686            4.015178             -6.070793
| 69>   H                      -2.034100            2.396483             -6.525987
| 70>   H                      -1.610210            3.299918             -5.032761
| 71> *
| 72>
| 73>                          ****END OF INPUT****
 Total Charge           Charge          ....    0
 Multiplicity           Mult            ....    1
 Number of Electrons    NEL             ....   36
Dispersion correction           -0.001275257
FINAL SINGLE POINT ENERGY      -231.464898522584
Dispersion correction           -0.000229502
FINAL SINGLE POINT ENERGY      -115.731579774806

CARTESIAN COORDINATES (ANGSTROEM)
---------------------------------
  C     -3.318311   -0.619609   -4.975786
  O     -2.848868   -0.188945   -3.711665
  H     -2.709265    0.711760   -3.772373
  H     -2.662649   -0.195860   -5.703031
  H     -3.228268   -1.702189   -5.124246
  H     -4.392851   -0.308560   -5.145854
  C     -1.886966    3.401750   -6.044239
  O     -0.921737    4.078071   -6.853895
  H     -0.892529    4.940198   -6.472396
  H     -2.806686    4.015178   -6.070793
  H     -2.034100    2.396483   -6.525987
  H     -1.610210    3.299918   -5.032761

 Multiplicity           Mult            ....    1
 Number of Electrons    NEL             ....   18
 Basis Dimension        Dim             ....  172

ORBITAL ENERGIES
----------------

  NO   OCC          E(Eh)            E(eV)
   0   2.0000     -19.227519      -523.2074
   1   2.0000     -10.314222      -280.6643
   2   2.0000      -1.137525       -30.9536
   3   2.0000      -0.793764       -21.5994
   4   2.0000      -0.612190       -16.6585
   5   2.0000      -0.543671       -14.7940
   6   2.0000      -0.518090       -14.0979
   7   2.0000      -0.442970       -12.0538
   8   2.0000      -0.373586       -10.1658
   9   0.0000       0.084633         2.3030
  10   0.0000       0.115565         3.1447
  11   0.0000       0.148661         4.0453
  12   0.0000       0.168762         4.5922
  13   0.0000       0.191673         5.2157

MULLIKEN ATOMIC CHARGES
-----------------------
   0 C :    0.000501
   1 O :    0.000029
   2 H :   -0.000417
   3 H :   -0.001131
   4 H :   -0.000015
   5 H :   -0.000031
   6 C :   -0.174093
   7 O :   -0.464130
   8 H :    0.306248
   9 H :    0.100423
  10 H :    0.123227
  11 H :    0.109387
Sum of atomic charges:   -0.0000000

LOEWDIN ATOMIC CHARGES
----------------------
   0 C :   -0.000896
   1 O :   -0.000032
   2 H :   -0.000894
   3 H :   -0.001539
   4 H :   -0.000003
   5 H :   -0.000027
   6 C :   -0.371799
   7 O :   -0.081997
   8 H :    0.156251
   9 H :    0.098144
  10 H :    0.118315
  11 H :    0.084477

  Mayer bond orders larger than 0.1
B(  6-C ,  7-O ) :   0.9942 B(  6-C ,  9-H ) :   0.9831 B(  6-C , 10-H ) :   0.9738
B(  6-C , 11-H ) :   0.9671 B(  7-O ,  8-H ) :   0.9090

Dispersion correction           -0.000217446
FINAL SINGLE POINT ENERGY      -115.732924421564

DIPOLE MOMENT
-------------
                                X             Y             Z
Electronic contribution:      1.27710       0.67907      -1.00236
Nuclear contribution   :     -1.63399      -0.40591       1.57261
                        -----------------------------------------
Total Dipole Moment    :     -0.35689       0.27316       0.57025
                        -----------------------------------------
Magnitude (a.u.)       :      0.72607
Magnitude (Debye)      :      1.84551

Rotational constants in cm-1:     4.184061     0.835905     0.795999
Rotational constants in MHz : 125434.992252 25059.794149 23863.448427

                             ****ORCA TERMINATED NORMALLY****
TOTAL RUN TIME: 0 days 0 hours 0 minutes 57 seconds 686 msec
