                         Program Version 4.1.2  - RELEASE  -
|  1> #Run DFT-D3 single point of the dimer
|  2> ! wB97X-D3 def2-TZVP TIGHTSCF CHELPG PMODEL PAL8
|  3>
|  4> %base "14-40_DFT_AB"
|  5>
|  6> %scf
|  7> MaxIter 1000
|  8> end
|  9>
| 10> * xyz 0 1
| 11>   C                      9.292696             -8.407143            -10.959282
| 12>   O                      9.750118             -9.719901            -11.130576
| 13>   H                      10.356786            -9.725511            -11.852830
| 14>   H                      8.471294             -8.255547            -11.710006
| 15>   H                      8.921736             -8.207136            -9.946187
| 16>   H                      10.158140            -7.646811            -11.149071
| 17>   C                      5.256288             -8.739026            -11.259800
| 18>   O                      4.955746             -10.034262           -11.001740
| 19>   H                      4.825855             -10.177167           -10.032646
| 20>   H                      4.780169             -8.165853            -10.447632
| 21>   H                      6.319480             -8.645566            -11.159539
| 22>   H                      4.830450             -8.366351            -12.236812
| 23> *
| 24>
| 25> #Run DFT-D3 single point of the molecule with dimer basis set
| 26> $new_job
| 27> %base "14-40_DFT_A"
| 28> ! wB97X-D3 def2-TZVP TIGHTSCF CHELPG PMODEL
| 29>
| 30> %scf
| 31> MaxIter 1000
| 32> end
| 33>
| 34> * xyz 0 1
| 35>   C                      9.292696             -8.407143            -10.959282
| 36>   O                      9.750118             -9.719901            -11.130576
| 37>   H                      10.356786            -9.725511            -11.852830
| 38>   H                      8.471294             -8.255547            -11.710006
| 39>   H                      8.921736             -8.207136            -9.946187
| 40>   H                      10.158140            -7.646811            -11.149071
| 41>   C                    : 5.256288             -8.739026            -11.259800
| 42>   O                    : 4.955746             -10.034262           -11.001740
| 43>   H                    : 4.825855             -10.177167           -10.032646
| 44>   H                    : 4.780169             -8.165853            -10.447632
| 45>   H                    : 6.319480             -8.645566            -11.159539
| 46>   H                    : 4.830450             -8.366351            -12.236812
| 47> *
| 48>
| 49> #Run DFT-D3 single point of the particle with dimer basis set
| 50> $new_job
| 51> %base "14-40_DFT_B"
| 52> ! wB97X-D3 def2-TZVP TIGHTSCF CHELPG PMODEL
| 53>
| 54> %scf
| 55> MaxIter 1000
| 56> end
| 57>
| 58> * xyz 0 1
| 59>   C                    : 9.292696             -8.407143            -10.959282
| 60>   O                    : 9.750118             -9.719901            -11.130576
| 61>   H                    : 10.356786            -9.725511            -11.852830
| 62>   H                    : 8.471294             -8.255547            -11.710006
| 63>   H                    : 8.921736             -8.207136            -9.946187
| 64>   H                    : 10.158140            -7.646811            -11.149071
| 65>   C                      5.256288             -8.739026            -11.259800
| 66>   O                      4.955746             -10.034262           -11.001740
| 67>   H                      4.825855             -10.177167           -10.032646
| 68>   H                      4.780169             -8.165853            -10.447632
| 69>   H                      6.319480             -8.645566            -11.159539
| 70>   H                      4.830450             -8.366351            -12.236812
| 71> *
| 72>
| 73>                          ****END OF INPUT****
 Total Charge           Charge          ....    0
 Multiplicity           Mult            ....    1
 Number of Electrons    NEL             ....   36
Dispersion correction           -0.001291978
FINAL SINGLE POINT ENERGY      -231.458320914194
Dispersion correction           -0.000238915
FINAL SINGLE POINT ENERGY      -115.731685848242

CARTESIAN COORDINATES (ANGSTROEM)
---------------------------------
  C      9.292696   -8.407143  -10.959282
  O      9.750118   -9.719901  -11.130576
  H     10.356786   -9.725511  -11.852830
  H      8.471294   -8.255547  -11.710006
  H      8.921736   -8.207136   -9.946187
  H     10.158140   -7.646811  -11.149071
  C      5.256288   -8.739026  -11.259800
  O      4.955746  -10.034262  -11.001740
  H      4.825855  -10.177167  -10.032646
  H      4.780169   -8.165853  -10.447632
  H      6.319480   -8.645566  -11.159539
  H      4.830450   -8.366351  -12.236812

 Multiplicity           Mult            ....    1
 Number of Electrons    NEL             ....   18
 Basis Dimension        Dim             ....  172

ORBITAL ENERGIES
----------------

  NO   OCC          E(Eh)            E(eV)
   0   2.0000     -19.226045      -523.1673
   1   2.0000     -10.309509      -280.5360
   2   2.0000      -1.148775       -31.2598
   3   2.0000      -0.786498       -21.4017
   4   2.0000      -0.616428       -16.7739
   5   2.0000      -0.556466       -15.1422
   6   2.0000      -0.533538       -14.5183
   7   2.0000      -0.416745       -11.3402
   8   2.0000      -0.366515        -9.9734
   9   0.0000       0.087026         2.3681
  10   0.0000       0.109805         2.9880
  11   0.0000       0.154156         4.1948
  12   0.0000       0.173271         4.7149
  13   0.0000       0.186685         5.0800

MULLIKEN ATOMIC CHARGES
-----------------------
   0 C :    0.005504
   1 O :   -0.000569
   2 H :   -0.000062
   3 H :   -0.002003
   4 H :   -0.001484
   5 H :    0.000275
   6 C :   -0.147729
   7 O :   -0.474183
   8 H :    0.324039
   9 H :    0.093928
  10 H :    0.093686
  11 H :    0.108597
Sum of atomic charges:   -0.0000000

LOEWDIN ATOMIC CHARGES
----------------------
   0 C :   -0.005466
   1 O :   -0.000012
   2 H :   -0.000008
   3 H :   -0.005963
   4 H :   -0.000722
   5 H :   -0.000019
   6 C :   -0.428755
   7 O :   -0.052066
   8 H :    0.190599
   9 H :    0.095921
  10 H :    0.094678
  11 H :    0.111813

  Mayer bond orders larger than 0.1
B(  6-C ,  7-O ) :   0.9989 B(  6-C ,  9-H ) :   1.0019 B(  6-C , 10-H ) :   0.9734
B(  6-C , 11-H ) :   0.9648 B(  7-O ,  8-H ) :   0.8880

Dispersion correction           -0.000205625
FINAL SINGLE POINT ENERGY      -115.726560413556

DIPOLE MOMENT
-------------
                                X             Y             Z
Electronic contribution:     -0.33151      -1.71183       0.07610
Nuclear contribution   :      0.34027       2.09049       0.47127
                        -----------------------------------------
Total Dipole Moment    :      0.00877       0.37866       0.54737
                        -----------------------------------------
Magnitude (a.u.)       :      0.66564
Magnitude (Debye)      :      1.69191

Rotational constants in cm-1:     4.160852     0.896722     0.862363
Rotational constants in MHz : 124739.216842 26883.039674 25852.999404

                             ****ORCA TERMINATED NORMALLY****
TOTAL RUN TIME: 0 days 0 hours 1 minutes 8 seconds 6 msec
