                         Program Version 4.1.2  - RELEASE  -
|  1> #Run DFT-D3 single point of the dimer
|  2> ! wB97X-D3 def2-TZVP TIGHTSCF CHELPG PMODEL PAL8
|  3>
|  4> %base "12-101_DFT_AB"
|  5>
|  6> %scf
|  7> MaxIter 1000
|  8> end
|  9>
| 10> * xyz 0 1
| 11>   C                      7.069487             6.948817             1.348319
| 12>   O                      6.833436             7.462442             0.067141
| 13>   H                      6.469724             6.786522             -0.512093
| 14>   H                      6.543788             6.020128             1.325691
| 15>   H                      8.106300             6.629288             1.569079
| 16>   H                      6.689718             7.616708             2.082214
| 17>   C                      8.624912             10.634205            -4.484992
| 18>   O                      8.377446             9.432427             -3.867024
| 19>   H                      8.470871             9.577524             -2.909244
| 20>   H                      9.698390             10.845328            -4.516165
| 21>   H                      8.160481             10.843815            -5.491393
| 22>   H                      8.099689             11.472356            -3.885346
| 23> *
| 24>
| 25> #Run DFT-D3 single point of the molecule with dimer basis set
| 26> $new_job
| 27> %base "12-101_DFT_A"
| 28> ! wB97X-D3 def2-TZVP TIGHTSCF CHELPG PMODEL
| 29>
| 30> %scf
| 31> MaxIter 1000
| 32> end
| 33>
| 34> * xyz 0 1
| 35>   C                      7.069487             6.948817             1.348319
| 36>   O                      6.833436             7.462442             0.067141
| 37>   H                      6.469724             6.786522             -0.512093
| 38>   H                      6.543788             6.020128             1.325691
| 39>   H                      8.106300             6.629288             1.569079
| 40>   H                      6.689718             7.616708             2.082214
| 41>   C                    : 8.624912             10.634205            -4.484992
| 42>   O                    : 8.377446             9.432427             -3.867024
| 43>   H                    : 8.470871             9.577524             -2.909244
| 44>   H                    : 9.698390             10.845328            -4.516165
| 45>   H                    : 8.160481             10.843815            -5.491393
| 46>   H                    : 8.099689             11.472356            -3.885346
| 47> *
| 48>
| 49> #Run DFT-D3 single point of the particle with dimer basis set
| 50> $new_job
| 51> %base "12-101_DFT_B"
| 52> ! wB97X-D3 def2-TZVP TIGHTSCF CHELPG PMODEL
| 53>
| 54> %scf
| 55> MaxIter 1000
| 56> end
| 57>
| 58> * xyz 0 1
| 59>   C                    : 7.069487             6.948817             1.348319
| 60>   O                    : 6.833436             7.462442             0.067141
| 61>   H                    : 6.469724             6.786522             -0.512093
| 62>   H                    : 6.543788             6.020128             1.325691
| 63>   H                    : 8.106300             6.629288             1.569079
| 64>   H                    : 6.689718             7.616708             2.082214
| 65>   C                      8.624912             10.634205            -4.484992
| 66>   O                      8.377446             9.432427             -3.867024
| 67>   H                      8.470871             9.577524             -2.909244
| 68>   H                      9.698390             10.845328            -4.516165
| 69>   H                      8.160481             10.843815            -5.491393
| 70>   H                      8.099689             11.472356            -3.885346
| 71> *
| 72>
| 73>                          ****END OF INPUT****
 Total Charge           Charge          ....    0
 Multiplicity           Mult            ....    1
 Number of Electrons    NEL             ....   36
Dispersion correction           -0.000626847
FINAL SINGLE POINT ENERGY      -231.457852440467
Dispersion correction           -0.000230809
FINAL SINGLE POINT ENERGY      -115.729042145958

CARTESIAN COORDINATES (ANGSTROEM)
---------------------------------
  C      7.069487    6.948817    1.348319
  O      6.833436    7.462442    0.067141
  H      6.469724    6.786522   -0.512093
  H      6.543788    6.020128    1.325691
  H      8.106300    6.629288    1.569079
  H      6.689718    7.616708    2.082214
  C      8.624912   10.634205   -4.484992
  O      8.377446    9.432427   -3.867024
  H      8.470871    9.577524   -2.909244
  H      9.698390   10.845328   -4.516165
  H      8.160481   10.843815   -5.491393
  H      8.099689   11.472356   -3.885346

 Multiplicity           Mult            ....    1
 Number of Electrons    NEL             ....   18
 Basis Dimension        Dim             ....  172

ORBITAL ENERGIES
----------------

  NO   OCC          E(Eh)            E(eV)
   0   2.0000     -19.233629      -523.3736
   1   2.0000     -10.320493      -280.8349
   2   2.0000      -1.149393       -31.2766
   3   2.0000      -0.786097       -21.3908
   4   2.0000      -0.615346       -16.7444
   5   2.0000      -0.550800       -14.9880
   6   2.0000      -0.530330       -14.4310
   7   2.0000      -0.417753       -11.3676
   8   2.0000      -0.372853       -10.1458
   9   0.0000       0.084673         2.3041
  10   0.0000       0.109762         2.9868
  11   0.0000       0.147042         4.0012
  12   0.0000       0.171095         4.6557
  13   0.0000       0.194424         5.2905

MULLIKEN ATOMIC CHARGES
-----------------------
   0 C :   -0.000009
   1 O :   -0.000015
   2 H :   -0.000043
   3 H :    0.000001
   4 H :    0.000000
   5 H :    0.000000
   6 C :   -0.168494
   7 O :   -0.462088
   8 H :    0.325956
   9 H :    0.101438
  10 H :    0.117160
  11 H :    0.086092
Sum of atomic charges:    0.0000000

LOEWDIN ATOMIC CHARGES
----------------------
   0 C :   -0.000005
   1 O :   -0.000035
   2 H :   -0.000031
   3 H :   -0.000000
   4 H :   -0.000000
   5 H :   -0.000000
   6 C :   -0.434721
   7 O :   -0.055291
   8 H :    0.185379
   9 H :    0.091596
  10 H :    0.112436
  11 H :    0.100672

  Mayer bond orders larger than 0.1
B(  6-C ,  7-O ) :   1.0077 B(  6-C ,  9-H ) :   0.9738 B(  6-C , 10-H ) :   0.9650
B(  6-C , 11-H ) :   0.9882 B(  7-O ,  8-H ) :   0.8898

Dispersion correction           -0.000235937
FINAL SINGLE POINT ENERGY      -115.727374289836

DIPOLE MOMENT
-------------
                                X             Y             Z
Electronic contribution:     -0.27122      -1.88057       0.59853
Nuclear contribution   :      0.40431       2.40870      -0.22074
                        -----------------------------------------
Total Dipole Moment    :      0.13309       0.52813       0.37779
                        -----------------------------------------
Magnitude (a.u.)       :      0.66284
Magnitude (Debye)      :      1.68481

Rotational constants in cm-1:     4.195808     0.851024     0.828498
Rotational constants in MHz : 125787.157225 25513.061793 24837.748677

                             ****ORCA TERMINATED NORMALLY****
TOTAL RUN TIME: 0 days 0 hours 0 minutes 56 seconds 305 msec
