                         Program Version 4.1.2  - RELEASE  -
|  1> #Run DFT-D3 single point of the dimer
|  2> ! wB97X-D3 def2-TZVP TIGHTSCF CHELPG PMODEL PAL8
|  3>
|  4> %base "19-171_DFT_AB"
|  5>
|  6> %scf
|  7> MaxIter 1000
|  8> end
|  9>
| 10> * xyz 0 1
| 11>   C                      -2.906077            0.377006             -8.148405
| 12>   O                      -1.989494            1.235935             -7.461935
| 13>   H                      -2.399023            1.249863             -6.599244
| 14>   H                      -3.340453            -0.457180            -7.600596
| 15>   H                      -3.818018            0.871088             -8.437188
| 16>   H                      -2.566180            -0.111384            -9.125792
| 17>   C                      -2.016624            2.634609             -4.850103
| 18>   O                      -2.856557            1.560374             -4.670585
| 19>   H                      -2.979499            1.629369             -3.730284
| 20>   H                      -1.816031            2.931660             -5.920906
| 21>   H                      -2.354388            3.592985             -4.373275
| 22>   H                      -1.068017            2.438966             -4.327261
| 23> *
| 24>
| 25> #Run DFT-D3 single point of the molecule with dimer basis set
| 26> $new_job
| 27> %base "19-171_DFT_A"
| 28> ! wB97X-D3 def2-TZVP TIGHTSCF CHELPG PMODEL
| 29>
| 30> %scf
| 31> MaxIter 1000
| 32> end
| 33>
| 34> * xyz 0 1
| 35>   C                      -2.906077            0.377006             -8.148405
| 36>   O                      -1.989494            1.235935             -7.461935
| 37>   H                      -2.399023            1.249863             -6.599244
| 38>   H                      -3.340453            -0.457180            -7.600596
| 39>   H                      -3.818018            0.871088             -8.437188
| 40>   H                      -2.566180            -0.111384            -9.125792
| 41>   C                    : -2.016624            2.634609             -4.850103
| 42>   O                    : -2.856557            1.560374             -4.670585
| 43>   H                    : -2.979499            1.629369             -3.730284
| 44>   H                    : -1.816031            2.931660             -5.920906
| 45>   H                    : -2.354388            3.592985             -4.373275
| 46>   H                    : -1.068017            2.438966             -4.327261
| 47> *
| 48>
| 49> #Run DFT-D3 single point of the particle with dimer basis set
| 50> $new_job
| 51> %base "19-171_DFT_B"
| 52> ! wB97X-D3 def2-TZVP TIGHTSCF CHELPG PMODEL
| 53>
| 54> %scf
| 55> MaxIter 1000
| 56> end
| 57>
| 58> * xyz 0 1
| 59>   C                    : -2.906077            0.377006             -8.148405
| 60>   O                    : -1.989494            1.235935             -7.461935
| 61>   H                    : -2.399023            1.249863             -6.599244
| 62>   H                    : -3.340453            -0.457180            -7.600596
| 63>   H                    : -3.818018            0.871088             -8.437188
| 64>   H                    : -2.566180            -0.111384            -9.125792
| 65>   C                      -2.016624            2.634609             -4.850103
| 66>   O                      -2.856557            1.560374             -4.670585
| 67>   H                      -2.979499            1.629369             -3.730284
| 68>   H                      -1.816031            2.931660             -5.920906
| 69>   H                      -2.354388            3.592985             -4.373275
| 70>   H                      -1.068017            2.438966             -4.327261
| 71> *
| 72>
| 73>                          ****END OF INPUT****
 Total Charge           Charge          ....    0
 Multiplicity           Mult            ....    1
 Number of Electrons    NEL             ....   36
Dispersion correction           -0.001720847
FINAL SINGLE POINT ENERGY      -231.457671077031
Dispersion correction           -0.000260635
FINAL SINGLE POINT ENERGY      -115.726008339645

CARTESIAN COORDINATES (ANGSTROEM)
---------------------------------
  C     -2.906077    0.377006   -8.148405
  O     -1.989494    1.235935   -7.461935
  H     -2.399023    1.249863   -6.599244
  H     -3.340453   -0.457180   -7.600596
  H     -3.818018    0.871088   -8.437188
  H     -2.566180   -0.111384   -9.125792
  C     -2.016624    2.634609   -4.850103
  O     -2.856557    1.560374   -4.670585
  H     -2.979499    1.629369   -3.730284
  H     -1.816031    2.931660   -5.920906
  H     -2.354388    3.592985   -4.373275
  H     -1.068017    2.438966   -4.327261

 Multiplicity           Mult            ....    1
 Number of Electrons    NEL             ....   18
 Basis Dimension        Dim             ....  172

ORBITAL ENERGIES
----------------

  NO   OCC          E(Eh)            E(eV)
   0   2.0000     -19.236381      -523.4485
   1   2.0000     -10.318408      -280.7782
   2   2.0000      -1.160837       -31.5880
   3   2.0000      -0.786414       -21.3994
   4   2.0000      -0.622351       -16.9350
   5   2.0000      -0.545473       -14.8431
   6   2.0000      -0.529852       -14.4180
   7   2.0000      -0.440128       -11.9765
   8   2.0000      -0.371072       -10.0974
   9   0.0000       0.096785         2.6336
  10   0.0000       0.120009         3.2656
  11   0.0000       0.152009         4.1364
  12   0.0000       0.185579         5.0499
  13   0.0000       0.199317         5.4237

MULLIKEN ATOMIC CHARGES
-----------------------
   0 C :    0.000124
   1 O :   -0.000074
   2 H :    0.001512
   3 H :   -0.001080
   4 H :   -0.000248
   5 H :   -0.000058
   6 C :   -0.182674
   7 O :   -0.433276
   8 H :    0.310771
   9 H :    0.112943
  10 H :    0.093785
  11 H :    0.098275
Sum of atomic charges:   -0.0000000

LOEWDIN ATOMIC CHARGES
----------------------
   0 C :   -0.002050
   1 O :   -0.011536
   2 H :   -0.029977
   3 H :   -0.000361
   4 H :   -0.000056
   5 H :   -0.000013
   6 C :   -0.421958
   7 O :   -0.020700
   8 H :    0.174843
   9 H :    0.123037
  10 H :    0.095027
  11 H :    0.093743

  Mayer bond orders larger than 0.1
B(  6-C ,  7-O ) :   0.9972 B(  6-C ,  9-H ) :   0.9773 B(  6-C , 10-H ) :   0.9728
B(  6-C , 11-H ) :   0.9808 B(  7-O ,  8-H ) :   0.9019

Dispersion correction           -0.000214507
FINAL SINGLE POINT ENERGY      -115.728795395082

DIPOLE MOMENT
-------------
                                X             Y             Z
Electronic contribution:     -1.23023      -1.62621      -0.00465
Nuclear contribution   :      1.44350       2.04963       0.52451
                        -----------------------------------------
Total Dipole Moment    :      0.21327       0.42342       0.51987
                        -----------------------------------------
Magnitude (a.u.)       :      0.70358
Magnitude (Debye)      :      1.78836

Rotational constants in cm-1:     4.226005     0.869988     0.828805
Rotational constants in MHz : 126692.440124 26081.575537 24846.959674

                             ****ORCA TERMINATED NORMALLY****
TOTAL RUN TIME: 0 days 0 hours 1 minutes 42 seconds 149 msec
