                         Program Version 4.1.2  - RELEASE  -
|  1> #Run DFT-D3 single point of the dimer
|  2> ! wB97X-D3 def2-TZVP TIGHTSCF CHELPG PMODEL PAL8
|  3>
|  4> %base "9-137_DFT_AB"
|  5>
|  6> %scf
|  7> MaxIter 1000
|  8> end
|  9>
| 10> * xyz 0 1
| 11>   C                      -4.397125            -7.593060            -10.839823
| 12>   O                      -4.202316            -8.964188            -11.107021
| 13>   H                      -5.042504            -9.349486            -11.080620
| 14>   H                      -5.053239            -7.373010            -10.011849
| 15>   H                      -3.476378            -7.130394            -10.584298
| 16>   H                      -4.792753            -7.068452            -11.742962
| 17>   C                      -2.831504            -7.759823            -7.278792
| 18>   O                      -1.512623            -8.337088            -7.344358
| 19>   H                      -1.351188            -8.770977            -8.192856
| 20>   H                      -3.681112            -8.443216            -6.889418
| 21>   H                      -2.832331            -6.876342            -6.649877
| 22>   H                      -3.162068            -7.395431            -8.223280
| 23> *
| 24>
| 25> #Run DFT-D3 single point of the molecule with dimer basis set
| 26> $new_job
| 27> %base "9-137_DFT_A"
| 28> ! wB97X-D3 def2-TZVP TIGHTSCF CHELPG PMODEL
| 29>
| 30> %scf
| 31> MaxIter 1000
| 32> end
| 33>
| 34> * xyz 0 1
| 35>   C                      -4.397125            -7.593060            -10.839823
| 36>   O                      -4.202316            -8.964188            -11.107021
| 37>   H                      -5.042504            -9.349486            -11.080620
| 38>   H                      -5.053239            -7.373010            -10.011849
| 39>   H                      -3.476378            -7.130394            -10.584298
| 40>   H                      -4.792753            -7.068452            -11.742962
| 41>   C                    : -2.831504            -7.759823            -7.278792
| 42>   O                    : -1.512623            -8.337088            -7.344358
| 43>   H                    : -1.351188            -8.770977            -8.192856
| 44>   H                    : -3.681112            -8.443216            -6.889418
| 45>   H                    : -2.832331            -6.876342            -6.649877
| 46>   H                    : -3.162068            -7.395431            -8.223280
| 47> *
| 48>
| 49> #Run DFT-D3 single point of the particle with dimer basis set
| 50> $new_job
| 51> %base "9-137_DFT_B"
| 52> ! wB97X-D3 def2-TZVP TIGHTSCF CHELPG PMODEL
| 53>
| 54> %scf
| 55> MaxIter 1000
| 56> end
| 57>
| 58> * xyz 0 1
| 59>   C                    : -4.397125            -7.593060            -10.839823
| 60>   O                    : -4.202316            -8.964188            -11.107021
| 61>   H                    : -5.042504            -9.349486            -11.080620
| 62>   H                    : -5.053239            -7.373010            -10.011849
| 63>   H                    : -3.476378            -7.130394            -10.584298
| 64>   H                    : -4.792753            -7.068452            -11.742962
| 65>   C                      -2.831504            -7.759823            -7.278792
| 66>   O                      -1.512623            -8.337088            -7.344358
| 67>   H                      -1.351188            -8.770977            -8.192856
| 68>   H                      -3.681112            -8.443216            -6.889418
| 69>   H                      -2.832331            -6.876342            -6.649877
| 70>   H                      -3.162068            -7.395431            -8.223280
| 71> *
| 72>
| 73>                          ****END OF INPUT****
 Total Charge           Charge          ....    0
 Multiplicity           Mult            ....    1
 Number of Electrons    NEL             ....   36
Dispersion correction           -0.001607819
FINAL SINGLE POINT ENERGY      -231.467048949660
Dispersion correction           -0.000235239
FINAL SINGLE POINT ENERGY      -115.734458435331

CARTESIAN COORDINATES (ANGSTROEM)
---------------------------------
  C     -4.397125   -7.593060  -10.839823
  O     -4.202316   -8.964188  -11.107021
  H     -5.042504   -9.349486  -11.080620
  H     -5.053239   -7.373010  -10.011849
  H     -3.476378   -7.130394  -10.584298
  H     -4.792753   -7.068452  -11.742962
  C     -2.831504   -7.759823   -7.278792
  O     -1.512623   -8.337088   -7.344358
  H     -1.351188   -8.770977   -8.192856
  H     -3.681112   -8.443216   -6.889418
  H     -2.832331   -6.876342   -6.649877
  H     -3.162068   -7.395431   -8.223280

 Multiplicity           Mult            ....    1
 Number of Electrons    NEL             ....   18
 Basis Dimension        Dim             ....  172

ORBITAL ENERGIES
----------------

  NO   OCC          E(Eh)            E(eV)
   0   2.0000     -19.233145      -523.3605
   1   2.0000     -10.318862      -280.7905
   2   2.0000      -1.125897       -30.6372
   3   2.0000      -0.798435       -21.7265
   4   2.0000      -0.610298       -16.6070
   5   2.0000      -0.528665       -14.3857
   6   2.0000      -0.526031       -14.3140
   7   2.0000      -0.432011       -11.7556
   8   2.0000      -0.375850       -10.2274
   9   0.0000       0.077191         2.1005
  10   0.0000       0.119636         3.2555
  11   0.0000       0.146030         3.9737
  12   0.0000       0.160070         4.3557
  13   0.0000       0.193603         5.2682

MULLIKEN ATOMIC CHARGES
-----------------------
   0 C :    0.001352
   1 O :   -0.000127
   2 H :   -0.000041
   3 H :   -0.001705
   4 H :    0.001435
   5 H :    0.000158
   6 C :   -0.153504
   7 O :   -0.485749
   8 H :    0.319075
   9 H :    0.099687
  10 H :    0.121556
  11 H :    0.097862
Sum of atomic charges:   -0.0000000

LOEWDIN ATOMIC CHARGES
----------------------
   0 C :   -0.007115
   1 O :   -0.000035
   2 H :   -0.000016
   3 H :   -0.001934
   4 H :   -0.002930
   5 H :   -0.000033
   6 C :   -0.367213
   7 O :   -0.096381
   8 H :    0.170410
   9 H :    0.107212
  10 H :    0.105204
  11 H :    0.092831

  Mayer bond orders larger than 0.1
B(  6-C ,  7-O ) :   1.0052 B(  6-C ,  9-H ) :   0.9716 B(  6-C , 10-H ) :   0.9731
B(  6-C , 11-H ) :   0.9799 B(  7-O ,  8-H ) :   0.8952

Dispersion correction           -0.000285957
FINAL SINGLE POINT ENERGY      -115.731259267579

DIPOLE MOMENT
-------------
                                X             Y             Z
Electronic contribution:      1.79012      -0.71173       0.01384
Nuclear contribution   :     -2.21618       0.71127      -0.56636
                        -----------------------------------------
Total Dipole Moment    :     -0.42606      -0.00046      -0.55252
                        -----------------------------------------
Magnitude (a.u.)       :      0.69772
Magnitude (Debye)      :      1.77346

Rotational constants in cm-1:     4.407860     0.784784     0.766070
Rotational constants in MHz : 132144.323984 23527.239669 22966.186042

                             ****ORCA TERMINATED NORMALLY****
TOTAL RUN TIME: 0 days 0 hours 0 minutes 43 seconds 353 msec
