                         Program Version 4.1.2  - RELEASE  -
|  1> #Run DFT-D3 single point of the dimer
|  2> ! wB97X-D3 def2-TZVP TIGHTSCF CHELPG PMODEL PAL8
|  3>
|  4> %base "18-112_DFT_AB"
|  5>
|  6> %scf
|  7> MaxIter 1000
|  8> end
|  9>
| 10> * xyz 0 1
| 11>   C                      1.536306             -11.056976           -5.681817
| 12>   O                      1.443532             -9.917052            -6.467092
| 13>   H                      2.378982             -9.721470            -6.647489
| 14>   H                      0.576598             -11.390417           -5.272839
| 15>   H                      1.904503             -11.918158           -6.229317
| 16>   H                      2.254301             -10.950616           -4.839417
| 17>   C                      1.697786             -11.464264           -10.720662
| 18>   O                      2.248621             -10.188157           -11.034252
| 19>   H                      1.788866             -9.523281            -11.527442
| 20>   H                      1.195149             -11.386386           -9.772676
| 21>   H                      0.915565             -11.786651           -11.405496
| 22>   H                      2.408343             -12.243651           -10.560199
| 23> *
| 24>
| 25> #Run DFT-D3 single point of the molecule with dimer basis set
| 26> $new_job
| 27> %base "18-112_DFT_A"
| 28> ! wB97X-D3 def2-TZVP TIGHTSCF CHELPG PMODEL
| 29>
| 30> %scf
| 31> MaxIter 1000
| 32> end
| 33>
| 34> * xyz 0 1
| 35>   C                      1.536306             -11.056976           -5.681817
| 36>   O                      1.443532             -9.917052            -6.467092
| 37>   H                      2.378982             -9.721470            -6.647489
| 38>   H                      0.576598             -11.390417           -5.272839
| 39>   H                      1.904503             -11.918158           -6.229317
| 40>   H                      2.254301             -10.950616           -4.839417
| 41>   C                    : 1.697786             -11.464264           -10.720662
| 42>   O                    : 2.248621             -10.188157           -11.034252
| 43>   H                    : 1.788866             -9.523281            -11.527442
| 44>   H                    : 1.195149             -11.386386           -9.772676
| 45>   H                    : 0.915565             -11.786651           -11.405496
| 46>   H                    : 2.408343             -12.243651           -10.560199
| 47> *
| 48>
| 49> #Run DFT-D3 single point of the particle with dimer basis set
| 50> $new_job
| 51> %base "18-112_DFT_B"
| 52> ! wB97X-D3 def2-TZVP TIGHTSCF CHELPG PMODEL
| 53>
| 54> %scf
| 55> MaxIter 1000
| 56> end
| 57>
| 58> * xyz 0 1
| 59>   C                    : 1.536306             -11.056976           -5.681817
| 60>   O                    : 1.443532             -9.917052            -6.467092
| 61>   H                    : 2.378982             -9.721470            -6.647489
| 62>   H                    : 0.576598             -11.390417           -5.272839
| 63>   H                    : 1.904503             -11.918158           -6.229317
| 64>   H                    : 2.254301             -10.950616           -4.839417
| 65>   C                      1.697786             -11.464264           -10.720662
| 66>   O                      2.248621             -10.188157           -11.034252
| 67>   H                      1.788866             -9.523281            -11.527442
| 68>   H                      1.195149             -11.386386           -9.772676
| 69>   H                      0.915565             -11.786651           -11.405496
| 70>   H                      2.408343             -12.243651           -10.560199
| 71> *
| 72>
| 73>                          ****END OF INPUT****
 Total Charge           Charge          ....    0
 Multiplicity           Mult            ....    1
 Number of Electrons    NEL             ....   36
Dispersion correction           -0.000970017
FINAL SINGLE POINT ENERGY      -231.461290902259
Dispersion correction           -0.000221920
FINAL SINGLE POINT ENERGY      -115.733816406744

CARTESIAN COORDINATES (ANGSTROEM)
---------------------------------
  C      1.536306  -11.056976   -5.681817
  O      1.443532   -9.917052   -6.467092
  H      2.378982   -9.721470   -6.647489
  H      0.576598  -11.390417   -5.272839
  H      1.904503  -11.918158   -6.229317
  H      2.254301  -10.950616   -4.839417
  C      1.697786  -11.464264  -10.720662
  O      2.248621  -10.188157  -11.034252
  H      1.788866   -9.523281  -11.527442
  H      1.195149  -11.386386   -9.772676
  H      0.915565  -11.786651  -11.405496
  H      2.408343  -12.243651  -10.560199

 Multiplicity           Mult            ....    1
 Number of Electrons    NEL             ....   18
 Basis Dimension        Dim             ....  172

ORBITAL ENERGIES
----------------

  NO   OCC          E(Eh)            E(eV)
   0   2.0000     -19.221173      -523.0347
   1   2.0000     -10.311175      -280.5813
   2   2.0000      -1.124028       -30.5864
   3   2.0000      -0.808889       -22.0110
   4   2.0000      -0.616408       -16.7733
   5   2.0000      -0.539528       -14.6813
   6   2.0000      -0.530655       -14.4399
   7   2.0000      -0.417692       -11.3660
   8   2.0000      -0.368210       -10.0195
   9   0.0000       0.085950         2.3388
  10   0.0000       0.120427         3.2770
  11   0.0000       0.149305         4.0628
  12   0.0000       0.169781         4.6200
  13   0.0000       0.188509         5.1296

MULLIKEN ATOMIC CHARGES
-----------------------
   0 C :   -0.000045
   1 O :    0.000079
   2 H :   -0.000067
   3 H :   -0.000039
   4 H :   -0.000064
   5 H :   -0.000006
   6 C :   -0.143822
   7 O :   -0.518036
   8 H :    0.325749
   9 H :    0.106387
  10 H :    0.107066
  11 H :    0.122796
Sum of atomic charges:   -0.0000000

LOEWDIN ATOMIC CHARGES
----------------------
   0 C :   -0.000342
   1 O :   -0.000107
   2 H :   -0.000101
   3 H :   -0.000007
   4 H :   -0.000147
   5 H :   -0.000006
   6 C :   -0.364076
   7 O :   -0.086351
   8 H :    0.157596
   9 H :    0.094948
  10 H :    0.096519
  11 H :    0.102074

  Mayer bond orders larger than 0.1
B(  6-C ,  7-O ) :   0.9837 B(  6-C ,  9-H ) :   0.9817 B(  6-C , 10-H ) :   0.9790
B(  6-C , 11-H ) :   0.9697 B(  7-O ,  8-H ) :   0.8865

Dispersion correction           -0.000278061
FINAL SINGLE POINT ENERGY      -115.726463739523

DIPOLE MOMENT
-------------
                                X             Y             Z
Electronic contribution:      0.84825       1.51788      -0.46537
Nuclear contribution   :     -1.42414      -1.62999       0.27121
                        -----------------------------------------
Total Dipole Moment    :     -0.57589      -0.11211      -0.19416
                        -----------------------------------------
Magnitude (a.u.)       :      0.61800
Magnitude (Debye)      :      1.57082

Rotational constants in cm-1:     4.763521     0.801927     0.774486
Rotational constants in MHz : 142806.765936 24041.163702 23218.502889

                             ****ORCA TERMINATED NORMALLY****
TOTAL RUN TIME: 0 days 0 hours 1 minutes 5 seconds 222 msec
