                         Program Version 4.1.2  - RELEASE  -
|  1> #Run DFT-D3 single point of the dimer
|  2> ! wB97X-D3 def2-TZVP TIGHTSCF CHELPG PMODEL PAL8
|  3>
|  4> %base "16-127_DFT_AB"
|  5>
|  6> %scf
|  7> MaxIter 1000
|  8> end
|  9>
| 10> * xyz 0 1
| 11>   C                      -6.453457            -0.292748            3.025583
| 12>   O                      -7.118976            0.113840             4.133951
| 13>   H                      -6.482829            0.713591             4.577241
| 14>   H                      -7.026724            -1.111261            2.492437
| 15>   H                      -6.333896            0.490249             2.235554
| 16>   H                      -5.489757            -0.618275            3.381762
| 17>   C                      -8.200518            -4.451481            1.702996
| 18>   O                      -9.167905            -4.072899            2.699472
| 19>   H                      -8.544168            -3.580297            3.241213
| 20>   H                      -8.172992            -3.708878            0.924839
| 21>   H                      -7.195505            -4.605369            2.220845
| 22>   H                      -8.458695            -5.402867            1.246190
| 23> *
| 24>
| 25> #Run DFT-D3 single point of the molecule with dimer basis set
| 26> $new_job
| 27> %base "16-127_DFT_A"
| 28> ! wB97X-D3 def2-TZVP TIGHTSCF CHELPG PMODEL
| 29>
| 30> %scf
| 31> MaxIter 1000
| 32> end
| 33>
| 34> * xyz 0 1
| 35>   C                      -6.453457            -0.292748            3.025583
| 36>   O                      -7.118976            0.113840             4.133951
| 37>   H                      -6.482829            0.713591             4.577241
| 38>   H                      -7.026724            -1.111261            2.492437
| 39>   H                      -6.333896            0.490249             2.235554
| 40>   H                      -5.489757            -0.618275            3.381762
| 41>   C                    : -8.200518            -4.451481            1.702996
| 42>   O                    : -9.167905            -4.072899            2.699472
| 43>   H                    : -8.544168            -3.580297            3.241213
| 44>   H                    : -8.172992            -3.708878            0.924839
| 45>   H                    : -7.195505            -4.605369            2.220845
| 46>   H                    : -8.458695            -5.402867            1.246190
| 47> *
| 48>
| 49> #Run DFT-D3 single point of the particle with dimer basis set
| 50> $new_job
| 51> %base "16-127_DFT_B"
| 52> ! wB97X-D3 def2-TZVP TIGHTSCF CHELPG PMODEL
| 53>
| 54> %scf
| 55> MaxIter 1000
| 56> end
| 57>
| 58> * xyz 0 1
| 59>   C                    : -6.453457            -0.292748            3.025583
| 60>   O                    : -7.118976            0.113840             4.133951
| 61>   H                    : -6.482829            0.713591             4.577241
| 62>   H                    : -7.026724            -1.111261            2.492437
| 63>   H                    : -6.333896            0.490249             2.235554
| 64>   H                    : -5.489757            -0.618275            3.381762
| 65>   C                      -8.200518            -4.451481            1.702996
| 66>   O                      -9.167905            -4.072899            2.699472
| 67>   H                      -8.544168            -3.580297            3.241213
| 68>   H                      -8.172992            -3.708878            0.924839
| 69>   H                      -7.195505            -4.605369            2.220845
| 70>   H                      -8.458695            -5.402867            1.246190
| 71> *
| 72>
| 73>                          ****END OF INPUT****
 Total Charge           Charge          ....    0
 Multiplicity           Mult            ....    1
 Number of Electrons    NEL             ....   36
Dispersion correction           -0.001092036
FINAL SINGLE POINT ENERGY      -231.459072121056
Dispersion correction           -0.000206607
FINAL SINGLE POINT ENERGY      -115.728904612771

CARTESIAN COORDINATES (ANGSTROEM)
---------------------------------
  C     -6.453457   -0.292748    3.025583
  O     -7.118976    0.113840    4.133951
  H     -6.482829    0.713591    4.577241
  H     -7.026724   -1.111261    2.492437
  H     -6.333896    0.490249    2.235554
  H     -5.489757   -0.618275    3.381762
  C     -8.200518   -4.451481    1.702996
  O     -9.167905   -4.072899    2.699472
  H     -8.544168   -3.580297    3.241213
  H     -8.172992   -3.708878    0.924839
  H     -7.195505   -4.605369    2.220845
  H     -8.458695   -5.402867    1.246190

 Multiplicity           Mult            ....    1
 Number of Electrons    NEL             ....   18
 Basis Dimension        Dim             ....  172

ORBITAL ENERGIES
----------------

  NO   OCC          E(Eh)            E(eV)
   0   2.0000     -19.232275      -523.3368
   1   2.0000     -10.318831      -280.7897
   2   2.0000      -1.137083       -30.9416
   3   2.0000      -0.789453       -21.4821
   4   2.0000      -0.601589       -16.3701
   5   2.0000      -0.547999       -14.9118
   6   2.0000      -0.522494       -14.2178
   7   2.0000      -0.442328       -12.0364
   8   2.0000      -0.376521       -10.2456
   9   0.0000       0.075552         2.0559
  10   0.0000       0.114955         3.1281
  11   0.0000       0.151048         4.1102
  12   0.0000       0.168745         4.5918
  13   0.0000       0.185050         5.0355

MULLIKEN ATOMIC CHARGES
-----------------------
   0 C :   -0.000007
   1 O :    0.000056
   2 H :    0.000010
   3 H :   -0.000616
   4 H :   -0.000006
   5 H :   -0.000013
   6 C :   -0.186503
   7 O :   -0.459329
   8 H :    0.314940
   9 H :    0.110203
  10 H :    0.099936
  11 H :    0.121328
Sum of atomic charges:   -0.0000000

LOEWDIN ATOMIC CHARGES
----------------------
   0 C :   -0.000418
   1 O :   -0.000015
   2 H :   -0.000001
   3 H :   -0.000856
   4 H :   -0.000004
   5 H :   -0.000009
   6 C :   -0.375596
   7 O :   -0.096589
   8 H :    0.173415
   9 H :    0.091732
  10 H :    0.105858
  11 H :    0.102482

  Mayer bond orders larger than 0.1
B(  6-C ,  7-O ) :   0.9983 B(  6-C ,  9-H ) :   0.9722 B(  6-C , 10-H ) :   0.9872
B(  6-C , 11-H ) :   0.9768 B(  7-O ,  8-H ) :   0.9062

Dispersion correction           -0.000219078
FINAL SINGLE POINT ENERGY      -115.729298208716

DIPOLE MOMENT
-------------
                                X             Y             Z
Electronic contribution:     -1.41590       0.42065       1.11879
Nuclear contribution   :      2.15854      -0.28977      -1.18677
                        -----------------------------------------
Total Dipole Moment    :      0.74263       0.13088      -0.06798
                        -----------------------------------------
Magnitude (a.u.)       :      0.75714
Magnitude (Debye)      :      1.92449

Rotational constants in cm-1:     4.102090     0.825047     0.792727
Rotational constants in MHz : 122977.562415 24734.291204 23765.350960

                             ****ORCA TERMINATED NORMALLY****
TOTAL RUN TIME: 0 days 0 hours 1 minutes 4 seconds 490 msec
