                         Program Version 4.1.2  - RELEASE  -
|  1> #Run DFT-D3 single point of the dimer
|  2> ! wB97X-D3 def2-TZVP TIGHTSCF CHELPG PMODEL PAL8
|  3>
|  4> %base "6-120_DFT_AB"
|  5>
|  6> %scf
|  7> MaxIter 1000
|  8> end
|  9>
| 10> * xyz 0 1
| 11>   C                      -7.903951            10.391294            -0.645344
| 12>   O                      -6.630779            9.995265             -1.139586
| 13>   H                      -6.397841            9.364542             -0.501918
| 14>   H                      -7.977249            11.437374            -0.268366
| 15>   H                      -8.700423            10.319650            -1.505425
| 16>   H                      -8.252996            9.818288             0.190959
| 17>   C                      -3.753317            8.453076             -3.675091
| 18>   O                      -4.805118            8.529794             -2.662201
| 19>   H                      -4.625615            9.320170             -2.143489
| 20>   H                      -4.141180            7.732325             -4.512452
| 21>   H                      -3.737738            9.356105             -4.145281
| 22>   H                      -2.769466            8.227338             -3.221110
| 23> *
| 24>
| 25> #Run DFT-D3 single point of the molecule with dimer basis set
| 26> $new_job
| 27> %base "6-120_DFT_A"
| 28> ! wB97X-D3 def2-TZVP TIGHTSCF CHELPG PMODEL
| 29>
| 30> %scf
| 31> MaxIter 1000
| 32> end
| 33>
| 34> * xyz 0 1
| 35>   C                      -7.903951            10.391294            -0.645344
| 36>   O                      -6.630779            9.995265             -1.139586
| 37>   H                      -6.397841            9.364542             -0.501918
| 38>   H                      -7.977249            11.437374            -0.268366
| 39>   H                      -8.700423            10.319650            -1.505425
| 40>   H                      -8.252996            9.818288             0.190959
| 41>   C                    : -3.753317            8.453076             -3.675091
| 42>   O                    : -4.805118            8.529794             -2.662201
| 43>   H                    : -4.625615            9.320170             -2.143489
| 44>   H                    : -4.141180            7.732325             -4.512452
| 45>   H                    : -3.737738            9.356105             -4.145281
| 46>   H                    : -2.769466            8.227338             -3.221110
| 47> *
| 48>
| 49> #Run DFT-D3 single point of the particle with dimer basis set
| 50> $new_job
| 51> %base "6-120_DFT_B"
| 52> ! wB97X-D3 def2-TZVP TIGHTSCF CHELPG PMODEL
| 53>
| 54> %scf
| 55> MaxIter 1000
| 56> end
| 57>
| 58> * xyz 0 1
| 59>   C                    : -7.903951            10.391294            -0.645344
| 60>   O                    : -6.630779            9.995265             -1.139586
| 61>   H                    : -6.397841            9.364542             -0.501918
| 62>   H                    : -7.977249            11.437374            -0.268366
| 63>   H                    : -8.700423            10.319650            -1.505425
| 64>   H                    : -8.252996            9.818288             0.190959
| 65>   C                      -3.753317            8.453076             -3.675091
| 66>   O                      -4.805118            8.529794             -2.662201
| 67>   H                      -4.625615            9.320170             -2.143489
| 68>   H                      -4.141180            7.732325             -4.512452
| 69>   H                      -3.737738            9.356105             -4.145281
| 70>   H                      -2.769466            8.227338             -3.221110
| 71> *
| 72>
| 73>                          ****END OF INPUT****
 Total Charge           Charge          ....    0
 Multiplicity           Mult            ....    1
 Number of Electrons    NEL             ....   36
Dispersion correction           -0.001281815
FINAL SINGLE POINT ENERGY      -231.453172447465
Dispersion correction           -0.000260444
FINAL SINGLE POINT ENERGY      -115.727379819458

CARTESIAN COORDINATES (ANGSTROEM)
---------------------------------
  C     -7.903951   10.391294   -0.645344
  O     -6.630779    9.995265   -1.139586
  H     -6.397841    9.364542   -0.501918
  H     -7.977249   11.437374   -0.268366
  H     -8.700423   10.319650   -1.505425
  H     -8.252996    9.818288    0.190959
  C     -3.753317    8.453076   -3.675091
  O     -4.805118    8.529794   -2.662201
  H     -4.625615    9.320170   -2.143489
  H     -4.141180    7.732325   -4.512452
  H     -3.737738    9.356105   -4.145281
  H     -2.769466    8.227338   -3.221110

 Multiplicity           Mult            ....    1
 Number of Electrons    NEL             ....   18
 Basis Dimension        Dim             ....  172

ORBITAL ENERGIES
----------------

  NO   OCC          E(Eh)            E(eV)
   0   2.0000     -19.227807      -523.2152
   1   2.0000     -10.318031      -280.7679
   2   2.0000      -1.121777       -30.5251
   3   2.0000      -0.795778       -21.6542
   4   2.0000      -0.601642       -16.3715
   5   2.0000      -0.549408       -14.9501
   6   2.0000      -0.509525       -13.8649
   7   2.0000      -0.433714       -11.8019
   8   2.0000      -0.376159       -10.2358
   9   0.0000       0.088363         2.4045
  10   0.0000       0.119335         3.2473
  11   0.0000       0.147774         4.0211
  12   0.0000       0.189913         5.1678
  13   0.0000       0.193870         5.2755

MULLIKEN ATOMIC CHARGES
-----------------------
   0 C :   -0.001773
   1 O :   -0.001710
   2 H :   -0.002037
   3 H :    0.000004
   4 H :    0.000033
   5 H :    0.000070
   6 C :   -0.184355
   7 O :   -0.472964
   8 H :    0.310528
   9 H :    0.121497
  10 H :    0.121099
  11 H :    0.109609
Sum of atomic charges:   -0.0000000

LOEWDIN ATOMIC CHARGES
----------------------
   0 C :   -0.000906
   1 O :   -0.011823
   2 H :   -0.003721
   3 H :   -0.000022
   4 H :   -0.000049
   5 H :   -0.000014
   6 C :   -0.349302
   7 O :   -0.107072
   8 H :    0.167652
   9 H :    0.126973
  10 H :    0.078097
  11 H :    0.100189

  Mayer bond orders larger than 0.1
B(  6-C ,  7-O ) :   0.9885 B(  6-C ,  9-H ) :   0.9718 B(  6-C , 10-H ) :   0.9812
B(  6-C , 11-H ) :   0.9698 B(  7-O ,  8-H ) :   0.9020

Dispersion correction           -0.000242918
FINAL SINGLE POINT ENERGY      -115.725534089198

DIPOLE MOMENT
-------------
                                X             Y             Z
Electronic contribution:     -1.19718      -0.02300       1.19981
Nuclear contribution   :      1.74934       0.53191      -1.33468
                        -----------------------------------------
Total Dipole Moment    :      0.55216       0.50891      -0.13486
                        -----------------------------------------
Magnitude (a.u.)       :      0.76293
Magnitude (Debye)      :      1.93920

Rotational constants in cm-1:     4.140968     0.798725     0.764782
Rotational constants in MHz : 124143.088718 23945.187304 22927.580686

                             ****ORCA TERMINATED NORMALLY****
TOTAL RUN TIME: 0 days 0 hours 1 minutes 3 seconds 997 msec
