                         Program Version 4.1.2  - RELEASE  -
|  1> #Run DFT-D3 single point of the dimer
|  2> ! wB97X-D3 def2-TZVP TIGHTSCF CHELPG PMODEL PAL8
|  3>
|  4> %base "3-115_DFT_AB"
|  5>
|  6> %scf
|  7> MaxIter 1000
|  8> end
|  9>
| 10> * xyz 0 1
| 11>   C                      3.223815             -1.120758            5.515775
| 12>   O                      2.667111             -0.042912            6.132013
| 13>   H                      1.858254             0.090101             5.682670
| 14>   H                      3.470362             -1.950153            6.248320
| 15>   H                      2.540332             -1.571278            4.775863
| 16>   H                      4.135189             -0.855422            5.051932
| 17>   C                      0.065464             -4.211763            3.544082
| 18>   O                      0.811758             -3.591508            4.520244
| 19>   H                      1.119619             -4.270361            5.134675
| 20>   H                      0.671421             -4.857393            3.010172
| 21>   H                      -0.768815            -4.826459            3.971872
| 22>   H                      -0.362003            -3.489783            2.859465
| 23> *
| 24>
| 25> #Run DFT-D3 single point of the molecule with dimer basis set
| 26> $new_job
| 27> %base "3-115_DFT_A"
| 28> ! wB97X-D3 def2-TZVP TIGHTSCF CHELPG PMODEL
| 29>
| 30> %scf
| 31> MaxIter 1000
| 32> end
| 33>
| 34> * xyz 0 1
| 35>   C                      3.223815             -1.120758            5.515775
| 36>   O                      2.667111             -0.042912            6.132013
| 37>   H                      1.858254             0.090101             5.682670
| 38>   H                      3.470362             -1.950153            6.248320
| 39>   H                      2.540332             -1.571278            4.775863
| 40>   H                      4.135189             -0.855422            5.051932
| 41>   C                    : 0.065464             -4.211763            3.544082
| 42>   O                    : 0.811758             -3.591508            4.520244
| 43>   H                    : 1.119619             -4.270361            5.134675
| 44>   H                    : 0.671421             -4.857393            3.010172
| 45>   H                    : -0.768815            -4.826459            3.971872
| 46>   H                    : -0.362003            -3.489783            2.859465
| 47> *
| 48>
| 49> #Run DFT-D3 single point of the particle with dimer basis set
| 50> $new_job
| 51> %base "3-115_DFT_B"
| 52> ! wB97X-D3 def2-TZVP TIGHTSCF CHELPG PMODEL
| 53>
| 54> %scf
| 55> MaxIter 1000
| 56> end
| 57>
| 58> * xyz 0 1
| 59>   C                    : 3.223815             -1.120758            5.515775
| 60>   O                    : 2.667111             -0.042912            6.132013
| 61>   H                    : 1.858254             0.090101             5.682670
| 62>   H                    : 3.470362             -1.950153            6.248320
| 63>   H                    : 2.540332             -1.571278            4.775863
| 64>   H                    : 4.135189             -0.855422            5.051932
| 65>   C                      0.065464             -4.211763            3.544082
| 66>   O                      0.811758             -3.591508            4.520244
| 67>   H                      1.119619             -4.270361            5.134675
| 68>   H                      0.671421             -4.857393            3.010172
| 69>   H                      -0.768815            -4.826459            3.971872
| 70>   H                      -0.362003            -3.489783            2.859465
| 71> *
| 72>
| 73>                          ****END OF INPUT****
 Total Charge           Charge          ....    0
 Multiplicity           Mult            ....    1
 Number of Electrons    NEL             ....   36
Dispersion correction           -0.001276588
FINAL SINGLE POINT ENERGY      -231.465826733069
Dispersion correction           -0.000219620
FINAL SINGLE POINT ENERGY      -115.730394421807

CARTESIAN COORDINATES (ANGSTROEM)
---------------------------------
  C      3.223815   -1.120758    5.515775
  O      2.667111   -0.042912    6.132013
  H      1.858254    0.090101    5.682670
  H      3.470362   -1.950153    6.248320
  H      2.540332   -1.571278    4.775863
  H      4.135189   -0.855422    5.051932
  C      0.065464   -4.211763    3.544082
  O      0.811758   -3.591508    4.520244
  H      1.119619   -4.270361    5.134675
  H      0.671421   -4.857393    3.010172
  H     -0.768815   -4.826459    3.971872
  H     -0.362003   -3.489783    2.859465

 Multiplicity           Mult            ....    1
 Number of Electrons    NEL             ....   18
 Basis Dimension        Dim             ....  172

ORBITAL ENERGIES
----------------

  NO   OCC          E(Eh)            E(eV)
   0   2.0000     -19.229459      -523.2602
   1   2.0000     -10.304579      -280.4018
   2   2.0000      -1.147327       -31.2203
   3   2.0000      -0.796858       -21.6836
   4   2.0000      -0.618819       -16.8389
   5   2.0000      -0.548736       -14.9319
   6   2.0000      -0.534683       -14.5495
   7   2.0000      -0.432380       -11.7657
   8   2.0000      -0.370486       -10.0814
   9   0.0000       0.096977         2.6389
  10   0.0000       0.122342         3.3291
  11   0.0000       0.157439         4.2841
  12   0.0000       0.179779         4.8920
  13   0.0000       0.198652         5.4056

MULLIKEN ATOMIC CHARGES
-----------------------
   0 C :    0.002900
   1 O :   -0.000149
   2 H :   -0.000336
   3 H :   -0.000789
   4 H :   -0.008920
   5 H :   -0.000161
   6 C :   -0.148869
   7 O :   -0.464687
   8 H :    0.315463
   9 H :    0.100735
  10 H :    0.087878
  11 H :    0.116936
Sum of atomic charges:    0.0000000

LOEWDIN ATOMIC CHARGES
----------------------
   0 C :   -0.004681
   1 O :   -0.000026
   2 H :   -0.000138
   3 H :   -0.000324
   4 H :   -0.009372
   5 H :   -0.000026
   6 C :   -0.406195
   7 O :   -0.041974
   8 H :    0.177127
   9 H :    0.080109
  10 H :    0.097898
  11 H :    0.107603

  Mayer bond orders larger than 0.1
B(  6-C ,  7-O ) :   0.9948 B(  6-C ,  9-H ) :   0.9830 B(  6-C , 10-H ) :   0.9751
B(  6-C , 11-H ) :   0.9744 B(  7-O ,  8-H ) :   0.8950

Dispersion correction           -0.000211213
FINAL SINGLE POINT ENERGY      -115.733015300148

DIPOLE MOMENT
-------------
                                X             Y             Z
Electronic contribution:      0.98549       0.97467       1.16532
Nuclear contribution   :     -1.06634      -1.64691      -1.16627
                        -----------------------------------------
Total Dipole Moment    :     -0.08085      -0.67224      -0.00095
                        -----------------------------------------
Magnitude (a.u.)       :      0.67709
Magnitude (Debye)      :      1.72102

Rotational constants in cm-1:     4.384535     0.874538     0.837251
Rotational constants in MHz : 131445.053158 26217.990810 25100.142621

                             ****ORCA TERMINATED NORMALLY****
TOTAL RUN TIME: 0 days 0 hours 6 minutes 9 seconds 124 msec
