                         Program Version 4.1.2  - RELEASE  -
|  1> #Run DFT-D3 single point of the dimer
|  2> ! wB97X-D3 def2-TZVP TIGHTSCF CHELPG PMODEL PAL8
|  3>
|  4> %base "15-20_DFT_AB"
|  5>
|  6> %scf
|  7> MaxIter 1000
|  8> end
|  9>
| 10> * xyz 0 1
| 11>   C                      4.420336             -3.631376            1.742753
| 12>   O                      3.162538             -4.207617            1.389367
| 13>   H                      2.908502             -4.657569            2.203867
| 14>   H                      4.810058             -2.966194            0.971924
| 15>   H                      4.419981             -3.156620            2.638260
| 16>   H                      5.257324             -4.385752            1.882703
| 17>   C                      0.539348             -7.166168            0.517284
| 18>   O                      0.719637             -6.836601            -0.852378
| 19>   H                      -0.086676            -6.402254            -1.195676
| 20>   H                      1.415332             -7.554984            1.038854
| 21>   H                      0.234247             -6.288057            1.056190
| 22>   H                      -0.304731            -7.862906            0.678743
| 23> *
| 24>
| 25> #Run DFT-D3 single point of the molecule with dimer basis set
| 26> $new_job
| 27> %base "15-20_DFT_A"
| 28> ! wB97X-D3 def2-TZVP TIGHTSCF CHELPG PMODEL
| 29>
| 30> %scf
| 31> MaxIter 1000
| 32> end
| 33>
| 34> * xyz 0 1
| 35>   C                      4.420336             -3.631376            1.742753
| 36>   O                      3.162538             -4.207617            1.389367
| 37>   H                      2.908502             -4.657569            2.203867
| 38>   H                      4.810058             -2.966194            0.971924
| 39>   H                      4.419981             -3.156620            2.638260
| 40>   H                      5.257324             -4.385752            1.882703
| 41>   C                    : 0.539348             -7.166168            0.517284
| 42>   O                    : 0.719637             -6.836601            -0.852378
| 43>   H                    : -0.086676            -6.402254            -1.195676
| 44>   H                    : 1.415332             -7.554984            1.038854
| 45>   H                    : 0.234247             -6.288057            1.056190
| 46>   H                    : -0.304731            -7.862906            0.678743
| 47> *
| 48>
| 49> #Run DFT-D3 single point of the particle with dimer basis set
| 50> $new_job
| 51> %base "15-20_DFT_B"
| 52> ! wB97X-D3 def2-TZVP TIGHTSCF CHELPG PMODEL
| 53>
| 54> %scf
| 55> MaxIter 1000
| 56> end
| 57>
| 58> * xyz 0 1
| 59>   C                    : 4.420336             -3.631376            1.742753
| 60>   O                    : 3.162538             -4.207617            1.389367
| 61>   H                    : 2.908502             -4.657569            2.203867
| 62>   H                    : 4.810058             -2.966194            0.971924
| 63>   H                    : 4.419981             -3.156620            2.638260
| 64>   H                    : 5.257324             -4.385752            1.882703
| 65>   C                      0.539348             -7.166168            0.517284
| 66>   O                      0.719637             -6.836601            -0.852378
| 67>   H                      -0.086676            -6.402254            -1.195676
| 68>   H                      1.415332             -7.554984            1.038854
| 69>   H                      0.234247             -6.288057            1.056190
| 70>   H                      -0.304731            -7.862906            0.678743
| 71> *
| 72>
| 73>                          ****END OF INPUT****
 Total Charge           Charge          ....    0
 Multiplicity           Mult            ....    1
 Number of Electrons    NEL             ....   36
Dispersion correction           -0.001035505
FINAL SINGLE POINT ENERGY      -231.460940207005
Dispersion correction           -0.000239924
FINAL SINGLE POINT ENERGY      -115.728481841077

CARTESIAN COORDINATES (ANGSTROEM)
---------------------------------
  C      4.420336   -3.631376    1.742753
  O      3.162538   -4.207617    1.389367
  H      2.908502   -4.657569    2.203867
  H      4.810058   -2.966194    0.971924
  H      4.419981   -3.156620    2.638260
  H      5.257324   -4.385752    1.882703
  C      0.539348   -7.166168    0.517284
  O      0.719637   -6.836601   -0.852378
  H     -0.086676   -6.402254   -1.195676
  H      1.415332   -7.554984    1.038854
  H      0.234247   -6.288057    1.056190
  H     -0.304731   -7.862906    0.678743

 Multiplicity           Mult            ....    1
 Number of Electrons    NEL             ....   18
 Basis Dimension        Dim             ....  172

ORBITAL ENERGIES
----------------

  NO   OCC          E(Eh)            E(eV)
   0   2.0000     -19.231499      -523.3157
   1   2.0000     -10.312801      -280.6256
   2   2.0000      -1.129853       -30.7449
   3   2.0000      -0.796745       -21.6805
   4   2.0000      -0.610091       -16.6014
   5   2.0000      -0.534416       -14.5422
   6   2.0000      -0.532891       -14.5007
   7   2.0000      -0.432362       -11.7652
   8   2.0000      -0.370652       -10.0859
   9   0.0000       0.087798         2.3891
  10   0.0000       0.112810         3.0697
  11   0.0000       0.143257         3.8982
  12   0.0000       0.179191         4.8760
  13   0.0000       0.197834         5.3833

MULLIKEN ATOMIC CHARGES
-----------------------
   0 C :    0.000090
   1 O :    0.000139
   2 H :   -0.000400
   3 H :   -0.000000
   4 H :   -0.000009
   5 H :   -0.000005
   6 C :   -0.169373
   7 O :   -0.483880
   8 H :    0.319967
   9 H :    0.126333
  10 H :    0.105998
  11 H :    0.101140
Sum of atomic charges:   -0.0000000

LOEWDIN ATOMIC CHARGES
----------------------
   0 C :   -0.000025
   1 O :   -0.000151
   2 H :   -0.000425
   3 H :   -0.000000
   4 H :   -0.000000
   5 H :   -0.000001
   6 C :   -0.384117
   7 O :   -0.091812
   8 H :    0.180623
   9 H :    0.109015
  10 H :    0.090904
  11 H :    0.095990

  Mayer bond orders larger than 0.1
B(  6-C ,  7-O ) :   0.9907 B(  6-C ,  9-H ) :   0.9701 B(  6-C , 10-H ) :   0.9831
B(  6-C , 11-H ) :   0.9750 B(  7-O ,  8-H ) :   0.8916

Dispersion correction           -0.000245592
FINAL SINGLE POINT ENERGY      -115.732971723627

DIPOLE MOMENT
-------------
                                X             Y             Z
Electronic contribution:      0.49096       0.31923      -1.80241
Nuclear contribution   :     -1.07354      -0.15898       2.15383
                        -----------------------------------------
Total Dipole Moment    :     -0.58257       0.16025       0.35142
                        -----------------------------------------
Magnitude (a.u.)       :      0.69898
Magnitude (Debye)      :      1.77666

Rotational constants in cm-1:     4.405191     0.818354     0.784665
Rotational constants in MHz : 132064.295256 24533.645209 23523.670817

                             ****ORCA TERMINATED NORMALLY****
TOTAL RUN TIME: 0 days 0 hours 0 minutes 56 seconds 25 msec
