                         Program Version 4.1.2  - RELEASE  -
|  1> #Run DFT-D3 single point of the dimer
|  2> ! wB97X-D3 def2-TZVP TIGHTSCF CHELPG PMODEL PAL8
|  3>
|  4> %base "17-36_DFT_AB"
|  5>
|  6> %scf
|  7> MaxIter 1000
|  8> end
|  9>
| 10> * xyz 0 1
| 11>   C                      -11.061836           -2.606470            -4.644816
| 12>   O                      -10.141956           -2.658420            -5.709561
| 13>   H                      -9.563849            -3.404879            -5.487740
| 14>   H                      -11.760266           -1.855055            -4.820786
| 15>   H                      -11.555235           -3.625237            -4.519928
| 16>   H                      -10.483612           -2.275485            -3.754695
| 17>   C                      -9.154546            1.934879             -6.663609
| 18>   O                      -7.723137            1.838977             -6.525834
| 19>   H                      -7.325439            2.560128             -6.967846
| 20>   H                      -9.538992            1.800190             -7.658600
| 21>   H                      -9.758094            1.485448             -5.888381
| 22>   H                      -9.552824            2.964969             -6.674743
| 23> *
| 24>
| 25> #Run DFT-D3 single point of the molecule with dimer basis set
| 26> $new_job
| 27> %base "17-36_DFT_A"
| 28> ! wB97X-D3 def2-TZVP TIGHTSCF CHELPG PMODEL
| 29>
| 30> %scf
| 31> MaxIter 1000
| 32> end
| 33>
| 34> * xyz 0 1
| 35>   C                      -11.061836           -2.606470            -4.644816
| 36>   O                      -10.141956           -2.658420            -5.709561
| 37>   H                      -9.563849            -3.404879            -5.487740
| 38>   H                      -11.760266           -1.855055            -4.820786
| 39>   H                      -11.555235           -3.625237            -4.519928
| 40>   H                      -10.483612           -2.275485            -3.754695
| 41>   C                    : -9.154546            1.934879             -6.663609
| 42>   O                    : -7.723137            1.838977             -6.525834
| 43>   H                    : -7.325439            2.560128             -6.967846
| 44>   H                    : -9.538992            1.800190             -7.658600
| 45>   H                    : -9.758094            1.485448             -5.888381
| 46>   H                    : -9.552824            2.964969             -6.674743
| 47> *
| 48>
| 49> #Run DFT-D3 single point of the particle with dimer basis set
| 50> $new_job
| 51> %base "17-36_DFT_B"
| 52> ! wB97X-D3 def2-TZVP TIGHTSCF CHELPG PMODEL
| 53>
| 54> %scf
| 55> MaxIter 1000
| 56> end
| 57>
| 58> * xyz 0 1
| 59>   C                    : -11.061836           -2.606470            -4.644816
| 60>   O                    : -10.141956           -2.658420            -5.709561
| 61>   H                    : -9.563849            -3.404879            -5.487740
| 62>   H                    : -11.760266           -1.855055            -4.820786
| 63>   H                    : -11.555235           -3.625237            -4.519928
| 64>   H                    : -10.483612           -2.275485            -3.754695
| 65>   C                      -9.154546            1.934879             -6.663609
| 66>   O                      -7.723137            1.838977             -6.525834
| 67>   H                      -7.325439            2.560128             -6.967846
| 68>   H                      -9.538992            1.800190             -7.658600
| 69>   H                      -9.758094            1.485448             -5.888381
| 70>   H                      -9.552824            2.964969             -6.674743
| 71> *
| 72>
| 73>                          ****END OF INPUT****
 Total Charge           Charge          ....    0
 Multiplicity           Mult            ....    1
 Number of Electrons    NEL             ....   36
Dispersion correction           -0.000743041
FINAL SINGLE POINT ENERGY      -231.452090954998
Dispersion correction           -0.000213336
FINAL SINGLE POINT ENERGY      -115.731686182157

CARTESIAN COORDINATES (ANGSTROEM)
---------------------------------
  C    -11.061836   -2.606470   -4.644816
  O    -10.141956   -2.658420   -5.709561
  H     -9.563849   -3.404879   -5.487740
  H    -11.760266   -1.855055   -4.820786
  H    -11.555235   -3.625237   -4.519928
  H    -10.483612   -2.275485   -3.754695
  C     -9.154546    1.934879   -6.663609
  O     -7.723137    1.838977   -6.525834
  H     -7.325439    2.560128   -6.967846
  H     -9.538992    1.800190   -7.658600
  H     -9.758094    1.485448   -5.888381
  H     -9.552824    2.964969   -6.674743

 Multiplicity           Mult            ....    1
 Number of Electrons    NEL             ....   18
 Basis Dimension        Dim             ....  172

ORBITAL ENERGIES
----------------

  NO   OCC          E(Eh)            E(eV)
   0   2.0000     -19.233478      -523.3695
   1   2.0000     -10.314690      -280.6770
   2   2.0000      -1.135165       -30.8894
   3   2.0000      -0.807900       -21.9841
   4   2.0000      -0.622607       -16.9420
   5   2.0000      -0.542791       -14.7701
   6   2.0000      -0.509949       -13.8764
   7   2.0000      -0.441327       -12.0091
   8   2.0000      -0.371913       -10.1203
   9   0.0000       0.087358         2.3771
  10   0.0000       0.116768         3.1774
  11   0.0000       0.144105         3.9213
  12   0.0000       0.168875         4.5953
  13   0.0000       0.183613         4.9964

MULLIKEN ATOMIC CHARGES
-----------------------
   0 C :    0.000072
   1 O :   -0.000007
   2 H :   -0.000000
   3 H :   -0.000085
   4 H :   -0.000002
   5 H :   -0.000024
   6 C :   -0.184094
   7 O :   -0.467727
   8 H :    0.313693
   9 H :    0.104052
  10 H :    0.135468
  11 H :    0.098655
Sum of atomic charges:    0.0000000

LOEWDIN ATOMIC CHARGES
----------------------
   0 C :   -0.000078
   1 O :   -0.000013
   2 H :   -0.000001
   3 H :   -0.000038
   4 H :   -0.000001
   5 H :   -0.000008
   6 C :   -0.379244
   7 O :   -0.077007
   8 H :    0.152819
   9 H :    0.094782
  10 H :    0.108038
  11 H :    0.100751

  Mayer bond orders larger than 0.1
B(  6-C ,  7-O ) :   1.0017 B(  6-C ,  9-H ) :   0.9693 B(  6-C , 10-H ) :   0.9724
B(  6-C , 11-H ) :   0.9755 B(  7-O ,  8-H ) :   0.9026

Dispersion correction           -0.000271072
FINAL SINGLE POINT ENERGY      -115.720492215424

DIPOLE MOMENT
-------------
                                X             Y             Z
Electronic contribution:      1.96559      -0.49686       0.34776
Nuclear contribution   :     -2.30857       1.05702      -0.69577
                        -----------------------------------------
Total Dipole Moment    :     -0.34298       0.56016      -0.34800
                        -----------------------------------------
Magnitude (a.u.)       :      0.74332
Magnitude (Debye)      :      1.88936

Rotational constants in cm-1:     4.672855     0.794938     0.755897
Rotational constants in MHz : 140088.671897 23831.653860 22661.211649

                             ****ORCA TERMINATED NORMALLY****
TOTAL RUN TIME: 0 days 0 hours 1 minutes 6 seconds 79 msec
