                         Program Version 4.1.2  - RELEASE  -
|  1> #Run DFT-D3 single point of the dimer
|  2> ! wB97X-D3 def2-TZVP TIGHTSCF CHELPG PMODEL PAL8
|  3>
|  4> %base "21-114_DFT_AB"
|  5>
|  6> %scf
|  7> MaxIter 1000
|  8> end
|  9>
| 10> * xyz 0 1
| 11>   C                      11.122431            -6.628041            -1.890317
| 12>   O                      9.905243             -7.179315            -1.501402
| 13>   H                      10.068682            -7.746275            -0.749948
| 14>   H                      10.926274            -6.025471            -2.797524
| 15>   H                      11.515017            -5.906287            -1.184463
| 16>   H                      11.829085            -7.345357            -2.185761
| 17>   C                      6.868651             -8.194354            1.781744
| 18>   O                      6.654157             -7.770481            0.421571
| 19>   H                      6.873863             -6.813883            0.366752
| 20>   H                      7.880758             -8.538717            1.956021
| 21>   H                      6.747013             -7.441927            2.505200
| 22>   H                      6.150630             -9.074778            1.958401
| 23> *
| 24>
| 25> #Run DFT-D3 single point of the molecule with dimer basis set
| 26> $new_job
| 27> %base "21-114_DFT_A"
| 28> ! wB97X-D3 def2-TZVP TIGHTSCF CHELPG PMODEL
| 29>
| 30> %scf
| 31> MaxIter 1000
| 32> end
| 33>
| 34> * xyz 0 1
| 35>   C                      11.122431            -6.628041            -1.890317
| 36>   O                      9.905243             -7.179315            -1.501402
| 37>   H                      10.068682            -7.746275            -0.749948
| 38>   H                      10.926274            -6.025471            -2.797524
| 39>   H                      11.515017            -5.906287            -1.184463
| 40>   H                      11.829085            -7.345357            -2.185761
| 41>   C                    : 6.868651             -8.194354            1.781744
| 42>   O                    : 6.654157             -7.770481            0.421571
| 43>   H                    : 6.873863             -6.813883            0.366752
| 44>   H                    : 7.880758             -8.538717            1.956021
| 45>   H                    : 6.747013             -7.441927            2.505200
| 46>   H                    : 6.150630             -9.074778            1.958401
| 47> *
| 48>
| 49> #Run DFT-D3 single point of the particle with dimer basis set
| 50> $new_job
| 51> %base "21-114_DFT_B"
| 52> ! wB97X-D3 def2-TZVP TIGHTSCF CHELPG PMODEL
| 53>
| 54> %scf
| 55> MaxIter 1000
| 56> end
| 57>
| 58> * xyz 0 1
| 59>   C                    : 11.122431            -6.628041            -1.890317
| 60>   O                    : 9.905243             -7.179315            -1.501402
| 61>   H                    : 10.068682            -7.746275            -0.749948
| 62>   H                    : 10.926274            -6.025471            -2.797524
| 63>   H                    : 11.515017            -5.906287            -1.184463
| 64>   H                    : 11.829085            -7.345357            -2.185761
| 65>   C                      6.868651             -8.194354            1.781744
| 66>   O                      6.654157             -7.770481            0.421571
| 67>   H                      6.873863             -6.813883            0.366752
| 68>   H                      7.880758             -8.538717            1.956021
| 69>   H                      6.747013             -7.441927            2.505200
| 70>   H                      6.150630             -9.074778            1.958401
| 71> *
| 72>
| 73>                          ****END OF INPUT****
 Total Charge           Charge          ....    0
 Multiplicity           Mult            ....    1
 Number of Electrons    NEL             ....   36
Dispersion correction           -0.001011242
FINAL SINGLE POINT ENERGY      -231.466661319611
Dispersion correction           -0.000228908
FINAL SINGLE POINT ENERGY      -115.734800178344

CARTESIAN COORDINATES (ANGSTROEM)
---------------------------------
  C     11.122431   -6.628041   -1.890317
  O      9.905243   -7.179315   -1.501402
  H     10.068682   -7.746275   -0.749948
  H     10.926274   -6.025471   -2.797524
  H     11.515017   -5.906287   -1.184463
  H     11.829085   -7.345357   -2.185761
  C      6.868651   -8.194354    1.781744
  O      6.654157   -7.770481    0.421571
  H      6.873863   -6.813883    0.366752
  H      7.880758   -8.538717    1.956021
  H      6.747013   -7.441927    2.505200
  H      6.150630   -9.074778    1.958401

 Multiplicity           Mult            ....    1
 Number of Electrons    NEL             ....   18
 Basis Dimension        Dim             ....  172

ORBITAL ENERGIES
----------------

  NO   OCC          E(Eh)            E(eV)
   0   2.0000     -19.233536      -523.3711
   1   2.0000     -10.314995      -280.6853
   2   2.0000      -1.124477       -30.5986
   3   2.0000      -0.795659       -21.6510
   4   2.0000      -0.611533       -16.6407
   5   2.0000      -0.533289       -14.5115
   6   2.0000      -0.516179       -14.0459
   7   2.0000      -0.441101       -12.0030
   8   2.0000      -0.373169       -10.1544
   9   0.0000       0.085646         2.3305
  10   0.0000       0.113486         3.0881
  11   0.0000       0.150214         4.0875
  12   0.0000       0.169422         4.6102
  13   0.0000       0.191375         5.2076

MULLIKEN ATOMIC CHARGES
-----------------------
   0 C :   -0.000107
   1 O :   -0.000609
   2 H :   -0.001409
   3 H :    0.000027
   4 H :   -0.000012
   5 H :   -0.000002
   6 C :   -0.165237
   7 O :   -0.477778
   8 H :    0.314361
   9 H :    0.102840
  10 H :    0.111122
  11 H :    0.116804
Sum of atomic charges:    0.0000000

LOEWDIN ATOMIC CHARGES
----------------------
   0 C :   -0.000066
   1 O :   -0.000997
   2 H :   -0.001047
   3 H :   -0.000001
   4 H :   -0.000002
   5 H :   -0.000002
   6 C :   -0.369068
   7 O :   -0.105117
   8 H :    0.179281
   9 H :    0.092399
  10 H :    0.084934
  11 H :    0.119687

  Mayer bond orders larger than 0.1
B(  6-C ,  7-O ) :   1.0028 B(  6-C ,  9-H ) :   0.9719 B(  6-C , 10-H ) :   0.9761
B(  6-C , 11-H ) :   0.9768 B(  7-O ,  8-H ) :   0.8975

Dispersion correction           -0.000259878
FINAL SINGLE POINT ENERGY      -115.731356555621

DIPOLE MOMENT
-------------
                                X             Y             Z
Electronic contribution:     -0.31864       0.50323      -1.72309
Nuclear contribution   :      0.54595      -0.04677       2.25941
                        -----------------------------------------
Total Dipole Moment    :      0.22730       0.45646       0.53632
                        -----------------------------------------
Magnitude (a.u.)       :      0.74004
Magnitude (Debye)      :      1.88103

Rotational constants in cm-1:     4.258944     0.808493     0.770138
Rotational constants in MHz : 127679.933871 24238.008757 23088.153709

                             ****ORCA TERMINATED NORMALLY****
TOTAL RUN TIME: 0 days 0 hours 0 minutes 51 seconds 433 msec
