                         Program Version 4.1.2  - RELEASE  -
|  1> #Run DFT-D3 single point of the dimer
|  2> ! wB97X-D3 def2-TZVP TIGHTSCF CHELPG PMODEL PAL8
|  3>
|  4> %base "7-108_DFT_AB"
|  5>
|  6> %scf
|  7> MaxIter 1000
|  8> end
|  9>
| 10> * xyz 0 1
| 11>   C                      -2.638835            -6.614666            -7.420561
| 12>   O                      -2.992376            -6.578243            -8.791841
| 13>   H                      -2.217192            -6.413573            -9.277582
| 14>   H                      -1.667935            -6.968071            -7.283540
| 15>   H                      -2.582873            -5.608869            -6.989358
| 16>   H                      -3.339959            -7.212623            -6.807963
| 17>   C                      -6.221123            -4.822979            -9.893252
| 18>   O                      -4.948785            -4.816886            -10.503039
| 19>   H                      -4.401127            -5.507060            -10.152439
| 20>   H                      -6.455434            -3.745351            -9.562911
| 21>   H                      -7.106524            -5.054642            -10.591477
| 22>   H                      -6.299777            -5.480919            -9.058950
| 23> *
| 24>
| 25> #Run DFT-D3 single point of the molecule with dimer basis set
| 26> $new_job
| 27> %base "7-108_DFT_A"
| 28> ! wB97X-D3 def2-TZVP TIGHTSCF CHELPG PMODEL
| 29>
| 30> %scf
| 31> MaxIter 1000
| 32> end
| 33>
| 34> * xyz 0 1
| 35>   C                      -2.638835            -6.614666            -7.420561
| 36>   O                      -2.992376            -6.578243            -8.791841
| 37>   H                      -2.217192            -6.413573            -9.277582
| 38>   H                      -1.667935            -6.968071            -7.283540
| 39>   H                      -2.582873            -5.608869            -6.989358
| 40>   H                      -3.339959            -7.212623            -6.807963
| 41>   C                    : -6.221123            -4.822979            -9.893252
| 42>   O                    : -4.948785            -4.816886            -10.503039
| 43>   H                    : -4.401127            -5.507060            -10.152439
| 44>   H                    : -6.455434            -3.745351            -9.562911
| 45>   H                    : -7.106524            -5.054642            -10.591477
| 46>   H                    : -6.299777            -5.480919            -9.058950
| 47> *
| 48>
| 49> #Run DFT-D3 single point of the particle with dimer basis set
| 50> $new_job
| 51> %base "7-108_DFT_B"
| 52> ! wB97X-D3 def2-TZVP TIGHTSCF CHELPG PMODEL
| 53>
| 54> %scf
| 55> MaxIter 1000
| 56> end
| 57>
| 58> * xyz 0 1
| 59>   C                    : -2.638835            -6.614666            -7.420561
| 60>   O                    : -2.992376            -6.578243            -8.791841
| 61>   H                    : -2.217192            -6.413573            -9.277582
| 62>   H                    : -1.667935            -6.968071            -7.283540
| 63>   H                    : -2.582873            -5.608869            -6.989358
| 64>   H                    : -3.339959            -7.212623            -6.807963
| 65>   C                      -6.221123            -4.822979            -9.893252
| 66>   O                      -4.948785            -4.816886            -10.503039
| 67>   H                      -4.401127            -5.507060            -10.152439
| 68>   H                      -6.455434            -3.745351            -9.562911
| 69>   H                      -7.106524            -5.054642            -10.591477
| 70>   H                      -6.299777            -5.480919            -9.058950
| 71> *
| 72>
| 73>                          ****END OF INPUT****
 Total Charge           Charge          ....    0
 Multiplicity           Mult            ....    1
 Number of Electrons    NEL             ....   36
Dispersion correction           -0.001501914
FINAL SINGLE POINT ENERGY      -231.469962934272
Dispersion correction           -0.000235168
FINAL SINGLE POINT ENERGY      -115.732561170293

CARTESIAN COORDINATES (ANGSTROEM)
---------------------------------
  C     -2.638835   -6.614666   -7.420561
  O     -2.992376   -6.578243   -8.791841
  H     -2.217192   -6.413573   -9.277582
  H     -1.667935   -6.968071   -7.283540
  H     -2.582873   -5.608869   -6.989358
  H     -3.339959   -7.212623   -6.807963
  C     -6.221123   -4.822979   -9.893252
  O     -4.948785   -4.816886  -10.503039
  H     -4.401127   -5.507060  -10.152439
  H     -6.455434   -3.745351   -9.562911
  H     -7.106524   -5.054642  -10.591477
  H     -6.299777   -5.480919   -9.058950

 Multiplicity           Mult            ....    1
 Number of Electrons    NEL             ....   18
 Basis Dimension        Dim             ....  172

ORBITAL ENERGIES
----------------

  NO   OCC          E(Eh)            E(eV)
   0   2.0000     -19.232286      -523.3371
   1   2.0000     -10.322702      -280.8950
   2   2.0000      -1.140020       -31.0215
   3   2.0000      -0.793016       -21.5791
   4   2.0000      -0.620196       -16.8764
   5   2.0000      -0.531970       -14.4756
   6   2.0000      -0.522410       -14.2155
   7   2.0000      -0.436900       -11.8887
   8   2.0000      -0.369658       -10.0589
   9   0.0000       0.070300         1.9130
  10   0.0000       0.128508         3.4969
  11   0.0000       0.139647         3.8000
  12   0.0000       0.173244         4.7142
  13   0.0000       0.189122         5.1463

MULLIKEN ATOMIC CHARGES
-----------------------
   0 C :   -0.001032
   1 O :   -0.001668
   2 H :   -0.000354
   3 H :    0.000001
   4 H :   -0.000056
   5 H :    0.000041
   6 C :   -0.165516
   7 O :   -0.464613
   8 H :    0.312514
   9 H :    0.106737
  10 H :    0.102835
  11 H :    0.111111
Sum of atomic charges:   -0.0000000

LOEWDIN ATOMIC CHARGES
----------------------
   0 C :   -0.001078
   1 O :   -0.009293
   2 H :   -0.001363
   3 H :   -0.000026
   4 H :   -0.000092
   5 H :   -0.000023
   6 C :   -0.396691
   7 O :   -0.061033
   8 H :    0.163898
   9 H :    0.111295
  10 H :    0.106048
  11 H :    0.088357

  Mayer bond orders larger than 0.1
B(  6-C ,  7-O ) :   1.0052 B(  6-C ,  9-H ) :   0.9769 B(  6-C , 10-H ) :   0.9709
B(  6-C , 11-H ) :   0.9763 B(  7-O ,  8-H ) :   0.9069

Dispersion correction           -0.000272278
FINAL SINGLE POINT ENERGY      -115.730551041639

DIPOLE MOMENT
-------------
                                X             Y             Z
Electronic contribution:      1.74167      -0.05412      -0.81406
Nuclear contribution   :     -1.86513      -0.41797       1.30795
                        -----------------------------------------
Total Dipole Moment    :     -0.12347      -0.47209       0.49389
                        -----------------------------------------
Magnitude (a.u.)       :      0.69429
Magnitude (Debye)      :      1.76474

Rotational constants in cm-1:     4.266829     0.818598     0.789114
Rotational constants in MHz : 127916.311428 24540.946153 23657.029045

                             ****ORCA TERMINATED NORMALLY****
TOTAL RUN TIME: 0 days 0 hours 1 minutes 12 seconds 630 msec
