                         Program Version 4.1.2  - RELEASE  -
|  1> #Run DFT-D3 single point of the dimer
|  2> ! wB97X-D3 def2-TZVP TIGHTSCF CHELPG PMODEL PAL8
|  3>
|  4> %base "15-168_DFT_AB"
|  5>
|  6> %scf
|  7> MaxIter 1000
|  8> end
|  9>
| 10> * xyz 0 1
| 11>   C                      -6.575508            11.139790            -5.753849
| 12>   O                      -5.235632            11.502627            -5.925440
| 13>   H                      -4.668059            11.114250            -5.220568
| 14>   H                      -7.180906            12.044242            -5.578026
| 15>   H                      -6.971407            10.543566            -6.595920
| 16>   H                      -6.679509            10.539642            -4.838182
| 17>   C                      -3.049260            8.948457             -8.437205
| 18>   O                      -3.221949            10.175268            -7.840174
| 19>   H                      -3.348864            10.001014            -6.879773
| 20>   H                      -2.943583            8.955316             -9.517904
| 21>   H                      -2.178757            8.461529             -8.043393
| 22>   H                      -3.825845            8.167008             -8.254017
| 23> *
| 24>
| 25> #Run DFT-D3 single point of the molecule with dimer basis set
| 26> $new_job
| 27> %base "15-168_DFT_A"
| 28> ! wB97X-D3 def2-TZVP TIGHTSCF CHELPG PMODEL
| 29>
| 30> %scf
| 31> MaxIter 1000
| 32> end
| 33>
| 34> * xyz 0 1
| 35>   C                      -6.575508            11.139790            -5.753849
| 36>   O                      -5.235632            11.502627            -5.925440
| 37>   H                      -4.668059            11.114250            -5.220568
| 38>   H                      -7.180906            12.044242            -5.578026
| 39>   H                      -6.971407            10.543566            -6.595920
| 40>   H                      -6.679509            10.539642            -4.838182
| 41>   C                    : -3.049260            8.948457             -8.437205
| 42>   O                    : -3.221949            10.175268            -7.840174
| 43>   H                    : -3.348864            10.001014            -6.879773
| 44>   H                    : -2.943583            8.955316             -9.517904
| 45>   H                    : -2.178757            8.461529             -8.043393
| 46>   H                    : -3.825845            8.167008             -8.254017
| 47> *
| 48>
| 49> #Run DFT-D3 single point of the particle with dimer basis set
| 50> $new_job
| 51> %base "15-168_DFT_B"
| 52> ! wB97X-D3 def2-TZVP TIGHTSCF CHELPG PMODEL
| 53>
| 54> %scf
| 55> MaxIter 1000
| 56> end
| 57>
| 58> * xyz 0 1
| 59>   C                    : -6.575508            11.139790            -5.753849
| 60>   O                    : -5.235632            11.502627            -5.925440
| 61>   H                    : -4.668059            11.114250            -5.220568
| 62>   H                    : -7.180906            12.044242            -5.578026
| 63>   H                    : -6.971407            10.543566            -6.595920
| 64>   H                    : -6.679509            10.539642            -4.838182
| 65>   C                      -3.049260            8.948457             -8.437205
| 66>   O                      -3.221949            10.175268            -7.840174
| 67>   H                      -3.348864            10.001014            -6.879773
| 68>   H                      -2.943583            8.955316             -9.517904
| 69>   H                      -2.178757            8.461529             -8.043393
| 70>   H                      -3.825845            8.167008             -8.254017
| 71> *
| 72>
| 73>                          ****END OF INPUT****
 Total Charge           Charge          ....    0
 Multiplicity           Mult            ....    1
 Number of Electrons    NEL             ....   36
Dispersion correction           -0.001435588
FINAL SINGLE POINT ENERGY      -231.462728238335
Dispersion correction           -0.000248155
FINAL SINGLE POINT ENERGY      -115.734211571401

CARTESIAN COORDINATES (ANGSTROEM)
---------------------------------
  C     -6.575508   11.139790   -5.753849
  O     -5.235632   11.502627   -5.925440
  H     -4.668059   11.114250   -5.220568
  H     -7.180906   12.044242   -5.578026
  H     -6.971407   10.543566   -6.595920
  H     -6.679509   10.539642   -4.838182
  C     -3.049260    8.948457   -8.437205
  O     -3.221949   10.175268   -7.840174
  H     -3.348864   10.001014   -6.879773
  H     -2.943583    8.955316   -9.517904
  H     -2.178757    8.461529   -8.043393
  H     -3.825845    8.167008   -8.254017

 Multiplicity           Mult            ....    1
 Number of Electrons    NEL             ....   18
 Basis Dimension        Dim             ....  172

ORBITAL ENERGIES
----------------

  NO   OCC          E(Eh)            E(eV)
   0   2.0000     -19.237575      -523.4810
   1   2.0000     -10.309197      -280.5275
   2   2.0000      -1.148040       -31.2398
   3   2.0000      -0.794793       -21.6274
   4   2.0000      -0.621172       -16.9030
   5   2.0000      -0.542986       -14.7754
   6   2.0000      -0.532108       -14.4794
   7   2.0000      -0.435273       -11.8444
   8   2.0000      -0.370012       -10.0685
   9   0.0000       0.078718         2.1420
  10   0.0000       0.123806         3.3689
  11   0.0000       0.145832         3.9683
  12   0.0000       0.183500         4.9933
  13   0.0000       0.197030         5.3615

MULLIKEN ATOMIC CHARGES
-----------------------
   0 C :   -0.002626
   1 O :   -0.001532
   2 H :   -0.000282
   3 H :   -0.000037
   4 H :   -0.000093
   5 H :    0.000142
   6 C :   -0.175199
   7 O :   -0.458749
   8 H :    0.324678
   9 H :    0.121453
  10 H :    0.099947
  11 H :    0.092299
Sum of atomic charges:   -0.0000000

LOEWDIN ATOMIC CHARGES
----------------------
   0 C :   -0.001755
   1 O :   -0.005581
   2 H :   -0.002479
   3 H :   -0.000042
   4 H :   -0.000274
   5 H :   -0.000018
   6 C :   -0.426397
   7 O :   -0.047678
   8 H :    0.193401
   9 H :    0.106980
  10 H :    0.088716
  11 H :    0.095128

  Mayer bond orders larger than 0.1
B(  6-C ,  7-O ) :   1.0095 B(  6-C ,  9-H ) :   0.9719 B(  6-C , 10-H ) :   0.9855
B(  6-C , 11-H ) :   0.9704 B(  7-O ,  8-H ) :   0.8884

Dispersion correction           -0.000232700
FINAL SINGLE POINT ENERGY      -115.731357650146

DIPOLE MOMENT
-------------
                                X             Y             Z
Electronic contribution:     -0.23282       1.89644       0.61881
Nuclear contribution   :      0.24033      -2.46096      -0.25058
                        -----------------------------------------
Total Dipole Moment    :      0.00751      -0.56452       0.36823
                        -----------------------------------------
Magnitude (a.u.)       :      0.67404
Magnitude (Debye)      :      1.71328

Rotational constants in cm-1:     4.453712     0.859387     0.820107
Rotational constants in MHz : 133518.928943 25763.765877 24586.197250

                             ****ORCA TERMINATED NORMALLY****
TOTAL RUN TIME: 0 days 0 hours 1 minutes 4 seconds 973 msec
