                         Program Version 4.1.2  - RELEASE  -
|  1> #Run DFT-D3 single point of the dimer
|  2> ! wB97X-D3 def2-TZVP TIGHTSCF CHELPG PMODEL PAL8
|  3>
|  4> %base "13-9_DFT_AB"
|  5>
|  6> %scf
|  7> MaxIter 1000
|  8> end
|  9>
| 10> * xyz 0 1
| 11>   C                      -2.257604            -6.993449            -0.918277
| 12>   O                      -2.080523            -8.395982            -0.827367
| 13>   H                      -2.059170            -8.743386            0.111713
| 14>   H                      -1.423130            -6.407729            -0.539471
| 15>   H                      -2.370768            -6.724110            -2.003700
| 16>   H                      -3.147931            -6.621619            -0.383193
| 17>   C                      0.792838             -9.070158            2.401882
| 18>   O                      0.276286             -9.218674            1.112925
| 19>   H                      0.124117             -10.154247           0.983870
| 20>   H                      1.551485             -9.769572            2.706125
| 21>   H                      1.156227             -7.997919            2.475319
| 22>   H                      0.128918             -9.274081            3.271337
| 23> *
| 24>
| 25> #Run DFT-D3 single point of the molecule with dimer basis set
| 26> $new_job
| 27> %base "13-9_DFT_A"
| 28> ! wB97X-D3 def2-TZVP TIGHTSCF CHELPG PMODEL
| 29>
| 30> %scf
| 31> MaxIter 1000
| 32> end
| 33>
| 34> * xyz 0 1
| 35>   C                      -2.257604            -6.993449            -0.918277
| 36>   O                      -2.080523            -8.395982            -0.827367
| 37>   H                      -2.059170            -8.743386            0.111713
| 38>   H                      -1.423130            -6.407729            -0.539471
| 39>   H                      -2.370768            -6.724110            -2.003700
| 40>   H                      -3.147931            -6.621619            -0.383193
| 41>   C                    : 0.792838             -9.070158            2.401882
| 42>   O                    : 0.276286             -9.218674            1.112925
| 43>   H                    : 0.124117             -10.154247           0.983870
| 44>   H                    : 1.551485             -9.769572            2.706125
| 45>   H                    : 1.156227             -7.997919            2.475319
| 46>   H                    : 0.128918             -9.274081            3.271337
| 47> *
| 48>
| 49> #Run DFT-D3 single point of the particle with dimer basis set
| 50> $new_job
| 51> %base "13-9_DFT_B"
| 52> ! wB97X-D3 def2-TZVP TIGHTSCF CHELPG PMODEL
| 53>
| 54> %scf
| 55> MaxIter 1000
| 56> end
| 57>
| 58> * xyz 0 1
| 59>   C                    : -2.257604            -6.993449            -0.918277
| 60>   O                    : -2.080523            -8.395982            -0.827367
| 61>   H                    : -2.059170            -8.743386            0.111713
| 62>   H                    : -1.423130            -6.407729            -0.539471
| 63>   H                    : -2.370768            -6.724110            -2.003700
| 64>   H                    : -3.147931            -6.621619            -0.383193
| 65>   C                      0.792838             -9.070158            2.401882
| 66>   O                      0.276286             -9.218674            1.112925
| 67>   H                      0.124117             -10.154247           0.983870
| 68>   H                      1.551485             -9.769572            2.706125
| 69>   H                      1.156227             -7.997919            2.475319
| 70>   H                      0.128918             -9.274081            3.271337
| 71> *
| 72>
| 73>                          ****END OF INPUT****
 Total Charge           Charge          ....    0
 Multiplicity           Mult            ....    1
 Number of Electrons    NEL             ....   36
Dispersion correction           -0.001469127
FINAL SINGLE POINT ENERGY      -231.465849594740
Dispersion correction           -0.000274567
FINAL SINGLE POINT ENERGY      -115.734170038480

CARTESIAN COORDINATES (ANGSTROEM)
---------------------------------
  C     -2.257604   -6.993449   -0.918277
  O     -2.080523   -8.395982   -0.827367
  H     -2.059170   -8.743386    0.111713
  H     -1.423130   -6.407729   -0.539471
  H     -2.370768   -6.724110   -2.003700
  H     -3.147931   -6.621619   -0.383193
  C      0.792838   -9.070158    2.401882
  O      0.276286   -9.218674    1.112925
  H      0.124117  -10.154247    0.983870
  H      1.551485   -9.769572    2.706125
  H      1.156227   -7.997919    2.475319
  H      0.128918   -9.274081    3.271337

 Multiplicity           Mult            ....    1
 Number of Electrons    NEL             ....   18
 Basis Dimension        Dim             ....  172

ORBITAL ENERGIES
----------------

  NO   OCC          E(Eh)            E(eV)
   0   2.0000     -19.237756      -523.4860
   1   2.0000     -10.316043      -280.7138
   2   2.0000      -1.147172       -31.2161
   3   2.0000      -0.794953       -21.6318
   4   2.0000      -0.628811       -17.1108
   5   2.0000      -0.527550       -14.3554
   6   2.0000      -0.523749       -14.2519
   7   2.0000      -0.445133       -12.1127
   8   2.0000      -0.371340       -10.1047
   9   0.0000       0.096619         2.6291
  10   0.0000       0.120043         3.2665
  11   0.0000       0.150073         4.0837
  12   0.0000       0.184246         5.0136
  13   0.0000       0.190603         5.1866

MULLIKEN ATOMIC CHARGES
-----------------------
   0 C :    0.000250
   1 O :    0.002208
   2 H :   -0.009285
   3 H :   -0.001028
   4 H :   -0.000049
   5 H :   -0.000049
   6 C :   -0.169187
   7 O :   -0.450685
   8 H :    0.312665
   9 H :    0.103703
  10 H :    0.120447
  11 H :    0.091010
Sum of atomic charges:    0.0000000

LOEWDIN ATOMIC CHARGES
----------------------
   0 C :   -0.001580
   1 O :   -0.002904
   2 H :   -0.011808
   3 H :   -0.000437
   4 H :   -0.000018
   5 H :   -0.000011
   6 C :   -0.414865
   7 O :   -0.041804
   8 H :    0.170388
   9 H :    0.089812
  10 H :    0.119149
  11 H :    0.094078

  Mayer bond orders larger than 0.1
B(  6-C ,  7-O ) :   1.0067 B(  6-C ,  9-H ) :   0.9705 B(  6-C , 10-H ) :   0.9782
B(  6-C , 11-H ) :   0.9643 B(  7-O ,  8-H ) :   0.8991

Dispersion correction           -0.000255173
FINAL SINGLE POINT ENERGY      -115.729873149266

DIPOLE MOMENT
-------------
                                X             Y             Z
Electronic contribution:     -0.67085      -0.09491      -1.86451
Nuclear contribution   :      0.79145      -0.47295       2.26561
                        -----------------------------------------
Total Dipole Moment    :      0.12060      -0.56786       0.40110
                        -----------------------------------------
Magnitude (a.u.)       :      0.70562
Magnitude (Debye)      :      1.79354

Rotational constants in cm-1:     4.354158     0.845423     0.795578
Rotational constants in MHz : 130534.362689 25345.154757 23850.827559

                             ****ORCA TERMINATED NORMALLY****
TOTAL RUN TIME: 0 days 0 hours 1 minutes 7 seconds 563 msec
