                         Program Version 4.1.2  - RELEASE  -
|  1> #Run DFT-D3 single point of the dimer
|  2> ! wB97X-D3 def2-TZVP TIGHTSCF CHELPG PMODEL PAL8
|  3>
|  4> %base "13-113_DFT_AB"
|  5>
|  6> %scf
|  7> MaxIter 1000
|  8> end
|  9>
| 10> * xyz 0 1
| 11>   C                      -6.030512            6.655904             1.816928
| 12>   O                      -5.728468            6.776601             3.218112
| 13>   H                      -4.798940            6.874311             3.255842
| 14>   H                      -7.104650            6.813739             1.601745
| 15>   H                      -5.444522            7.352368             1.185617
| 16>   H                      -5.877691            5.637061             1.551672
| 17>   C                      -3.713729            2.994849             5.056679
| 18>   O                      -3.465774            3.785034             3.908871
| 19>   H                      -3.930081            3.413246             3.108385
| 20>   H                      -4.720237            2.668428             5.182172
| 21>   H                      -3.189832            2.010708             5.015684
| 22>   H                      -3.394363            3.545532             5.974320
| 23> *
| 24>
| 25> #Run DFT-D3 single point of the molecule with dimer basis set
| 26> $new_job
| 27> %base "13-113_DFT_A"
| 28> ! wB97X-D3 def2-TZVP TIGHTSCF CHELPG PMODEL
| 29>
| 30> %scf
| 31> MaxIter 1000
| 32> end
| 33>
| 34> * xyz 0 1
| 35>   C                      -6.030512            6.655904             1.816928
| 36>   O                      -5.728468            6.776601             3.218112
| 37>   H                      -4.798940            6.874311             3.255842
| 38>   H                      -7.104650            6.813739             1.601745
| 39>   H                      -5.444522            7.352368             1.185617
| 40>   H                      -5.877691            5.637061             1.551672
| 41>   C                    : -3.713729            2.994849             5.056679
| 42>   O                    : -3.465774            3.785034             3.908871
| 43>   H                    : -3.930081            3.413246             3.108385
| 44>   H                    : -4.720237            2.668428             5.182172
| 45>   H                    : -3.189832            2.010708             5.015684
| 46>   H                    : -3.394363            3.545532             5.974320
| 47> *
| 48>
| 49> #Run DFT-D3 single point of the particle with dimer basis set
| 50> $new_job
| 51> %base "13-113_DFT_B"
| 52> ! wB97X-D3 def2-TZVP TIGHTSCF CHELPG PMODEL
| 53>
| 54> %scf
| 55> MaxIter 1000
| 56> end
| 57>
| 58> * xyz 0 1
| 59>   C                    : -6.030512            6.655904             1.816928
| 60>   O                    : -5.728468            6.776601             3.218112
| 61>   H                    : -4.798940            6.874311             3.255842
| 62>   H                    : -7.104650            6.813739             1.601745
| 63>   H                    : -5.444522            7.352368             1.185617
| 64>   H                    : -5.877691            5.637061             1.551672
| 65>   C                      -3.713729            2.994849             5.056679
| 66>   O                      -3.465774            3.785034             3.908871
| 67>   H                      -3.930081            3.413246             3.108385
| 68>   H                      -4.720237            2.668428             5.182172
| 69>   H                      -3.189832            2.010708             5.015684
| 70>   H                      -3.394363            3.545532             5.974320
| 71> *
| 72>
| 73>                          ****END OF INPUT****
 Total Charge           Charge          ....    0
 Multiplicity           Mult            ....    1
 Number of Electrons    NEL             ....   36
Dispersion correction           -0.001150515
FINAL SINGLE POINT ENERGY      -231.467070398144
Dispersion correction           -0.000238998
FINAL SINGLE POINT ENERGY      -115.733144117403

CARTESIAN COORDINATES (ANGSTROEM)
---------------------------------
  C     -6.030512    6.655904    1.816928
  O     -5.728468    6.776601    3.218112
  H     -4.798940    6.874311    3.255842
  H     -7.104650    6.813739    1.601745
  H     -5.444522    7.352368    1.185617
  H     -5.877691    5.637061    1.551672
  C     -3.713729    2.994849    5.056679
  O     -3.465774    3.785034    3.908871
  H     -3.930081    3.413246    3.108385
  H     -4.720237    2.668428    5.182172
  H     -3.189832    2.010708    5.015684
  H     -3.394363    3.545532    5.974320

 Multiplicity           Mult            ....    1
 Number of Electrons    NEL             ....   18
 Basis Dimension        Dim             ....  172

ORBITAL ENERGIES
----------------

  NO   OCC          E(Eh)            E(eV)
   0   2.0000     -19.235150      -523.4150
   1   2.0000     -10.314809      -280.6802
   2   2.0000      -1.128193       -30.6997
   3   2.0000      -0.793944       -21.6043
   4   2.0000      -0.614325       -16.7166
   5   2.0000      -0.530528       -14.4364
   6   2.0000      -0.524848       -14.2818
   7   2.0000      -0.435419       -11.8484
   8   2.0000      -0.370591       -10.0843
   9   0.0000       0.085562         2.3283
  10   0.0000       0.119114         3.2412
  11   0.0000       0.149171         4.0592
  12   0.0000       0.173039         4.7086
  13   0.0000       0.199252         5.4219

MULLIKEN ATOMIC CHARGES
-----------------------
   0 C :    0.000499
   1 O :   -0.000254
   2 H :   -0.001840
   3 H :   -0.000040
   4 H :    0.000001
   5 H :   -0.001560
   6 C :   -0.157427
   7 O :   -0.481051
   8 H :    0.319573
   9 H :    0.105490
  10 H :    0.094507
  11 H :    0.122102
Sum of atomic charges:   -0.0000000

LOEWDIN ATOMIC CHARGES
----------------------
   0 C :   -0.000668
   1 O :   -0.000746
   2 H :   -0.002085
   3 H :   -0.000007
   4 H :   -0.000003
   5 H :   -0.000563
   6 C :   -0.392059
   7 O :   -0.092012
   8 H :    0.189948
   9 H :    0.086786
  10 H :    0.096681
  11 H :    0.114728

  Mayer bond orders larger than 0.1
B(  6-C ,  7-O ) :   0.9993 B(  6-C ,  9-H ) :   0.9728 B(  6-C , 10-H ) :   0.9743
B(  6-C , 11-H ) :   0.9725 B(  7-O ,  8-H ) :   0.8884

Dispersion correction           -0.000262049
FINAL SINGLE POINT ENERGY      -115.732609317683

DIPOLE MOMENT
-------------
                                X             Y             Z
Electronic contribution:      0.35933       1.19307      -1.41022
Nuclear contribution   :     -0.77392      -1.75468       1.36671
                        -----------------------------------------
Total Dipole Moment    :     -0.41459      -0.56161      -0.04351
                        -----------------------------------------
Magnitude (a.u.)       :      0.69941
Magnitude (Debye)      :      1.77776

Rotational constants in cm-1:     4.312496     0.821469     0.782238
Rotational constants in MHz : 129285.376936 24627.011813 23450.909825

                             ****ORCA TERMINATED NORMALLY****
TOTAL RUN TIME: 0 days 0 hours 0 minutes 59 seconds 327 msec
