                         Program Version 4.1.2  - RELEASE  -
|  1> #Run DFT-D3 single point of the dimer
|  2> ! wB97X-D3 def2-TZVP TIGHTSCF  CHELPG PAL8
|  3>
|  4> %base "128_charges"
|  5>
|  6> %scf
|  7> MaxIter 1000
|  8> end
|  9> %output
| 10>   Print[ P_Mayer ] 1
| 11>   Print[ P_NatPop ] 1
| 12>   Print[ P_Hirshfeld ] 1
| 13>   Print[ P_Mulliken ] 1
| 14>   Print [ P_Loewdin ] 1
| 15> end
| 16>
| 17> * xyz 0 1
| 18>   C                      -2.853062            10.369724            -1.899821
| 19>   O                      -3.538322            11.117232            -0.968816
| 20>   H                      -3.244509            12.016246            -1.092574
| 21>   H                      -2.358800            9.523188             -1.378648
| 22>   H                      -3.460566            9.942834             -2.746725
| 23>   H                      -2.019897            10.895451            -2.379261
| 24> *
| 25>
| 26>                          ****END OF INPUT****

CARTESIAN COORDINATES (ANGSTROEM)
---------------------------------
  C     -2.853062   10.369724   -1.899821
  O     -3.538322   11.117232   -0.968816
  H     -3.244509   12.016246   -1.092574
  H     -2.358800    9.523188   -1.378648
  H     -3.460566    9.942834   -2.746725
  H     -2.019897   10.895451   -2.379261

 Total Charge           Charge          ....    0
 Multiplicity           Mult            ....    1
 Number of Electrons    NEL             ....   18
 Basis Dimension        Dim             ....   86

ORBITAL ENERGIES
----------------

  NO   OCC          E(Eh)            E(eV)
   0   2.0000     -19.233907      -523.3812
   1   2.0000     -10.314433      -280.6700
   2   2.0000      -1.153361       -31.3845
   3   2.0000      -0.790825       -21.5195
   4   2.0000      -0.623616       -16.9694
   5   2.0000      -0.540618       -14.7110
   6   2.0000      -0.529413       -14.4061
   7   2.0000      -0.432386       -11.7658
   8   2.0000      -0.373180       -10.1547
   9   0.0000       0.113431         3.0866
  10   0.0000       0.153776         4.1844
  11   0.0000       0.195655         5.3240
  12   0.0000       0.208665         5.6781
  13   0.0000       0.241932         6.5833

MULLIKEN ATOMIC CHARGES
-----------------------
   0 C :   -0.172221
   1 O :   -0.453157
   2 H :    0.320066
   3 H :    0.105746
   4 H :    0.098802
   5 H :    0.100765
Sum of atomic charges:   -0.0000000

LOEWDIN ATOMIC CHARGES
----------------------
   0 C :   -0.427827
   1 O :   -0.043101
   2 H :    0.172375
   3 H :    0.103690
   4 H :    0.100493
   5 H :    0.094371

  Mayer bond orders larger than 0.1
B(  0-C ,  1-O ) :   1.0228 B(  0-C ,  3-H ) :   0.9782 B(  0-C ,  4-H ) :   0.9679
B(  0-C ,  5-H ) :   0.9848 B(  1-O ,  2-H ) :   0.8991

Dispersion correction           -0.000246468
FINAL SINGLE POINT ENERGY      -115.732611796678

DIPOLE MOMENT
-------------
                                X             Y             Z
Electronic contribution:     -1.08053       0.99590       1.32815
Nuclear contribution   :      1.54819      -0.65840      -1.73590
                        -----------------------------------------
Total Dipole Moment    :      0.46766       0.33750      -0.40775
                        -----------------------------------------
Magnitude (a.u.)       :      0.70630
Magnitude (Debye)      :      1.79528

Rotational constants in cm-1:     4.297936     0.855813     0.829183
Rotational constants in MHz : 128848.878281 25656.632471 24858.281800

                             ****ORCA TERMINATED NORMALLY****
TOTAL RUN TIME: 0 days 0 hours 0 minutes 43 seconds 102 msec
