                         Program Version 4.1.2  - RELEASE  -
|  1> #Run DFT-D3 single point of the dimer
|  2> ! wB97X-D3 def2-TZVP TIGHTSCF CHELPG PMODEL PAL8
|  3>
|  4> %base "16-104_DFT_AB"
|  5>
|  6> %scf
|  7> MaxIter 1000
|  8> end
|  9>
| 10> * xyz 0 1
| 11>   C                      -5.734501            -10.192023           -5.611026
| 12>   O                      -4.666098            -9.342436            -5.831175
| 13>   H                      -5.044080            -8.663797            -6.404960
| 14>   H                      -6.608225            -9.629141            -5.369410
| 15>   H                      -5.796766            -10.794661           -6.500832
| 16>   H                      -5.543738            -10.761625           -4.659608
| 17>   C                      -5.781501            -5.319190            -2.092413
| 18>   O                      -5.712247            -6.053322            -3.296553
| 19>   H                      -6.555143            -6.160508            -3.721351
| 20>   H                      -4.870997            -4.785849            -1.919133
| 21>   H                      -6.527429            -4.506636            -2.203879
| 22>   H                      -6.080904            -5.932525            -1.301576
| 23> *
| 24>
| 25> #Run DFT-D3 single point of the molecule with dimer basis set
| 26> $new_job
| 27> %base "16-104_DFT_A"
| 28> ! wB97X-D3 def2-TZVP TIGHTSCF CHELPG PMODEL
| 29>
| 30> %scf
| 31> MaxIter 1000
| 32> end
| 33>
| 34> * xyz 0 1
| 35>   C                      -5.734501            -10.192023           -5.611026
| 36>   O                      -4.666098            -9.342436            -5.831175
| 37>   H                      -5.044080            -8.663797            -6.404960
| 38>   H                      -6.608225            -9.629141            -5.369410
| 39>   H                      -5.796766            -10.794661           -6.500832
| 40>   H                      -5.543738            -10.761625           -4.659608
| 41>   C                    : -5.781501            -5.319190            -2.092413
| 42>   O                    : -5.712247            -6.053322            -3.296553
| 43>   H                    : -6.555143            -6.160508            -3.721351
| 44>   H                    : -4.870997            -4.785849            -1.919133
| 45>   H                    : -6.527429            -4.506636            -2.203879
| 46>   H                    : -6.080904            -5.932525            -1.301576
| 47> *
| 48>
| 49> #Run DFT-D3 single point of the particle with dimer basis set
| 50> $new_job
| 51> %base "16-104_DFT_B"
| 52> ! wB97X-D3 def2-TZVP TIGHTSCF CHELPG PMODEL
| 53>
| 54> %scf
| 55> MaxIter 1000
| 56> end
| 57>
| 58> * xyz 0 1
| 59>   C                    : -5.734501            -10.192023           -5.611026
| 60>   O                    : -4.666098            -9.342436            -5.831175
| 61>   H                    : -5.044080            -8.663797            -6.404960
| 62>   H                    : -6.608225            -9.629141            -5.369410
| 63>   H                    : -5.796766            -10.794661           -6.500832
| 64>   H                    : -5.543738            -10.761625           -4.659608
| 65>   C                      -5.781501            -5.319190            -2.092413
| 66>   O                      -5.712247            -6.053322            -3.296553
| 67>   H                      -6.555143            -6.160508            -3.721351
| 68>   H                      -4.870997            -4.785849            -1.919133
| 69>   H                      -6.527429            -4.506636            -2.203879
| 70>   H                      -6.080904            -5.932525            -1.301576
| 71> *
| 72>
| 73>                          ****END OF INPUT****
 Total Charge           Charge          ....    0
 Multiplicity           Mult            ....    1
 Number of Electrons    NEL             ....   36
Dispersion correction           -0.000751996
FINAL SINGLE POINT ENERGY      -231.461475142510
Dispersion correction           -0.000193654
FINAL SINGLE POINT ENERGY      -115.729547703765

CARTESIAN COORDINATES (ANGSTROEM)
---------------------------------
  C     -5.734501  -10.192023   -5.611026
  O     -4.666098   -9.342436   -5.831175
  H     -5.044080   -8.663797   -6.404960
  H     -6.608225   -9.629141   -5.369410
  H     -5.796766  -10.794661   -6.500832
  H     -5.543738  -10.761625   -4.659608
  C     -5.781501   -5.319190   -2.092413
  O     -5.712247   -6.053322   -3.296553
  H     -6.555143   -6.160508   -3.721351
  H     -4.870997   -4.785849   -1.919133
  H     -6.527429   -4.506636   -2.203879
  H     -6.080904   -5.932525   -1.301576

 Multiplicity           Mult            ....    1
 Number of Electrons    NEL             ....   18
 Basis Dimension        Dim             ....  172

ORBITAL ENERGIES
----------------

  NO   OCC          E(Eh)            E(eV)
   0   2.0000     -19.223910      -523.1092
   1   2.0000     -10.307007      -280.4679
   2   2.0000      -1.133471       -30.8433
   3   2.0000      -0.802849       -21.8466
   4   2.0000      -0.611859       -16.6495
   5   2.0000      -0.555135       -15.1060
   6   2.0000      -0.526417       -14.3245
   7   2.0000      -0.422770       -11.5041
   8   2.0000      -0.374311       -10.1855
   9   0.0000       0.088466         2.4073
  10   0.0000       0.120113         3.2684
  11   0.0000       0.155477         4.2307
  12   0.0000       0.177182         4.8214
  13   0.0000       0.200272         5.4497

MULLIKEN ATOMIC CHARGES
-----------------------
   0 C :   -0.000498
   1 O :   -0.000005
   2 H :   -0.000190
   3 H :   -0.000282
   4 H :   -0.000034
   5 H :    0.000095
   6 C :   -0.149945
   7 O :   -0.492275
   8 H :    0.317654
   9 H :    0.121172
  10 H :    0.094665
  11 H :    0.109643
Sum of atomic charges:    0.0000000

LOEWDIN ATOMIC CHARGES
----------------------
   0 C :   -0.000318
   1 O :   -0.000102
   2 H :   -0.000169
   3 H :   -0.000142
   4 H :   -0.000014
   5 H :   -0.000007
   6 C :   -0.371336
   7 O :   -0.076627
   8 H :    0.160340
   9 H :    0.103773
  10 H :    0.098958
  11 H :    0.085644

  Mayer bond orders larger than 0.1
B(  6-C ,  7-O ) :   0.9951 B(  6-C ,  9-H ) :   0.9714 B(  6-C , 10-H ) :   0.9879
B(  6-C , 11-H ) :   0.9755 B(  7-O ,  8-H ) :   0.8963

Dispersion correction           -0.000235088
FINAL SINGLE POINT ENERGY      -115.732727112603

DIPOLE MOMENT
-------------
                                X             Y             Z
Electronic contribution:      0.28892      -1.02557      -1.38797
Nuclear contribution   :     -0.87389       1.28102       1.61108
                        -----------------------------------------
Total Dipole Moment    :     -0.58497       0.25545       0.22312
                        -----------------------------------------
Magnitude (a.u.)       :      0.67618
Magnitude (Debye)      :      1.71872

Rotational constants in cm-1:     4.477020     0.831260     0.808339
Rotational constants in MHz : 134217.681383 24920.542381 24233.384925

                             ****ORCA TERMINATED NORMALLY****
TOTAL RUN TIME: 0 days 0 hours 1 minutes 3 seconds 674 msec
