                         Program Version 4.1.2  - RELEASE  -
|  1> #Run DFT-D3 single point of the dimer
|  2> ! wB97X-D3 def2-TZVP TIGHTSCF CHELPG PMODEL PAL8
|  3>
|  4> %base "19-184_DFT_AB"
|  5>
|  6> %scf
|  7> MaxIter 1000
|  8> end
|  9>
| 10> * xyz 0 1
| 11>   C                      -1.953081            0.452528             -0.283085
| 12>   O                      -2.417833            1.621188             0.379749
| 13>   H                      -2.843032            1.413224             1.202916
| 14>   H                      -2.778291            -0.140561            -0.668962
| 15>   H                      -1.331316            0.778315             -1.150622
| 16>   H                      -1.219793            -0.095008            0.314135
| 17>   C                      -2.210150            4.309729             2.179350
| 18>   O                      -2.099163            3.474252             3.360581
| 19>   H                      -2.770289            2.741984             3.380769
| 20>   H                      -1.626261            3.910436             1.350685
| 21>   H                      -3.312350            4.480102             1.869655
| 22>   H                      -1.674488            5.251024             2.293240
| 23> *
| 24>
| 25> #Run DFT-D3 single point of the molecule with dimer basis set
| 26> $new_job
| 27> %base "19-184_DFT_A"
| 28> ! wB97X-D3 def2-TZVP TIGHTSCF CHELPG PMODEL
| 29>
| 30> %scf
| 31> MaxIter 1000
| 32> end
| 33>
| 34> * xyz 0 1
| 35>   C                      -1.953081            0.452528             -0.283085
| 36>   O                      -2.417833            1.621188             0.379749
| 37>   H                      -2.843032            1.413224             1.202916
| 38>   H                      -2.778291            -0.140561            -0.668962
| 39>   H                      -1.331316            0.778315             -1.150622
| 40>   H                      -1.219793            -0.095008            0.314135
| 41>   C                    : -2.210150            4.309729             2.179350
| 42>   O                    : -2.099163            3.474252             3.360581
| 43>   H                    : -2.770289            2.741984             3.380769
| 44>   H                    : -1.626261            3.910436             1.350685
| 45>   H                    : -3.312350            4.480102             1.869655
| 46>   H                    : -1.674488            5.251024             2.293240
| 47> *
| 48>
| 49> #Run DFT-D3 single point of the particle with dimer basis set
| 50> $new_job
| 51> %base "19-184_DFT_B"
| 52> ! wB97X-D3 def2-TZVP TIGHTSCF CHELPG PMODEL
| 53>
| 54> %scf
| 55> MaxIter 1000
| 56> end
| 57>
| 58> * xyz 0 1
| 59>   C                    : -1.953081            0.452528             -0.283085
| 60>   O                    : -2.417833            1.621188             0.379749
| 61>   H                    : -2.843032            1.413224             1.202916
| 62>   H                    : -2.778291            -0.140561            -0.668962
| 63>   H                    : -1.331316            0.778315             -1.150622
| 64>   H                    : -1.219793            -0.095008            0.314135
| 65>   C                      -2.210150            4.309729             2.179350
| 66>   O                      -2.099163            3.474252             3.360581
| 67>   H                      -2.770289            2.741984             3.380769
| 68>   H                      -1.626261            3.910436             1.350685
| 69>   H                      -3.312350            4.480102             1.869655
| 70>   H                      -1.674488            5.251024             2.293240
| 71> *
| 72>
| 73>                          ****END OF INPUT****
 Total Charge           Charge          ....    0
 Multiplicity           Mult            ....    1
 Number of Electrons    NEL             ....   36
Dispersion correction           -0.001838418
FINAL SINGLE POINT ENERGY      -231.462960811987
Dispersion correction           -0.000255279
FINAL SINGLE POINT ENERGY      -115.735365316371

CARTESIAN COORDINATES (ANGSTROEM)
---------------------------------
  C     -1.953081    0.452528   -0.283085
  O     -2.417833    1.621188    0.379749
  H     -2.843032    1.413224    1.202916
  H     -2.778291   -0.140561   -0.668962
  H     -1.331316    0.778315   -1.150622
  H     -1.219793   -0.095008    0.314135
  C     -2.210150    4.309729    2.179350
  O     -2.099163    3.474252    3.360581
  H     -2.770289    2.741984    3.380769
  H     -1.626261    3.910436    1.350685
  H     -3.312350    4.480102    1.869655
  H     -1.674488    5.251024    2.293240

 Multiplicity           Mult            ....    1
 Number of Electrons    NEL             ....   18
 Basis Dimension        Dim             ....  172

ORBITAL ENERGIES
----------------

  NO   OCC          E(Eh)            E(eV)
   0   2.0000     -19.232698      -523.3483
   1   2.0000     -10.322511      -280.8898
   2   2.0000      -1.116197       -30.3733
   3   2.0000      -0.794712       -21.6252
   4   2.0000      -0.597259       -16.2522
   5   2.0000      -0.538564       -14.6551
   6   2.0000      -0.520221       -14.1559
   7   2.0000      -0.427305       -11.6276
   8   2.0000      -0.371779       -10.1166
   9   0.0000       0.078945         2.1482
  10   0.0000       0.115689         3.1480
  11   0.0000       0.144298         3.9266
  12   0.0000       0.181616         4.9420
  13   0.0000       0.184933         5.0323

MULLIKEN ATOMIC CHARGES
-----------------------
   0 C :    0.000275
   1 O :    0.001566
   2 H :   -0.003812
   3 H :   -0.000009
   4 H :   -0.000123
   5 H :   -0.000063
   6 C :   -0.176007
   7 O :   -0.488284
   8 H :    0.321959
   9 H :    0.108966
  10 H :    0.105833
  11 H :    0.129698
Sum of atomic charges:    0.0000000

LOEWDIN ATOMIC CHARGES
----------------------
   0 C :   -0.000486
   1 O :   -0.005243
   2 H :   -0.004198
   3 H :   -0.000011
   4 H :   -0.000050
   5 H :   -0.000016
   6 C :   -0.368311
   7 O :   -0.118422
   8 H :    0.184481
   9 H :    0.096087
  10 H :    0.109080
  11 H :    0.107088

  Mayer bond orders larger than 0.1
B(  6-C ,  7-O ) :   0.9998 B(  6-C ,  9-H ) :   0.9744 B(  6-C , 10-H ) :   0.9746
B(  6-C , 11-H ) :   0.9728 B(  7-O ,  8-H ) :   0.8898

Dispersion correction           -0.000290635
FINAL SINGLE POINT ENERGY      -115.728131241189

DIPOLE MOMENT
-------------
                                X             Y             Z
Electronic contribution:      0.21357      -0.95850       1.57594
Nuclear contribution   :     -0.65204       0.85820      -2.05958
                        -----------------------------------------
Total Dipole Moment    :     -0.43847      -0.10029      -0.48364
                        -----------------------------------------
Magnitude (a.u.)       :      0.66047
Magnitude (Debye)      :      1.67879

Rotational constants in cm-1:     4.238192     0.785574     0.750063
Rotational constants in MHz : 127057.789511 23550.920674 22486.332797

                             ****ORCA TERMINATED NORMALLY****
TOTAL RUN TIME: 0 days 0 hours 1 minutes 33 seconds 259 msec
