                         Program Version 4.1.2  - RELEASE  -
|  1> #Run DFT-D3 single point of the dimer
|  2> ! wB97X-D3 def2-TZVP TIGHTSCF CHELPG PMODEL PAL8
|  3>
|  4> %base "4-48_DFT_AB"
|  5>
|  6> %scf
|  7> MaxIter 1000
|  8> end
|  9>
| 10> * xyz 0 1
| 11>   C                      4.599833             1.923888             6.602593
| 12>   O                      3.786116             2.729609             7.484004
| 13>   H                      3.607876             3.440949             6.897519
| 14>   H                      5.455821             2.534420             6.223668
| 15>   H                      5.103900             1.124986             7.097621
| 16>   H                      4.070648             1.512387             5.743250
| 17>   C                      5.575884             3.455816             2.278661
| 18>   O                      5.570222             4.240747             1.097227
| 19>   H                      5.316256             5.104723             1.255462
| 20>   H                      6.440792             2.781911             2.223781
| 21>   H                      5.662425             4.071573             3.151950
| 22>   H                      4.681182             2.723832             2.396170
| 23> *
| 24>
| 25> #Run DFT-D3 single point of the molecule with dimer basis set
| 26> $new_job
| 27> %base "4-48_DFT_A"
| 28> ! wB97X-D3 def2-TZVP TIGHTSCF CHELPG PMODEL
| 29>
| 30> %scf
| 31> MaxIter 1000
| 32> end
| 33>
| 34> * xyz 0 1
| 35>   C                      4.599833             1.923888             6.602593
| 36>   O                      3.786116             2.729609             7.484004
| 37>   H                      3.607876             3.440949             6.897519
| 38>   H                      5.455821             2.534420             6.223668
| 39>   H                      5.103900             1.124986             7.097621
| 40>   H                      4.070648             1.512387             5.743250
| 41>   C                    : 5.575884             3.455816             2.278661
| 42>   O                    : 5.570222             4.240747             1.097227
| 43>   H                    : 5.316256             5.104723             1.255462
| 44>   H                    : 6.440792             2.781911             2.223781
| 45>   H                    : 5.662425             4.071573             3.151950
| 46>   H                    : 4.681182             2.723832             2.396170
| 47> *
| 48>
| 49> #Run DFT-D3 single point of the particle with dimer basis set
| 50> $new_job
| 51> %base "4-48_DFT_B"
| 52> ! wB97X-D3 def2-TZVP TIGHTSCF CHELPG PMODEL
| 53>
| 54> %scf
| 55> MaxIter 1000
| 56> end
| 57>
| 58> * xyz 0 1
| 59>   C                    : 4.599833             1.923888             6.602593
| 60>   O                    : 3.786116             2.729609             7.484004
| 61>   H                    : 3.607876             3.440949             6.897519
| 62>   H                    : 5.455821             2.534420             6.223668
| 63>   H                    : 5.103900             1.124986             7.097621
| 64>   H                    : 4.070648             1.512387             5.743250
| 65>   C                      5.575884             3.455816             2.278661
| 66>   O                      5.570222             4.240747             1.097227
| 67>   H                      5.316256             5.104723             1.255462
| 68>   H                      6.440792             2.781911             2.223781
| 69>   H                      5.662425             4.071573             3.151950
| 70>   H                      4.681182             2.723832             2.396170
| 71> *
| 72>
| 73>                          ****END OF INPUT****
 Total Charge           Charge          ....    0
 Multiplicity           Mult            ....    1
 Number of Electrons    NEL             ....   36
Dispersion correction           -0.000975304
FINAL SINGLE POINT ENERGY      -231.461894343196
Dispersion correction           -0.000234917
FINAL SINGLE POINT ENERGY      -115.731259457725

CARTESIAN COORDINATES (ANGSTROEM)
---------------------------------
  C      4.599833    1.923888    6.602593
  O      3.786116    2.729609    7.484004
  H      3.607876    3.440949    6.897519
  H      5.455821    2.534420    6.223668
  H      5.103900    1.124986    7.097621
  H      4.070648    1.512387    5.743250
  C      5.575884    3.455816    2.278661
  O      5.570222    4.240747    1.097227
  H      5.316256    5.104723    1.255462
  H      6.440792    2.781911    2.223781
  H      5.662425    4.071573    3.151950
  H      4.681182    2.723832    2.396170

 Multiplicity           Mult            ....    1
 Number of Electrons    NEL             ....   18
 Basis Dimension        Dim             ....  172

ORBITAL ENERGIES
----------------

  NO   OCC          E(Eh)            E(eV)
   0   2.0000     -19.226019      -523.1666
   1   2.0000     -10.319947      -280.8200
   2   2.0000      -1.142602       -31.0918
   3   2.0000      -0.799452       -21.7542
   4   2.0000      -0.618835       -16.8393
   5   2.0000      -0.536156       -14.5896
   6   2.0000      -0.526006       -14.3134
   7   2.0000      -0.434053       -11.8112
   8   2.0000      -0.372539       -10.1373
   9   0.0000       0.079661         2.1677
  10   0.0000       0.120778         3.2865
  11   0.0000       0.145176         3.9504
  12   0.0000       0.164001         4.4627
  13   0.0000       0.178352         4.8532

MULLIKEN ATOMIC CHARGES
-----------------------
   0 C :    0.000262
   1 O :    0.000010
   2 H :   -0.000027
   3 H :   -0.000347
   4 H :   -0.000030
   5 H :   -0.000333
   6 C :   -0.160928
   7 O :   -0.469539
   8 H :    0.308259
   9 H :    0.117838
  10 H :    0.107850
  11 H :    0.096984
Sum of atomic charges:   -0.0000000

LOEWDIN ATOMIC CHARGES
----------------------
   0 C :   -0.000262
   1 O :   -0.000004
   2 H :   -0.000012
   3 H :   -0.000279
   4 H :   -0.000002
   5 H :   -0.000230
   6 C :   -0.382273
   7 O :   -0.056154
   8 H :    0.135827
   9 H :    0.105803
  10 H :    0.091301
  11 H :    0.106285

  Mayer bond orders larger than 0.1
B(  6-C ,  7-O ) :   1.0099 B(  6-C ,  9-H ) :   0.9771 B(  6-C , 10-H ) :   0.9820
B(  6-C , 11-H ) :   0.9675 B(  7-O ,  8-H ) :   0.9088

Dispersion correction           -0.000266053
FINAL SINGLE POINT ENERGY      -115.730407528731

DIPOLE MOMENT
-------------
                                X             Y             Z
Electronic contribution:      0.02210       1.04723      -1.54173
Nuclear contribution   :     -0.15573      -0.76107       2.13345
                        -----------------------------------------
Total Dipole Moment    :     -0.13363       0.28616       0.59173
                        -----------------------------------------
Magnitude (a.u.)       :      0.67074
Magnitude (Debye)      :      1.70487

Rotational constants in cm-1:     4.365034     0.816392     0.791377
Rotational constants in MHz : 130860.415462 24474.812142 23724.896238

                             ****ORCA TERMINATED NORMALLY****
TOTAL RUN TIME: 0 days 0 hours 1 minutes 24 seconds 884 msec
