                         Program Version 4.1.2  - RELEASE  -
|  1> #Run DFT-D3 single point of the dimer
|  2> ! wB97X-D3 def2-TZVP TIGHTSCF CHELPG PMODEL PAL8
|  3>
|  4> %base "21-43_DFT_AB"
|  5>
|  6> %scf
|  7> MaxIter 1000
|  8> end
|  9>
| 10> * xyz 0 1
| 11>   C                      -4.571858            -8.509217            7.080362
| 12>   O                      -3.583468            -7.449682            7.394431
| 13>   H                      -3.572475            -6.902586            6.640899
| 14>   H                      -4.180799            -9.176255            6.298429
| 15>   H                      -4.673121            -9.129860            7.950470
| 16>   H                      -5.476760            -8.065264            6.898514
| 17>   C                      -1.266745            -9.508084            9.677279
| 18>   O                      -0.693593            -9.929852            8.428572
| 19>   H                      -1.400965            -9.929079            7.821530
| 20>   H                      -2.174994            -10.050690           9.908705
| 21>   H                      -0.611642            -9.846473            10.491533
| 22>   H                      -1.364603            -8.446145            9.822652
| 23> *
| 24>
| 25> #Run DFT-D3 single point of the molecule with dimer basis set
| 26> $new_job
| 27> %base "21-43_DFT_A"
| 28> ! wB97X-D3 def2-TZVP TIGHTSCF CHELPG PMODEL
| 29>
| 30> %scf
| 31> MaxIter 1000
| 32> end
| 33>
| 34> * xyz 0 1
| 35>   C                      -4.571858            -8.509217            7.080362
| 36>   O                      -3.583468            -7.449682            7.394431
| 37>   H                      -3.572475            -6.902586            6.640899
| 38>   H                      -4.180799            -9.176255            6.298429
| 39>   H                      -4.673121            -9.129860            7.950470
| 40>   H                      -5.476760            -8.065264            6.898514
| 41>   C                    : -1.266745            -9.508084            9.677279
| 42>   O                    : -0.693593            -9.929852            8.428572
| 43>   H                    : -1.400965            -9.929079            7.821530
| 44>   H                    : -2.174994            -10.050690           9.908705
| 45>   H                    : -0.611642            -9.846473            10.491533
| 46>   H                    : -1.364603            -8.446145            9.822652
| 47> *
| 48>
| 49> #Run DFT-D3 single point of the particle with dimer basis set
| 50> $new_job
| 51> %base "21-43_DFT_B"
| 52> ! wB97X-D3 def2-TZVP TIGHTSCF CHELPG PMODEL
| 53>
| 54> %scf
| 55> MaxIter 1000
| 56> end
| 57>
| 58> * xyz 0 1
| 59>   C                    : -4.571858            -8.509217            7.080362
| 60>   O                    : -3.583468            -7.449682            7.394431
| 61>   H                    : -3.572475            -6.902586            6.640899
| 62>   H                    : -4.180799            -9.176255            6.298429
| 63>   H                    : -4.673121            -9.129860            7.950470
| 64>   H                    : -5.476760            -8.065264            6.898514
| 65>   C                      -1.266745            -9.508084            9.677279
| 66>   O                      -0.693593            -9.929852            8.428572
| 67>   H                      -1.400965            -9.929079            7.821530
| 68>   H                      -2.174994            -10.050690           9.908705
| 69>   H                      -0.611642            -9.846473            10.491533
| 70>   H                      -1.364603            -8.446145            9.822652
| 71> *
| 72>
| 73>                          ****END OF INPUT****
 Total Charge           Charge          ....    0
 Multiplicity           Mult            ....    1
 Number of Electrons    NEL             ....   36
Dispersion correction           -0.001617281
FINAL SINGLE POINT ENERGY      -231.465100883321
Dispersion correction           -0.000238914
FINAL SINGLE POINT ENERGY      -115.729816030237

CARTESIAN COORDINATES (ANGSTROEM)
---------------------------------
  C     -4.571858   -8.509217    7.080362
  O     -3.583468   -7.449682    7.394431
  H     -3.572475   -6.902586    6.640899
  H     -4.180799   -9.176255    6.298429
  H     -4.673121   -9.129860    7.950470
  H     -5.476760   -8.065264    6.898514
  C     -1.266745   -9.508084    9.677279
  O     -0.693593   -9.929852    8.428572
  H     -1.400965   -9.929079    7.821530
  H     -2.174994  -10.050690    9.908705
  H     -0.611642   -9.846473   10.491533
  H     -1.364603   -8.446145    9.822652

 Multiplicity           Mult            ....    1
 Number of Electrons    NEL             ....   18
 Basis Dimension        Dim             ....  172

ORBITAL ENERGIES
----------------

  NO   OCC          E(Eh)            E(eV)
   0   2.0000     -19.230507      -523.2887
   1   2.0000     -10.311677      -280.5950
   2   2.0000      -1.137265       -30.9466
   3   2.0000      -0.801221       -21.8023
   4   2.0000      -0.608624       -16.5615
   5   2.0000      -0.548471       -14.9247
   6   2.0000      -0.521199       -14.1825
   7   2.0000      -0.433849       -11.8056
   8   2.0000      -0.380879       -10.3643
   9   0.0000       0.069930         1.9029
  10   0.0000       0.131730         3.5846
  11   0.0000       0.147249         4.0069
  12   0.0000       0.155688         4.2365
  13   0.0000       0.194332         5.2880

MULLIKEN ATOMIC CHARGES
-----------------------
   0 C :   -0.000710
   1 O :    0.000162
   2 H :   -0.000001
   3 H :    0.000094
   4 H :   -0.000213
   5 H :   -0.000015
   6 C :   -0.184126
   7 O :   -0.464897
   8 H :    0.308319
   9 H :    0.109093
  10 H :    0.121543
  11 H :    0.110751
Sum of atomic charges:   -0.0000000

LOEWDIN ATOMIC CHARGES
----------------------
   0 C :   -0.001216
   1 O :   -0.000396
   2 H :   -0.000033
   3 H :   -0.000205
   4 H :   -0.000367
   5 H :   -0.000033
   6 C :   -0.371852
   7 O :   -0.074448
   8 H :    0.148463
   9 H :    0.096152
  10 H :    0.111180
  11 H :    0.092755

  Mayer bond orders larger than 0.1
B(  6-C ,  7-O ) :   1.0027 B(  6-C ,  9-H ) :   0.9798 B(  6-C , 10-H ) :   0.9765
B(  6-C , 11-H ) :   0.9692 B(  7-O ,  8-H ) :   0.9120

Dispersion correction           -0.000252824
FINAL SINGLE POINT ENERGY      -115.733272573691

DIPOLE MOMENT
-------------
                                X             Y             Z
Electronic contribution:      0.78710      -0.44134      -1.64543
Nuclear contribution   :     -1.46743       0.59042       1.78573
                        -----------------------------------------
Total Dipole Moment    :     -0.68033       0.14907       0.14030
                        -----------------------------------------
Magnitude (a.u.)       :      0.71047
Magnitude (Debye)      :      1.80586

Rotational constants in cm-1:     4.449829     0.804709     0.785386
Rotational constants in MHz : 133402.528133 24124.582702 23545.270268

                             ****ORCA TERMINATED NORMALLY****
TOTAL RUN TIME: 0 days 0 hours 1 minutes 0 seconds 793 msec
