                         Program Version 4.1.2  - RELEASE  -
|  1> #Run DFT-D3 single point of the dimer
|  2> ! wB97X-D3 def2-TZVP TIGHTSCF CHELPG PMODEL PAL8
|  3>
|  4> %base "9-179_DFT_AB"
|  5>
|  6> %scf
|  7> MaxIter 1000
|  8> end
|  9>
| 10> * xyz 0 1
| 11>   C                      -9.729859            -5.200063            -5.606613
| 12>   O                      -9.668341            -5.632756            -6.981162
| 13>   H                      -9.125837            -6.410606            -7.014796
| 14>   H                      -8.888527            -5.566553            -5.070260
| 15>   H                      -9.735423            -4.085984            -5.456742
| 16>   H                      -10.573634           -5.645137            -5.112291
| 17>   C                      -10.667900           -2.676694            -9.261045
| 18>   O                      -10.091336           -3.275970            -8.068997
| 19>   H                      -9.999850            -4.232679            -8.199208
| 20>   H                      -11.752914           -2.897693            -9.329886
| 21>   H                      -10.726048           -1.600290            -9.227443
| 22>   H                      -10.228046           -3.013178            -10.188570
| 23> *
| 24>
| 25> #Run DFT-D3 single point of the molecule with dimer basis set
| 26> $new_job
| 27> %base "9-179_DFT_A"
| 28> ! wB97X-D3 def2-TZVP TIGHTSCF CHELPG PMODEL
| 29>
| 30> %scf
| 31> MaxIter 1000
| 32> end
| 33>
| 34> * xyz 0 1
| 35>   C                      -9.729859            -5.200063            -5.606613
| 36>   O                      -9.668341            -5.632756            -6.981162
| 37>   H                      -9.125837            -6.410606            -7.014796
| 38>   H                      -8.888527            -5.566553            -5.070260
| 39>   H                      -9.735423            -4.085984            -5.456742
| 40>   H                      -10.573634           -5.645137            -5.112291
| 41>   C                    : -10.667900           -2.676694            -9.261045
| 42>   O                    : -10.091336           -3.275970            -8.068997
| 43>   H                    : -9.999850            -4.232679            -8.199208
| 44>   H                    : -11.752914           -2.897693            -9.329886
| 45>   H                    : -10.726048           -1.600290            -9.227443
| 46>   H                    : -10.228046           -3.013178            -10.188570
| 47> *
| 48>
| 49> #Run DFT-D3 single point of the particle with dimer basis set
| 50> $new_job
| 51> %base "9-179_DFT_B"
| 52> ! wB97X-D3 def2-TZVP TIGHTSCF CHELPG PMODEL
| 53>
| 54> %scf
| 55> MaxIter 1000
| 56> end
| 57>
| 58> * xyz 0 1
| 59>   C                    : -9.729859            -5.200063            -5.606613
| 60>   O                    : -9.668341            -5.632756            -6.981162
| 61>   H                    : -9.125837            -6.410606            -7.014796
| 62>   H                    : -8.888527            -5.566553            -5.070260
| 63>   H                    : -9.735423            -4.085984            -5.456742
| 64>   H                    : -10.573634           -5.645137            -5.112291
| 65>   C                      -10.667900           -2.676694            -9.261045
| 66>   O                      -10.091336           -3.275970            -8.068997
| 67>   H                      -9.999850            -4.232679            -8.199208
| 68>   H                      -11.752914           -2.897693            -9.329886
| 69>   H                      -10.726048           -1.600290            -9.227443
| 70>   H                      -10.228046           -3.013178            -10.188570
| 71> *
| 72>
| 73>                          ****END OF INPUT****
 Total Charge           Charge          ....    0
 Multiplicity           Mult            ....    1
 Number of Electrons    NEL             ....   36
Dispersion correction           -0.001669473
FINAL SINGLE POINT ENERGY      -231.470607692923
Dispersion correction           -0.000250656
FINAL SINGLE POINT ENERGY      -115.732418183867

CARTESIAN COORDINATES (ANGSTROEM)
---------------------------------
  C     -9.729859   -5.200063   -5.606613
  O     -9.668341   -5.632756   -6.981162
  H     -9.125837   -6.410606   -7.014796
  H     -8.888527   -5.566553   -5.070260
  H     -9.735423   -4.085984   -5.456742
  H    -10.573634   -5.645137   -5.112291
  C    -10.667900   -2.676694   -9.261045
  O    -10.091336   -3.275970   -8.068997
  H     -9.999850   -4.232679   -8.199208
  H    -11.752914   -2.897693   -9.329886
  H    -10.726048   -1.600290   -9.227443
  H    -10.228046   -3.013178  -10.188570

 Multiplicity           Mult            ....    1
 Number of Electrons    NEL             ....   18
 Basis Dimension        Dim             ....  172

ORBITAL ENERGIES
----------------

  NO   OCC          E(Eh)            E(eV)
   0   2.0000     -19.233743      -523.3767
   1   2.0000     -10.316229      -280.7189
   2   2.0000      -1.122830       -30.5538
   3   2.0000      -0.801236       -21.8028
   4   2.0000      -0.605276       -16.4704
   5   2.0000      -0.539775       -14.6880
   6   2.0000      -0.521381       -14.1875
   7   2.0000      -0.436590       -11.8802
   8   2.0000      -0.374021       -10.1776
   9   0.0000       0.082206         2.2369
  10   0.0000       0.129251         3.5171
  11   0.0000       0.151019         4.1094
  12   0.0000       0.173396         4.7183
  13   0.0000       0.201160         5.4738

MULLIKEN ATOMIC CHARGES
-----------------------
   0 C :   -0.001425
   1 O :   -0.002116
   2 H :   -0.000213
   3 H :   -0.000196
   4 H :   -0.004846
   5 H :    0.000540
   6 C :   -0.182267
   7 O :   -0.464963
   8 H :    0.312782
   9 H :    0.102565
  10 H :    0.129627
  11 H :    0.110512
Sum of atomic charges:    0.0000000

LOEWDIN ATOMIC CHARGES
----------------------
   0 C :   -0.012125
   1 O :   -0.024634
   2 H :   -0.001044
   3 H :   -0.000149
   4 H :   -0.005102
   5 H :   -0.000140
   6 C :   -0.359883
   7 O :   -0.083858
   8 H :    0.186912
   9 H :    0.099446
  10 H :    0.106843
  11 H :    0.093734

  Mayer bond orders larger than 0.1
B(  6-C ,  7-O ) :   0.9986 B(  6-C ,  9-H ) :   0.9765 B(  6-C , 10-H ) :   0.9728
B(  6-C , 11-H ) :   0.9745 B(  7-O ,  8-H ) :   0.8985

Dispersion correction           -0.000273112
FINAL SINGLE POINT ENERGY      -115.731993101020

DIPOLE MOMENT
-------------
                                X             Y             Z
Electronic contribution:      0.90881      -0.59879       1.54643
Nuclear contribution   :     -1.10498       0.26844      -2.14360
                        -----------------------------------------
Total Dipole Moment    :     -0.19617      -0.33035      -0.59716
                        -----------------------------------------
Magnitude (a.u.)       :      0.71008
Magnitude (Debye)      :      1.80489

Rotational constants in cm-1:     4.444116     0.784900     0.756292
Rotational constants in MHz : 133231.241284 23530.704489 22673.068729

                             ****ORCA TERMINATED NORMALLY****
TOTAL RUN TIME: 0 days 0 hours 0 minutes 46 seconds 892 msec
