                         Program Version 4.1.2  - RELEASE  -
|  1> #Run DFT-D3 single point of the dimer
|  2> ! wB97X-D3 def2-TZVP TIGHTSCF CHELPG PMODEL PAL8
|  3>
|  4> %base "10-205_DFT_AB"
|  5>
|  6> %scf
|  7> MaxIter 1000
|  8> end
|  9>
| 10> * xyz 0 1
| 11>   C                      8.342874             0.104326             4.201428
| 12>   O                      7.583200             -0.980625            4.645904
| 13>   H                      6.758597             -0.933515            4.068780
| 14>   H                      8.598974             -0.101445            3.202489
| 15>   H                      7.803589             1.065992             4.327193
| 16>   H                      9.238974             0.066731             4.795214
| 17>   C                      5.976764             -2.944571            2.875113
| 18>   O                      5.492957             -1.661611            2.561883
| 19>   H                      5.915873             -1.521271            1.681005
| 20>   H                      7.009396             -2.873774            3.214714
| 21>   H                      5.431324             -3.376674            3.701166
| 22>   H                      5.992161             -3.649090            2.055239
| 23> *
| 24>
| 25> #Run DFT-D3 single point of the molecule with dimer basis set
| 26> $new_job
| 27> %base "10-205_DFT_A"
| 28> ! wB97X-D3 def2-TZVP TIGHTSCF CHELPG PMODEL
| 29>
| 30> %scf
| 31> MaxIter 1000
| 32> end
| 33>
| 34> * xyz 0 1
| 35>   C                      8.342874             0.104326             4.201428
| 36>   O                      7.583200             -0.980625            4.645904
| 37>   H                      6.758597             -0.933515            4.068780
| 38>   H                      8.598974             -0.101445            3.202489
| 39>   H                      7.803589             1.065992             4.327193
| 40>   H                      9.238974             0.066731             4.795214
| 41>   C                    : 5.976764             -2.944571            2.875113
| 42>   O                    : 5.492957             -1.661611            2.561883
| 43>   H                    : 5.915873             -1.521271            1.681005
| 44>   H                    : 7.009396             -2.873774            3.214714
| 45>   H                    : 5.431324             -3.376674            3.701166
| 46>   H                    : 5.992161             -3.649090            2.055239
| 47> *
| 48>
| 49> #Run DFT-D3 single point of the particle with dimer basis set
| 50> $new_job
| 51> %base "10-205_DFT_B"
| 52> ! wB97X-D3 def2-TZVP TIGHTSCF CHELPG PMODEL
| 53>
| 54> %scf
| 55> MaxIter 1000
| 56> end
| 57>
| 58> * xyz 0 1
| 59>   C                    : 8.342874             0.104326             4.201428
| 60>   O                    : 7.583200             -0.980625            4.645904
| 61>   H                    : 6.758597             -0.933515            4.068780
| 62>   H                    : 8.598974             -0.101445            3.202489
| 63>   H                    : 7.803589             1.065992             4.327193
| 64>   H                    : 9.238974             0.066731             4.795214
| 65>   C                      5.976764             -2.944571            2.875113
| 66>   O                      5.492957             -1.661611            2.561883
| 67>   H                      5.915873             -1.521271            1.681005
| 68>   H                      7.009396             -2.873774            3.214714
| 69>   H                      5.431324             -3.376674            3.701166
| 70>   H                      5.992161             -3.649090            2.055239
| 71> *
| 72>
| 73>                          ****END OF INPUT****
 Total Charge           Charge          ....    0
 Multiplicity           Mult            ....    1
 Number of Electrons    NEL             ....   36
Dispersion correction           -0.001939533
FINAL SINGLE POINT ENERGY      -231.471713377813
Dispersion correction           -0.000201165
FINAL SINGLE POINT ENERGY      -115.731413015036

CARTESIAN COORDINATES (ANGSTROEM)
---------------------------------
  C      8.342874    0.104326    4.201428
  O      7.583200   -0.980625    4.645904
  H      6.758597   -0.933515    4.068780
  H      8.598974   -0.101445    3.202489
  H      7.803589    1.065992    4.327193
  H      9.238974    0.066731    4.795214
  C      5.976764   -2.944571    2.875113
  O      5.492957   -1.661611    2.561883
  H      5.915873   -1.521271    1.681005
  H      7.009396   -2.873774    3.214714
  H      5.431324   -3.376674    3.701166
  H      5.992161   -3.649090    2.055239

 Multiplicity           Mult            ....    1
 Number of Electrons    NEL             ....   18
 Basis Dimension        Dim             ....  172

ORBITAL ENERGIES
----------------

  NO   OCC          E(Eh)            E(eV)
   0   2.0000     -19.237136      -523.4691
   1   2.0000     -10.308362      -280.5048
   2   2.0000      -1.140020       -31.0215
   3   2.0000      -0.793458       -21.5911
   4   2.0000      -0.612284       -16.6611
   5   2.0000      -0.540114       -14.6973
   6   2.0000      -0.528871       -14.3913
   7   2.0000      -0.445276       -12.1166
   8   2.0000      -0.372634       -10.1399
   9   0.0000       0.088362         2.4044
  10   0.0000       0.125223         3.4075
  11   0.0000       0.151865         4.1325
  12   0.0000       0.189207         5.1486
  13   0.0000       0.192629         5.2417

MULLIKEN ATOMIC CHARGES
-----------------------
   0 C :   -0.002160
   1 O :    0.000838
   2 H :    0.001402
   3 H :   -0.000981
   4 H :    0.000002
   5 H :   -0.000188
   6 C :   -0.179340
   7 O :   -0.462453
   8 H :    0.318048
   9 H :    0.096850
  10 H :    0.117268
  11 H :    0.110713
Sum of atomic charges:   -0.0000000

LOEWDIN ATOMIC CHARGES
----------------------
   0 C :   -0.002960
   1 O :   -0.007714
   2 H :   -0.028578
   3 H :   -0.000541
   4 H :   -0.000071
   5 H :   -0.000039
   6 C :   -0.391492
   7 O :   -0.056774
   8 H :    0.191885
   9 H :    0.097902
  10 H :    0.105988
  11 H :    0.092394

  Mayer bond orders larger than 0.1
B(  6-C ,  7-O ) :   0.9936 B(  6-C ,  9-H ) :   0.9816 B(  6-C , 10-H ) :   0.9777
B(  6-C , 11-H ) :   0.9760 B(  7-O ,  8-H ) :   0.8971

Dispersion correction           -0.000219968
FINAL SINGLE POINT ENERGY      -115.733608525926

DIPOLE MOMENT
-------------
                                X             Y             Z
Electronic contribution:     -0.83449       1.68972      -0.30637
Nuclear contribution   :      1.26500      -2.10147      -0.11073
                        -----------------------------------------
Total Dipole Moment    :      0.43051      -0.41175      -0.41711
                        -----------------------------------------
Magnitude (a.u.)       :      0.72723
Magnitude (Debye)      :      1.84847

Rotational constants in cm-1:     4.299517     0.847213     0.808680
Rotational constants in MHz : 128896.273107 25398.804923 24243.618052

                             ****ORCA TERMINATED NORMALLY****
TOTAL RUN TIME: 0 days 0 hours 1 minutes 10 seconds 599 msec
