                         Program Version 4.1.2  - RELEASE  -
|  1> #Run DFT-D3 single point of the dimer
|  2> ! wB97X-D3 def2-TZVP TIGHTSCF CHELPG PMODEL PAL8
|  3>
|  4> %base "15-109_DFT_AB"
|  5>
|  6> %scf
|  7> MaxIter 1000
|  8> end
|  9>
| 10> * xyz 0 1
| 11>   C                      3.793136             -2.119971            5.263232
| 12>   O                      4.220589             -3.495471            5.145390
| 13>   H                      3.619160             -3.900213            4.545235
| 14>   H                      3.588674             -1.651833            4.345481
| 15>   H                      2.919482             -2.042182            5.867256
| 16>   H                      4.566814             -1.552746            5.743861
| 17>   C                      7.645473             -3.915370            4.272997
| 18>   O                      6.840229             -4.720736            5.101706
| 19>   H                      5.912074             -4.579328            4.841113
| 20>   H                      7.152472             -3.749235            3.316764
| 21>   H                      7.773852             -2.964091            4.696939
| 22>   H                      8.590248             -4.438842            4.029932
| 23> *
| 24>
| 25> #Run DFT-D3 single point of the molecule with dimer basis set
| 26> $new_job
| 27> %base "15-109_DFT_A"
| 28> ! wB97X-D3 def2-TZVP TIGHTSCF CHELPG PMODEL
| 29>
| 30> %scf
| 31> MaxIter 1000
| 32> end
| 33>
| 34> * xyz 0 1
| 35>   C                      3.793136             -2.119971            5.263232
| 36>   O                      4.220589             -3.495471            5.145390
| 37>   H                      3.619160             -3.900213            4.545235
| 38>   H                      3.588674             -1.651833            4.345481
| 39>   H                      2.919482             -2.042182            5.867256
| 40>   H                      4.566814             -1.552746            5.743861
| 41>   C                    : 7.645473             -3.915370            4.272997
| 42>   O                    : 6.840229             -4.720736            5.101706
| 43>   H                    : 5.912074             -4.579328            4.841113
| 44>   H                    : 7.152472             -3.749235            3.316764
| 45>   H                    : 7.773852             -2.964091            4.696939
| 46>   H                    : 8.590248             -4.438842            4.029932
| 47> *
| 48>
| 49> #Run DFT-D3 single point of the particle with dimer basis set
| 50> $new_job
| 51> %base "15-109_DFT_B"
| 52> ! wB97X-D3 def2-TZVP TIGHTSCF CHELPG PMODEL
| 53>
| 54> %scf
| 55> MaxIter 1000
| 56> end
| 57>
| 58> * xyz 0 1
| 59>   C                    : 3.793136             -2.119971            5.263232
| 60>   O                    : 4.220589             -3.495471            5.145390
| 61>   H                    : 3.619160             -3.900213            4.545235
| 62>   H                    : 3.588674             -1.651833            4.345481
| 63>   H                    : 2.919482             -2.042182            5.867256
| 64>   H                    : 4.566814             -1.552746            5.743861
| 65>   C                      7.645473             -3.915370            4.272997
| 66>   O                      6.840229             -4.720736            5.101706
| 67>   H                      5.912074             -4.579328            4.841113
| 68>   H                      7.152472             -3.749235            3.316764
| 69>   H                      7.773852             -2.964091            4.696939
| 70>   H                      8.590248             -4.438842            4.029932
| 71> *
| 72>
| 73>                          ****END OF INPUT****
 Total Charge           Charge          ....    0
 Multiplicity           Mult            ....    1
 Number of Electrons    NEL             ....   36
Dispersion correction           -0.001698262
FINAL SINGLE POINT ENERGY      -231.473260359255
Dispersion correction           -0.000236627
FINAL SINGLE POINT ENERGY      -115.734449208531

CARTESIAN COORDINATES (ANGSTROEM)
---------------------------------
  C      3.793136   -2.119971    5.263232
  O      4.220589   -3.495471    5.145390
  H      3.619160   -3.900213    4.545235
  H      3.588674   -1.651833    4.345481
  H      2.919482   -2.042182    5.867256
  H      4.566814   -1.552746    5.743861
  C      7.645473   -3.915370    4.272997
  O      6.840229   -4.720736    5.101706
  H      5.912074   -4.579328    4.841113
  H      7.152472   -3.749235    3.316764
  H      7.773852   -2.964091    4.696939
  H      8.590248   -4.438842    4.029932

 Multiplicity           Mult            ....    1
 Number of Electrons    NEL             ....   18
 Basis Dimension        Dim             ....  172

ORBITAL ENERGIES
----------------

  NO   OCC          E(Eh)            E(eV)
   0   2.0000     -19.229736      -523.2677
   1   2.0000     -10.307382      -280.4781
   2   2.0000      -1.134734       -30.8777
   3   2.0000      -0.795754       -21.6536
   4   2.0000      -0.611868       -16.6498
   5   2.0000      -0.551324       -15.0023
   6   2.0000      -0.523146       -14.2355
   7   2.0000      -0.430132       -11.7045
   8   2.0000      -0.374358       -10.1868
   9   0.0000       0.069316         1.8862
  10   0.0000       0.128093         3.4856
  11   0.0000       0.144850         3.9416
  12   0.0000       0.172881         4.7043
  13   0.0000       0.197455         5.3730

MULLIKEN ATOMIC CHARGES
-----------------------
   0 C :   -0.001594
   1 O :   -0.005204
   2 H :   -0.000654
   3 H :    0.000008
   4 H :    0.000048
   5 H :   -0.000187
   6 C :   -0.164540
   7 O :   -0.468559
   8 H :    0.316886
   9 H :    0.099135
  10 H :    0.107631
  11 H :    0.117031
Sum of atomic charges:    0.0000000

LOEWDIN ATOMIC CHARGES
----------------------
   0 C :   -0.002065
   1 O :   -0.018369
   2 H :   -0.001990
   3 H :   -0.000041
   4 H :   -0.000050
   5 H :   -0.000193
   6 C :   -0.383701
   7 O :   -0.070723
   8 H :    0.184612
   9 H :    0.095461
  10 H :    0.086689
  11 H :    0.110369

  Mayer bond orders larger than 0.1
B(  6-C ,  7-O ) :   1.0007 B(  6-C ,  9-H ) :   0.9890 B(  6-C , 10-H ) :   0.9739
B(  6-C , 11-H ) :   0.9740 B(  7-O ,  8-H ) :   0.9002

Dispersion correction           -0.000227641
FINAL SINGLE POINT ENERGY      -115.733877104320

DIPOLE MOMENT
-------------
                                X             Y             Z
Electronic contribution:     -0.82684      -1.03500       1.20142
Nuclear contribution   :      0.55762       1.44572      -1.71654
                        -----------------------------------------
Total Dipole Moment    :     -0.26922       0.41072      -0.51513
                        -----------------------------------------
Magnitude (a.u.)       :      0.71171
Magnitude (Debye)      :      1.80902

Rotational constants in cm-1:     4.317929     0.841580     0.810493
Rotational constants in MHz : 129448.241503 25229.932127 24297.974190

                             ****ORCA TERMINATED NORMALLY****
TOTAL RUN TIME: 0 days 0 hours 0 minutes 58 seconds 490 msec
