                         Program Version 4.1.2  - RELEASE  -
|  1> #Run DFT-D3 single point of the dimer
|  2> ! wB97X-D3 def2-TZVP TIGHTSCF  CHELPG PAL8
|  3>
|  4> %base "126_charges"
|  5>
|  6> %scf
|  7> MaxIter 1000
|  8> end
|  9> %output
| 10>   Print[ P_Mayer ] 1
| 11>   Print[ P_NatPop ] 1
| 12>   Print[ P_Hirshfeld ] 1
| 13>   Print[ P_Mulliken ] 1
| 14>   Print [ P_Loewdin ] 1
| 15> end
| 16>
| 17> * xyz 0 1
| 18>   C                      10.268318            -0.064955            3.600848
| 19>   O                      10.077951            1.269679             3.179744
| 20>   H                      9.544538             1.346072             2.377810
| 21>   H                      11.281957            -0.290169            3.953706
| 22>   H                      9.653700             -0.297395            4.438765
| 23>   H                      10.163989            -0.794259            2.777363
| 24> *
| 25>
| 26>                          ****END OF INPUT****

CARTESIAN COORDINATES (ANGSTROEM)
---------------------------------
  C     10.268318   -0.064955    3.600848
  O     10.077951    1.269679    3.179744
  H      9.544538    1.346072    2.377810
  H     11.281957   -0.290169    3.953706
  H      9.653700   -0.297395    4.438765
  H     10.163989   -0.794259    2.777363

 Total Charge           Charge          ....    0
 Multiplicity           Mult            ....    1
 Number of Electrons    NEL             ....   18
 Basis Dimension        Dim             ....   86

ORBITAL ENERGIES
----------------

  NO   OCC          E(Eh)            E(eV)
   0   2.0000     -19.229384      -523.2581
   1   2.0000     -10.311596      -280.5928
   2   2.0000      -1.131764       -30.7969
   3   2.0000      -0.800022       -21.7697
   4   2.0000      -0.612024       -16.6540
   5   2.0000      -0.544674       -14.8213
   6   2.0000      -0.527438       -14.3523
   7   2.0000      -0.423116       -11.5136
   8   2.0000      -0.373877       -10.1737
   9   0.0000       0.115236         3.1357
  10   0.0000       0.151615         4.1256
  11   0.0000       0.201202         5.4750
  12   0.0000       0.212668         5.7870
  13   0.0000       0.229794         6.2530

MULLIKEN ATOMIC CHARGES
-----------------------
   0 C :   -0.153379
   1 O :   -0.487263
   2 H :    0.322224
   3 H :    0.107603
   4 H :    0.109806
   5 H :    0.101008
Sum of atomic charges:    0.0000000

LOEWDIN ATOMIC CHARGES
----------------------
   0 C :   -0.386318
   1 O :   -0.080989
   2 H :    0.172851
   3 H :    0.104006
   4 H :    0.091384
   5 H :    0.099066

  Mayer bond orders larger than 0.1
B(  0-C ,  1-O ) :   1.0075 B(  0-C ,  3-H ) :   0.9730 B(  0-C ,  4-H ) :   0.9783
B(  0-C ,  5-H ) :   0.9830 B(  1-O ,  2-H ) :   0.8927

Dispersion correction           -0.000263908
FINAL SINGLE POINT ENERGY      -115.732251847198

DIPOLE MOMENT
-------------
                                X             Y             Z
Electronic contribution:     -0.26084       1.80416      -0.44768
Nuclear contribution   :      0.00359      -2.30726       0.08452
                        -----------------------------------------
Total Dipole Moment    :     -0.25725      -0.50310      -0.36316
                        -----------------------------------------
Magnitude (a.u.)       :      0.67169
Magnitude (Debye)      :      1.70731

Rotational constants in cm-1:     4.500570     0.818363     0.790766
Rotational constants in MHz : 134923.696666 24533.920361 23706.579228

                             ****ORCA TERMINATED NORMALLY****
TOTAL RUN TIME: 0 days 0 hours 0 minutes 42 seconds 817 msec
