                         Program Version 4.1.2  - RELEASE  -
|  1> #Run DFT-D3 single point of the dimer
|  2> ! wB97X-D3 def2-TZVP TIGHTSCF CHELPG PMODEL PAL8
|  3>
|  4> %base "15-112_DFT_AB"
|  5>
|  6> %scf
|  7> MaxIter 1000
|  8> end
|  9>
| 10> * xyz 0 1
| 11>   C                      3.793136             -2.119971            5.263232
| 12>   O                      4.220589             -3.495471            5.145390
| 13>   H                      3.619160             -3.900213            4.545235
| 14>   H                      3.588674             -1.651833            4.345481
| 15>   H                      2.919482             -2.042182            5.867256
| 16>   H                      4.566814             -1.552746            5.743861
| 17>   C                      4.172070             -4.404791            9.266475
| 18>   O                      4.568291             -5.770132            9.094948
| 19>   H                      5.481680             -5.952398            9.237084
| 20>   H                      3.093478             -4.262770            9.240783
| 21>   H                      4.577018             -4.151827            10.280328
| 22>   H                      4.635899             -3.712360            8.532662
| 23> *
| 24>
| 25> #Run DFT-D3 single point of the molecule with dimer basis set
| 26> $new_job
| 27> %base "15-112_DFT_A"
| 28> ! wB97X-D3 def2-TZVP TIGHTSCF CHELPG PMODEL
| 29>
| 30> %scf
| 31> MaxIter 1000
| 32> end
| 33>
| 34> * xyz 0 1
| 35>   C                      3.793136             -2.119971            5.263232
| 36>   O                      4.220589             -3.495471            5.145390
| 37>   H                      3.619160             -3.900213            4.545235
| 38>   H                      3.588674             -1.651833            4.345481
| 39>   H                      2.919482             -2.042182            5.867256
| 40>   H                      4.566814             -1.552746            5.743861
| 41>   C                    : 4.172070             -4.404791            9.266475
| 42>   O                    : 4.568291             -5.770132            9.094948
| 43>   H                    : 5.481680             -5.952398            9.237084
| 44>   H                    : 3.093478             -4.262770            9.240783
| 45>   H                    : 4.577018             -4.151827            10.280328
| 46>   H                    : 4.635899             -3.712360            8.532662
| 47> *
| 48>
| 49> #Run DFT-D3 single point of the particle with dimer basis set
| 50> $new_job
| 51> %base "15-112_DFT_B"
| 52> ! wB97X-D3 def2-TZVP TIGHTSCF CHELPG PMODEL
| 53>
| 54> %scf
| 55> MaxIter 1000
| 56> end
| 57>
| 58> * xyz 0 1
| 59>   C                    : 3.793136             -2.119971            5.263232
| 60>   O                    : 4.220589             -3.495471            5.145390
| 61>   H                    : 3.619160             -3.900213            4.545235
| 62>   H                    : 3.588674             -1.651833            4.345481
| 63>   H                    : 2.919482             -2.042182            5.867256
| 64>   H                    : 4.566814             -1.552746            5.743861
| 65>   C                      4.172070             -4.404791            9.266475
| 66>   O                      4.568291             -5.770132            9.094948
| 67>   H                      5.481680             -5.952398            9.237084
| 68>   H                      3.093478             -4.262770            9.240783
| 69>   H                      4.577018             -4.151827            10.280328
| 70>   H                      4.635899             -3.712360            8.532662
| 71> *
| 72>
| 73>                          ****END OF INPUT****
 Total Charge           Charge          ....    0
 Multiplicity           Mult            ....    1
 Number of Electrons    NEL             ....   36
Dispersion correction           -0.001118296
FINAL SINGLE POINT ENERGY      -231.465577801661
Dispersion correction           -0.000236627
FINAL SINGLE POINT ENERGY      -115.734190530581

CARTESIAN COORDINATES (ANGSTROEM)
---------------------------------
  C      3.793136   -2.119971    5.263232
  O      4.220589   -3.495471    5.145390
  H      3.619160   -3.900213    4.545235
  H      3.588674   -1.651833    4.345481
  H      2.919482   -2.042182    5.867256
  H      4.566814   -1.552746    5.743861
  C      4.172070   -4.404791    9.266475
  O      4.568291   -5.770132    9.094948
  H      5.481680   -5.952398    9.237084
  H      3.093478   -4.262770    9.240783
  H      4.577018   -4.151827   10.280328
  H      4.635899   -3.712360    8.532662

 Multiplicity           Mult            ....    1
 Number of Electrons    NEL             ....   18
 Basis Dimension        Dim             ....  172

ORBITAL ENERGIES
----------------

  NO   OCC          E(Eh)            E(eV)
   0   2.0000     -19.222757      -523.0778
   1   2.0000     -10.320833      -280.8441
   2   2.0000      -1.128334       -30.7035
   3   2.0000      -0.797759       -21.7081
   4   2.0000      -0.607224       -16.5234
   5   2.0000      -0.539130       -14.6705
   6   2.0000      -0.531457       -14.4617
   7   2.0000      -0.422767       -11.5041
   8   2.0000      -0.369348       -10.0505
   9   0.0000       0.082668         2.2495
  10   0.0000       0.118548         3.2259
  11   0.0000       0.149564         4.0698
  12   0.0000       0.166751         4.5375
  13   0.0000       0.182129         4.9560

MULLIKEN ATOMIC CHARGES
-----------------------
   0 C :    0.000640
   1 O :    0.000015
   2 H :   -0.000003
   3 H :   -0.000035
   4 H :   -0.000316
   5 H :   -0.000352
   6 C :   -0.152533
   7 O :   -0.495333
   8 H :    0.316660
   9 H :    0.128176
  10 H :    0.100385
  11 H :    0.102697
Sum of atomic charges:    0.0000000

LOEWDIN ATOMIC CHARGES
----------------------
   0 C :   -0.000989
   1 O :   -0.000172
   2 H :   -0.000014
   3 H :   -0.000017
   4 H :   -0.000137
   5 H :   -0.000220
   6 C :   -0.367217
   7 O :   -0.089964
   8 H :    0.153042
   9 H :    0.107627
  10 H :    0.101761
  11 H :    0.096300

  Mayer bond orders larger than 0.1
B(  6-C ,  7-O ) :   0.9823 B(  6-C ,  9-H ) :   0.9675 B(  6-C , 10-H ) :   0.9908
B(  6-C , 11-H ) :   0.9676 B(  7-O ,  8-H ) :   0.8962

Dispersion correction           -0.000255729
FINAL SINGLE POINT ENERGY      -115.730874363551

DIPOLE MOMENT
-------------
                                X             Y             Z
Electronic contribution:      0.26510      -1.71255      -0.33392
Nuclear contribution   :      0.16196       2.17104       0.50452
                        -----------------------------------------
Total Dipole Moment    :      0.42705       0.45848       0.17060
                        -----------------------------------------
Magnitude (a.u.)       :      0.64937
Magnitude (Debye)      :      1.65057

Rotational constants in cm-1:     4.322857     0.806198     0.781265
Rotational constants in MHz : 129595.992921 24169.203866 23421.738093

                             ****ORCA TERMINATED NORMALLY****
TOTAL RUN TIME: 0 days 0 hours 0 minutes 58 seconds 325 msec
