                         Program Version 4.1.2  - RELEASE  -
|  1> #Run DFT-D3 single point of the dimer
|  2> ! wB97X-D3 def2-TZVP TIGHTSCF CHELPG PMODEL PAL8
|  3>
|  4> %base "12-52_DFT_AB"
|  5>
|  6> %scf
|  7> MaxIter 1000
|  8> end
|  9>
| 10> * xyz 0 1
| 11>   C                      -2.565252            4.718114             -0.085181
| 12>   O                      -2.001019            4.805665             -1.430314
| 13>   H                      -1.240345            5.338943             -1.221299
| 14>   H                      -1.779562            4.387065             0.613376
| 15>   H                      -2.893558            5.626545             0.347260
| 16>   H                      -3.394099            4.098800             0.009473
| 17>   C                      -3.658527            9.864474             0.998083
| 18>   O                      -3.035005            8.704219             0.723250
| 19>   H                      -3.092916            8.099042             1.478652
| 20>   H                      -3.529899            10.086629            2.048917
| 21>   H                      -3.352869            10.684244            0.445372
| 22>   H                      -4.764026            9.848275             0.938371
| 23> *
| 24>
| 25> #Run DFT-D3 single point of the molecule with dimer basis set
| 26> $new_job
| 27> %base "12-52_DFT_A"
| 28> ! wB97X-D3 def2-TZVP TIGHTSCF CHELPG PMODEL
| 29>
| 30> %scf
| 31> MaxIter 1000
| 32> end
| 33>
| 34> * xyz 0 1
| 35>   C                      -2.565252            4.718114             -0.085181
| 36>   O                      -2.001019            4.805665             -1.430314
| 37>   H                      -1.240345            5.338943             -1.221299
| 38>   H                      -1.779562            4.387065             0.613376
| 39>   H                      -2.893558            5.626545             0.347260
| 40>   H                      -3.394099            4.098800             0.009473
| 41>   C                    : -3.658527            9.864474             0.998083
| 42>   O                    : -3.035005            8.704219             0.723250
| 43>   H                    : -3.092916            8.099042             1.478652
| 44>   H                    : -3.529899            10.086629            2.048917
| 45>   H                    : -3.352869            10.684244            0.445372
| 46>   H                    : -4.764026            9.848275             0.938371
| 47> *
| 48>
| 49> #Run DFT-D3 single point of the particle with dimer basis set
| 50> $new_job
| 51> %base "12-52_DFT_B"
| 52> ! wB97X-D3 def2-TZVP TIGHTSCF CHELPG PMODEL
| 53>
| 54> %scf
| 55> MaxIter 1000
| 56> end
| 57>
| 58> * xyz 0 1
| 59>   C                    : -2.565252            4.718114             -0.085181
| 60>   O                    : -2.001019            4.805665             -1.430314
| 61>   H                    : -1.240345            5.338943             -1.221299
| 62>   H                    : -1.779562            4.387065             0.613376
| 63>   H                    : -2.893558            5.626545             0.347260
| 64>   H                    : -3.394099            4.098800             0.009473
| 65>   C                      -3.658527            9.864474             0.998083
| 66>   O                      -3.035005            8.704219             0.723250
| 67>   H                      -3.092916            8.099042             1.478652
| 68>   H                      -3.529899            10.086629            2.048917
| 69>   H                      -3.352869            10.684244            0.445372
| 70>   H                      -4.764026            9.848275             0.938371
| 71> *
| 72>
| 73>                          ****END OF INPUT****
 Total Charge           Charge          ....    0
 Multiplicity           Mult            ....    1
 Number of Electrons    NEL             ....   36
Dispersion correction           -0.001032317
FINAL SINGLE POINT ENERGY      -231.455046030900
Dispersion correction           -0.000233859
FINAL SINGLE POINT ENERGY      -115.726975528542

CARTESIAN COORDINATES (ANGSTROEM)
---------------------------------
  C     -2.565252    4.718114   -0.085181
  O     -2.001019    4.805665   -1.430314
  H     -1.240345    5.338943   -1.221299
  H     -1.779562    4.387065    0.613376
  H     -2.893558    5.626545    0.347260
  H     -3.394099    4.098800    0.009473
  C     -3.658527    9.864474    0.998083
  O     -3.035005    8.704219    0.723250
  H     -3.092916    8.099042    1.478652
  H     -3.529899   10.086629    2.048917
  H     -3.352869   10.684244    0.445372
  H     -4.764026    9.848275    0.938371

 Multiplicity           Mult            ....    1
 Number of Electrons    NEL             ....   18
 Basis Dimension        Dim             ....  172

ORBITAL ENERGIES
----------------

  NO   OCC          E(Eh)            E(eV)
   0   2.0000     -19.231917      -523.3271
   1   2.0000     -10.301160      -280.3088
   2   2.0000      -1.157085       -31.4859
   3   2.0000      -0.799690       -21.7607
   4   2.0000      -0.629734       -17.1359
   5   2.0000      -0.551052       -14.9949
   6   2.0000      -0.539521       -14.6811
   7   2.0000      -0.429601       -11.6900
   8   2.0000      -0.365996        -9.9592
   9   0.0000       0.087864         2.3909
  10   0.0000       0.118340         3.2202
  11   0.0000       0.156661         4.2630
  12   0.0000       0.172107         4.6833
  13   0.0000       0.200437         5.4542

MULLIKEN ATOMIC CHARGES
-----------------------
   0 C :    0.003958
   1 O :   -0.000039
   2 H :   -0.000162
   3 H :   -0.000148
   4 H :   -0.008087
   5 H :   -0.000099
   6 C :   -0.153971
   7 O :   -0.460349
   8 H :    0.326936
   9 H :    0.090630
  10 H :    0.120333
  11 H :    0.080998
Sum of atomic charges:   -0.0000000

LOEWDIN ATOMIC CHARGES
----------------------
   0 C :   -0.000921
   1 O :   -0.000015
   2 H :   -0.000081
   3 H :   -0.000008
   4 H :   -0.002747
   5 H :   -0.000007
   6 C :   -0.434093
   7 O :   -0.024731
   8 H :    0.184468
   9 H :    0.092566
  10 H :    0.093417
  11 H :    0.092153

  Mayer bond orders larger than 0.1
B(  6-C ,  7-O ) :   1.0196 B(  6-C ,  9-H ) :   0.9959 B(  6-C , 10-H ) :   0.9728
B(  6-C , 11-H ) :   0.9710 B(  7-O ,  8-H ) :   0.8868

Dispersion correction           -0.000217531
FINAL SINGLE POINT ENERGY      -115.727773790836

DIPOLE MOMENT
-------------
                                X             Y             Z
Electronic contribution:      1.01582      -1.51133      -0.66572
Nuclear contribution   :     -1.25028       1.55916       1.26619
                        -----------------------------------------
Total Dipole Moment    :     -0.23446       0.04784       0.60046
                        -----------------------------------------
Magnitude (a.u.)       :      0.64639
Magnitude (Debye)      :      1.64299

Rotational constants in cm-1:     4.579634     0.894680     0.856126
Rotational constants in MHz : 137293.974219 26821.817676 25666.005727

                             ****ORCA TERMINATED NORMALLY****
TOTAL RUN TIME: 0 days 0 hours 1 minutes 0 seconds 370 msec
