                         Program Version 4.1.2  - RELEASE  -
|  1> #Run DFT-D3 single point of the dimer
|  2> ! wB97X-D3 def2-TZVP TIGHTSCF CHELPG PMODEL PAL8
|  3>
|  4> %base "8-61_DFT_AB"
|  5>
|  6> %scf
|  7> MaxIter 1000
|  8> end
|  9>
| 10> * xyz 0 1
| 11>   C                      -1.670944            -9.559233            3.799074
| 12>   O                      -0.481268            -9.603435            3.036567
| 13>   H                      -0.736108            -9.305396            2.153526
| 14>   H                      -2.402088            -10.358033           3.567388
| 15>   H                      -1.449708            -9.797974            4.816966
| 16>   H                      -2.153882            -8.556090            3.774826
| 17>   C                      -0.290439            -5.175821            5.549866
| 18>   O                      0.225482             -4.442483            4.481468
| 19>   H                      0.245512             -4.926578            3.653445
| 20>   H                      0.327945             -6.084188            5.706868
| 21>   H                      -0.064656            -4.679792            6.488860
| 22>   H                      -1.417944            -5.373007            5.521078
| 23> *
| 24>
| 25> #Run DFT-D3 single point of the molecule with dimer basis set
| 26> $new_job
| 27> %base "8-61_DFT_A"
| 28> ! wB97X-D3 def2-TZVP TIGHTSCF CHELPG PMODEL
| 29>
| 30> %scf
| 31> MaxIter 1000
| 32> end
| 33>
| 34> * xyz 0 1
| 35>   C                      -1.670944            -9.559233            3.799074
| 36>   O                      -0.481268            -9.603435            3.036567
| 37>   H                      -0.736108            -9.305396            2.153526
| 38>   H                      -2.402088            -10.358033           3.567388
| 39>   H                      -1.449708            -9.797974            4.816966
| 40>   H                      -2.153882            -8.556090            3.774826
| 41>   C                    : -0.290439            -5.175821            5.549866
| 42>   O                    : 0.225482             -4.442483            4.481468
| 43>   H                    : 0.245512             -4.926578            3.653445
| 44>   H                    : 0.327945             -6.084188            5.706868
| 45>   H                    : -0.064656            -4.679792            6.488860
| 46>   H                    : -1.417944            -5.373007            5.521078
| 47> *
| 48>
| 49> #Run DFT-D3 single point of the particle with dimer basis set
| 50> $new_job
| 51> %base "8-61_DFT_B"
| 52> ! wB97X-D3 def2-TZVP TIGHTSCF CHELPG PMODEL
| 53>
| 54> %scf
| 55> MaxIter 1000
| 56> end
| 57>
| 58> * xyz 0 1
| 59>   C                    : -1.670944            -9.559233            3.799074
| 60>   O                    : -0.481268            -9.603435            3.036567
| 61>   H                    : -0.736108            -9.305396            2.153526
| 62>   H                    : -2.402088            -10.358033           3.567388
| 63>   H                    : -1.449708            -9.797974            4.816966
| 64>   H                    : -2.153882            -8.556090            3.774826
| 65>   C                      -0.290439            -5.175821            5.549866
| 66>   O                      0.225482             -4.442483            4.481468
| 67>   H                      0.245512             -4.926578            3.653445
| 68>   H                      0.327945             -6.084188            5.706868
| 69>   H                      -0.064656            -4.679792            6.488860
| 70>   H                      -1.417944            -5.373007            5.521078
| 71> *
| 72>
| 73>                          ****END OF INPUT****
 Total Charge           Charge          ....    0
 Multiplicity           Mult            ....    1
 Number of Electrons    NEL             ....   36
Dispersion correction           -0.000908042
FINAL SINGLE POINT ENERGY      -231.466680925893
Dispersion correction           -0.000248263
FINAL SINGLE POINT ENERGY      -115.734795005950

CARTESIAN COORDINATES (ANGSTROEM)
---------------------------------
  C     -1.670944   -9.559233    3.799074
  O     -0.481268   -9.603435    3.036567
  H     -0.736108   -9.305396    2.153526
  H     -2.402088  -10.358033    3.567388
  H     -1.449708   -9.797974    4.816966
  H     -2.153882   -8.556090    3.774826
  C     -0.290439   -5.175821    5.549866
  O      0.225482   -4.442483    4.481468
  H      0.245512   -4.926578    3.653445
  H      0.327945   -6.084188    5.706868
  H     -0.064656   -4.679792    6.488860
  H     -1.417944   -5.373007    5.521078

 Multiplicity           Mult            ....    1
 Number of Electrons    NEL             ....   18
 Basis Dimension        Dim             ....  172

ORBITAL ENERGIES
----------------

  NO   OCC          E(Eh)            E(eV)
   0   2.0000     -19.229734      -523.2677
   1   2.0000     -10.317614      -280.7565
   2   2.0000      -1.139209       -30.9994
   3   2.0000      -0.795546       -21.6479
   4   2.0000      -0.611071       -16.6281
   5   2.0000      -0.545678       -14.8486
   6   2.0000      -0.527963       -14.3666
   7   2.0000      -0.417364       -11.3571
   8   2.0000      -0.375144       -10.2082
   9   0.0000       0.077740         2.1154
  10   0.0000       0.119616         3.2549
  11   0.0000       0.144277         3.9260
  12   0.0000       0.166573         4.5327
  13   0.0000       0.178664         4.8617

MULLIKEN ATOMIC CHARGES
-----------------------
   0 C :    0.000145
   1 O :   -0.000022
   2 H :   -0.000006
   3 H :   -0.000001
   4 H :   -0.000114
   5 H :   -0.000106
   6 C :   -0.152345
   7 O :   -0.481308
   8 H :    0.319421
   9 H :    0.096468
  10 H :    0.120094
  11 H :    0.097776
Sum of atomic charges:   -0.0000000

LOEWDIN ATOMIC CHARGES
----------------------
   0 C :   -0.000172
   1 O :   -0.000008
   2 H :   -0.000004
   3 H :   -0.000001
   4 H :   -0.000047
   5 H :   -0.000134
   6 C :   -0.410831
   7 O :   -0.064607
   8 H :    0.168304
   9 H :    0.098025
  10 H :    0.107031
  11 H :    0.102444

  Mayer bond orders larger than 0.1
B(  6-C ,  7-O ) :   1.0050 B(  6-C ,  9-H ) :   0.9818 B(  6-C , 10-H ) :   0.9704
B(  6-C , 11-H ) :   0.9675 B(  7-O ,  8-H ) :   0.8930

Dispersion correction           -0.000266647
FINAL SINGLE POINT ENERGY      -115.731359684490

DIPOLE MOMENT
-------------
                                X             Y             Z
Electronic contribution:      0.60685       1.07367      -1.41101
Nuclear contribution   :     -0.75584      -1.66399       1.31436
                        -----------------------------------------
Total Dipole Moment    :     -0.14900      -0.59032      -0.09665
                        -----------------------------------------
Magnitude (a.u.)       :      0.61646
Magnitude (Debye)      :      1.56692

Rotational constants in cm-1:     4.308285     0.825236     0.813777
Rotational constants in MHz : 129159.149731 24739.954767 24396.431140

                             ****ORCA TERMINATED NORMALLY****
TOTAL RUN TIME: 0 days 0 hours 0 minutes 43 seconds 700 msec
