                         Program Version 4.1.2  - RELEASE  -
|  1> #Run DFT-D3 single point of the dimer
|  2> ! wB97X-D3 def2-TZVP TIGHTSCF CHELPG PMODEL PAL8
|  3>
|  4> %base "3-170_DFT_AB"
|  5>
|  6> %scf
|  7> MaxIter 1000
|  8> end
|  9>
| 10> * xyz 0 1
| 11>   C                      9.317209             -10.534982           -1.717924
| 12>   O                      9.210696             -9.285179            -2.380809
| 13>   H                      8.920651             -9.409764            -3.293410
| 14>   H                      8.353681             -10.771040           -1.223376
| 15>   H                      9.593112             -11.371253           -2.394576
| 16>   H                      10.014606            -10.479013           -0.886625
| 17>   C                      7.824149             -6.541782            -2.938392
| 18>   O                      6.838613             -6.343580            -3.974668
| 19>   H                      6.273689             -7.114405            -3.803424
| 20>   H                      8.641501             -7.009749            -3.332158
| 21>   H                      8.094999             -5.546398            -2.500354
| 22>   H                      7.388448             -7.062077            -2.040342
| 23> *
| 24>
| 25> #Run DFT-D3 single point of the molecule with dimer basis set
| 26> $new_job
| 27> %base "3-170_DFT_A"
| 28> ! wB97X-D3 def2-TZVP TIGHTSCF CHELPG PMODEL
| 29>
| 30> %scf
| 31> MaxIter 1000
| 32> end
| 33>
| 34> * xyz 0 1
| 35>   C                      9.317209             -10.534982           -1.717924
| 36>   O                      9.210696             -9.285179            -2.380809
| 37>   H                      8.920651             -9.409764            -3.293410
| 38>   H                      8.353681             -10.771040           -1.223376
| 39>   H                      9.593112             -11.371253           -2.394576
| 40>   H                      10.014606            -10.479013           -0.886625
| 41>   C                    : 7.824149             -6.541782            -2.938392
| 42>   O                    : 6.838613             -6.343580            -3.974668
| 43>   H                    : 6.273689             -7.114405            -3.803424
| 44>   H                    : 8.641501             -7.009749            -3.332158
| 45>   H                    : 8.094999             -5.546398            -2.500354
| 46>   H                    : 7.388448             -7.062077            -2.040342
| 47> *
| 48>
| 49> #Run DFT-D3 single point of the particle with dimer basis set
| 50> $new_job
| 51> %base "3-170_DFT_B"
| 52> ! wB97X-D3 def2-TZVP TIGHTSCF CHELPG PMODEL
| 53>
| 54> %scf
| 55> MaxIter 1000
| 56> end
| 57>
| 58> * xyz 0 1
| 59>   C                    : 9.317209             -10.534982           -1.717924
| 60>   O                    : 9.210696             -9.285179            -2.380809
| 61>   H                    : 8.920651             -9.409764            -3.293410
| 62>   H                    : 8.353681             -10.771040           -1.223376
| 63>   H                    : 9.593112             -11.371253           -2.394576
| 64>   H                    : 10.014606            -10.479013           -0.886625
| 65>   C                      7.824149             -6.541782            -2.938392
| 66>   O                      6.838613             -6.343580            -3.974668
| 67>   H                      6.273689             -7.114405            -3.803424
| 68>   H                      8.641501             -7.009749            -3.332158
| 69>   H                      8.094999             -5.546398            -2.500354
| 70>   H                      7.388448             -7.062077            -2.040342
| 71> *
| 72>
| 73>                          ****END OF INPUT****
 Total Charge           Charge          ....    0
 Multiplicity           Mult            ....    1
 Number of Electrons    NEL             ....   36
Dispersion correction           -0.001623001
FINAL SINGLE POINT ENERGY      -231.463841620084
Dispersion correction           -0.000257281
FINAL SINGLE POINT ENERGY      -115.735577509806

CARTESIAN COORDINATES (ANGSTROEM)
---------------------------------
  C      9.317209  -10.534982   -1.717924
  O      9.210696   -9.285179   -2.380809
  H      8.920651   -9.409764   -3.293410
  H      8.353681  -10.771040   -1.223376
  H      9.593112  -11.371253   -2.394576
  H     10.014606  -10.479013   -0.886625
  C      7.824149   -6.541782   -2.938392
  O      6.838613   -6.343580   -3.974668
  H      6.273689   -7.114405   -3.803424
  H      8.641501   -7.009749   -3.332158
  H      8.094999   -5.546398   -2.500354
  H      7.388448   -7.062077   -2.040342

 Multiplicity           Mult            ....    1
 Number of Electrons    NEL             ....   18
 Basis Dimension        Dim             ....  172

ORBITAL ENERGIES
----------------

  NO   OCC          E(Eh)            E(eV)
   0   2.0000     -19.231830      -523.3247
   1   2.0000     -10.313306      -280.6393
   2   2.0000      -1.130250       -30.7557
   3   2.0000      -0.793871       -21.6023
   4   2.0000      -0.599684       -16.3182
   5   2.0000      -0.557295       -15.1648
   6   2.0000      -0.514458       -13.9991
   7   2.0000      -0.436096       -11.8668
   8   2.0000      -0.378293       -10.2939
   9   0.0000       0.079920         2.1747
  10   0.0000       0.114852         3.1253
  11   0.0000       0.152011         4.1364
  12   0.0000       0.164532         4.4771
  13   0.0000       0.190439         5.1821

MULLIKEN ATOMIC CHARGES
-----------------------
   0 C :   -0.001498
   1 O :   -0.002612
   2 H :    0.001223
   3 H :   -0.000014
   4 H :    0.000027
   5 H :    0.000017
   6 C :   -0.177942
   7 O :   -0.463558
   8 H :    0.314771
   9 H :    0.119857
  10 H :    0.108679
  11 H :    0.101048
Sum of atomic charges:   -0.0000000

LOEWDIN ATOMIC CHARGES
----------------------
   0 C :   -0.000676
   1 O :   -0.007605
   2 H :   -0.003233
   3 H :   -0.000059
   4 H :   -0.000012
   5 H :   -0.000018
   6 C :   -0.361248
   7 O :   -0.101503
   8 H :    0.176790
   9 H :    0.082034
  10 H :    0.110190
  11 H :    0.105340

  Mayer bond orders larger than 0.1
B(  6-C ,  7-O ) :   1.0078 B(  6-C ,  9-H ) :   0.9732 B(  6-C , 10-H ) :   0.9733
B(  6-C , 11-H ) :   0.9842 B(  7-O ,  8-H ) :   0.9042

Dispersion correction           -0.000231092
FINAL SINGLE POINT ENERGY      -115.727802626638

DIPOLE MOMENT
-------------
                                X             Y             Z
Electronic contribution:     -1.05965       0.28899      -1.47501
Nuclear contribution   :      1.10336      -0.83343       1.99743
                        -----------------------------------------
Total Dipole Moment    :      0.04371      -0.54445       0.52242
                        -----------------------------------------
Magnitude (a.u.)       :      0.75582
Magnitude (Debye)      :      1.92113

Rotational constants in cm-1:     4.194896     0.815034     0.786660
Rotational constants in MHz : 125759.809956 24434.118526 23583.461463

                             ****ORCA TERMINATED NORMALLY****
TOTAL RUN TIME: 0 days 0 hours 5 minutes 28 seconds 536 msec
