                         Program Version 4.1.2  - RELEASE  -
|  1> #Run DFT-D3 single point of the dimer
|  2> ! wB97X-D3 def2-TZVP TIGHTSCF CHELPG PMODEL PAL8
|  3>
|  4> %base "15-175_DFT_AB"
|  5>
|  6> %scf
|  7> MaxIter 1000
|  8> end
|  9>
| 10> * xyz 0 1
| 11>   C                      0.239107             -9.725760            3.563550
| 12>   O                      -0.325960            -9.806708            2.226705
| 13>   H                      0.314450             -10.098638           1.586949
| 14>   H                      1.249586             -9.222974            3.675815
| 15>   H                      -0.403865            -9.285869            4.365776
| 16>   H                      0.587013             -10.629534           3.927197
| 17>   C                      -2.360848            -11.269574           0.153175
| 18>   O                      -2.669773            -10.086168           0.843958
| 19>   H                      -2.098226            -9.848355            1.558592
| 20>   H                      -2.665306            -11.182186           -0.862488
| 21>   H                      -1.221713            -11.329590           0.107175
| 22>   H                      -2.787678            -12.185910           0.578291
| 23> *
| 24>
| 25> #Run DFT-D3 single point of the molecule with dimer basis set
| 26> $new_job
| 27> %base "15-175_DFT_A"
| 28> ! wB97X-D3 def2-TZVP TIGHTSCF CHELPG PMODEL
| 29>
| 30> %scf
| 31> MaxIter 1000
| 32> end
| 33>
| 34> * xyz 0 1
| 35>   C                      0.239107             -9.725760            3.563550
| 36>   O                      -0.325960            -9.806708            2.226705
| 37>   H                      0.314450             -10.098638           1.586949
| 38>   H                      1.249586             -9.222974            3.675815
| 39>   H                      -0.403865            -9.285869            4.365776
| 40>   H                      0.587013             -10.629534           3.927197
| 41>   C                    : -2.360848            -11.269574           0.153175
| 42>   O                    : -2.669773            -10.086168           0.843958
| 43>   H                    : -2.098226            -9.848355            1.558592
| 44>   H                    : -2.665306            -11.182186           -0.862488
| 45>   H                    : -1.221713            -11.329590           0.107175
| 46>   H                    : -2.787678            -12.185910           0.578291
| 47> *
| 48>
| 49> #Run DFT-D3 single point of the particle with dimer basis set
| 50> $new_job
| 51> %base "15-175_DFT_B"
| 52> ! wB97X-D3 def2-TZVP TIGHTSCF CHELPG PMODEL
| 53>
| 54> %scf
| 55> MaxIter 1000
| 56> end
| 57>
| 58> * xyz 0 1
| 59>   C                    : 0.239107             -9.725760            3.563550
| 60>   O                    : -0.325960            -9.806708            2.226705
| 61>   H                    : 0.314450             -10.098638           1.586949
| 62>   H                    : 1.249586             -9.222974            3.675815
| 63>   H                    : -0.403865            -9.285869            4.365776
| 64>   H                    : 0.587013             -10.629534           3.927197
| 65>   C                      -2.360848            -11.269574           0.153175
| 66>   O                      -2.669773            -10.086168           0.843958
| 67>   H                      -2.098226            -9.848355            1.558592
| 68>   H                      -2.665306            -11.182186           -0.862488
| 69>   H                      -1.221713            -11.329590           0.107175
| 70>   H                      -2.787678            -12.185910           0.578291
| 71> *
| 72>
| 73>                          ****END OF INPUT****
 Total Charge           Charge          ....    0
 Multiplicity           Mult            ....    1
 Number of Electrons    NEL             ....   36
Dispersion correction           -0.001824077
FINAL SINGLE POINT ENERGY      -231.460109548040
Dispersion correction           -0.000295480
FINAL SINGLE POINT ENERGY      -115.721926027225

CARTESIAN COORDINATES (ANGSTROEM)
---------------------------------
  C      0.239107   -9.725760    3.563550
  O     -0.325960   -9.806708    2.226705
  H      0.314450  -10.098638    1.586949
  H      1.249586   -9.222974    3.675815
  H     -0.403865   -9.285869    4.365776
  H      0.587013  -10.629534    3.927197
  C     -2.360848  -11.269574    0.153175
  O     -2.669773  -10.086168    0.843958
  H     -2.098226   -9.848355    1.558592
  H     -2.665306  -11.182186   -0.862488
  H     -1.221713  -11.329590    0.107175
  H     -2.787678  -12.185910    0.578291

 Multiplicity           Mult            ....    1
 Number of Electrons    NEL             ....   18
 Basis Dimension        Dim             ....  172

ORBITAL ENERGIES
----------------

  NO   OCC          E(Eh)            E(eV)
   0   2.0000     -19.225147      -523.1428
   1   2.0000     -10.316105      -280.7155
   2   2.0000      -1.136024       -30.9128
   3   2.0000      -0.799975       -21.7684
   4   2.0000      -0.612119       -16.6566
   5   2.0000      -0.544566       -14.8184
   6   2.0000      -0.533669       -14.5219
   7   2.0000      -0.416877       -11.3438
   8   2.0000      -0.374364       -10.1870
   9   0.0000       0.069552         1.8926
  10   0.0000       0.129522         3.5245
  11   0.0000       0.149243         4.0611
  12   0.0000       0.167275         4.5518
  13   0.0000       0.197759         5.3813

MULLIKEN ATOMIC CHARGES
-----------------------
   0 C :   -0.002184
   1 O :   -0.008592
   2 H :    0.000454
   3 H :   -0.000004
   4 H :    0.000105
   5 H :    0.000062
   6 C :   -0.141292
   7 O :   -0.485120
   8 H :    0.321126
   9 H :    0.121175
  10 H :    0.093363
  11 H :    0.100908
Sum of atomic charges:    0.0000000

LOEWDIN ATOMIC CHARGES
----------------------
   0 C :   -0.002467
   1 O :   -0.025229
   2 H :   -0.003752
   3 H :   -0.000062
   4 H :   -0.000115
   5 H :   -0.000049
   6 C :   -0.381340
   7 O :   -0.053628
   8 H :    0.166179
   9 H :    0.100006
  10 H :    0.105573
  11 H :    0.094882

  Mayer bond orders larger than 0.1
B(  6-C ,  7-O ) :   0.9905 B(  6-C ,  9-H ) :   0.9727 B(  6-C , 10-H ) :   0.9861
B(  6-C , 11-H ) :   0.9711 B(  7-O ,  8-H ) :   0.9004

Dispersion correction           -0.000256043
FINAL SINGLE POINT ENERGY      -115.732124626992

DIPOLE MOMENT
-------------
                                X             Y             Z
Electronic contribution:     -0.63053       1.46151       0.82621
Nuclear contribution   :      1.12612      -1.77241      -0.65905
                        -----------------------------------------
Total Dipole Moment    :      0.49559      -0.31090       0.16716
                        -----------------------------------------
Magnitude (a.u.)       :      0.60845
Magnitude (Debye)      :      1.54656

Rotational constants in cm-1:     4.376613     0.827062     0.806636
Rotational constants in MHz : 131207.556711 24794.685547 24182.328147

                             ****ORCA TERMINATED NORMALLY****
TOTAL RUN TIME: 0 days 0 hours 1 minutes 7 seconds 968 msec
