                         Program Version 4.1.2  - RELEASE  -
|  1> #Run DFT-D3 single point of the dimer
|  2> ! wB97X-D3 def2-TZVP TIGHTSCF CHELPG PMODEL PAL8
|  3>
|  4> %base "21-31_DFT_AB"
|  5>
|  6> %scf
|  7> MaxIter 1000
|  8> end
|  9>
| 10> * xyz 0 1
| 11>   C                      2.453454             1.166860             -5.874115
| 12>   O                      3.686145             1.240109             -5.184784
| 13>   H                      3.920853             2.166736             -5.242162
| 14>   H                      1.624176             1.779049             -5.362332
| 15>   H                      2.542419             1.779453             -6.767790
| 16>   H                      2.112095             0.179773             -6.170195
| 17>   C                      3.033606             5.650073             -5.770058
| 18>   O                      2.795399             4.344122             -5.250891
| 19>   H                      1.932104             4.467012             -4.856824
| 20>   H                      2.852258             6.364832             -4.980401
| 21>   H                      4.038197             5.794201             -6.047904
| 22>   H                      2.378777             5.976326             -6.520583
| 23> *
| 24>
| 25> #Run DFT-D3 single point of the molecule with dimer basis set
| 26> $new_job
| 27> %base "21-31_DFT_A"
| 28> ! wB97X-D3 def2-TZVP TIGHTSCF CHELPG PMODEL
| 29>
| 30> %scf
| 31> MaxIter 1000
| 32> end
| 33>
| 34> * xyz 0 1
| 35>   C                      2.453454             1.166860             -5.874115
| 36>   O                      3.686145             1.240109             -5.184784
| 37>   H                      3.920853             2.166736             -5.242162
| 38>   H                      1.624176             1.779049             -5.362332
| 39>   H                      2.542419             1.779453             -6.767790
| 40>   H                      2.112095             0.179773             -6.170195
| 41>   C                    : 3.033606             5.650073             -5.770058
| 42>   O                    : 2.795399             4.344122             -5.250891
| 43>   H                    : 1.932104             4.467012             -4.856824
| 44>   H                    : 2.852258             6.364832             -4.980401
| 45>   H                    : 4.038197             5.794201             -6.047904
| 46>   H                    : 2.378777             5.976326             -6.520583
| 47> *
| 48>
| 49> #Run DFT-D3 single point of the particle with dimer basis set
| 50> $new_job
| 51> %base "21-31_DFT_B"
| 52> ! wB97X-D3 def2-TZVP TIGHTSCF CHELPG PMODEL
| 53>
| 54> %scf
| 55> MaxIter 1000
| 56> end
| 57>
| 58> * xyz 0 1
| 59>   C                    : 2.453454             1.166860             -5.874115
| 60>   O                    : 3.686145             1.240109             -5.184784
| 61>   H                    : 3.920853             2.166736             -5.242162
| 62>   H                    : 1.624176             1.779049             -5.362332
| 63>   H                    : 2.542419             1.779453             -6.767790
| 64>   H                    : 2.112095             0.179773             -6.170195
| 65>   C                      3.033606             5.650073             -5.770058
| 66>   O                      2.795399             4.344122             -5.250891
| 67>   H                      1.932104             4.467012             -4.856824
| 68>   H                      2.852258             6.364832             -4.980401
| 69>   H                      4.038197             5.794201             -6.047904
| 70>   H                      2.378777             5.976326             -6.520583
| 71> *
| 72>
| 73>                          ****END OF INPUT****
 Total Charge           Charge          ....    0
 Multiplicity           Mult            ....    1
 Number of Electrons    NEL             ....   36
Dispersion correction           -0.001808657
FINAL SINGLE POINT ENERGY      -231.465029793248
Dispersion correction           -0.000230652
FINAL SINGLE POINT ENERGY      -115.728489642129

CARTESIAN COORDINATES (ANGSTROEM)
---------------------------------
  C      2.453454    1.166860   -5.874115
  O      3.686145    1.240109   -5.184784
  H      3.920853    2.166736   -5.242162
  H      1.624176    1.779049   -5.362332
  H      2.542419    1.779453   -6.767790
  H      2.112095    0.179773   -6.170195
  C      3.033606    5.650073   -5.770058
  O      2.795399    4.344122   -5.250891
  H      1.932104    4.467012   -4.856824
  H      2.852258    6.364832   -4.980401
  H      4.038197    5.794201   -6.047904
  H      2.378777    5.976326   -6.520583

 Multiplicity           Mult            ....    1
 Number of Electrons    NEL             ....   18
 Basis Dimension        Dim             ....  172

ORBITAL ENERGIES
----------------

  NO   OCC          E(Eh)            E(eV)
   0   2.0000     -19.233498      -523.3701
   1   2.0000     -10.303345      -280.3683
   2   2.0000      -1.139287       -31.0016
   3   2.0000      -0.803643       -21.8682
   4   2.0000      -0.614035       -16.7087
   5   2.0000      -0.542427       -14.7602
   6   2.0000      -0.530654       -14.4398
   7   2.0000      -0.448062       -12.1924
   8   2.0000      -0.374883       -10.2011
   9   0.0000       0.097863         2.6630
  10   0.0000       0.127558         3.4710
  11   0.0000       0.157356         4.2819
  12   0.0000       0.183104         4.9825
  13   0.0000       0.203192         5.5291

MULLIKEN ATOMIC CHARGES
-----------------------
   0 C :    0.018692
   1 O :   -0.000478
   2 H :   -0.008309
   3 H :   -0.009129
   4 H :   -0.010053
   5 H :   -0.000345
   6 C :   -0.177549
   7 O :   -0.455732
   8 H :    0.312561
   9 H :    0.100731
  10 H :    0.122571
  11 H :    0.107039
Sum of atomic charges:   -0.0000000

LOEWDIN ATOMIC CHARGES
----------------------
   0 C :   -0.010615
   1 O :   -0.001334
   2 H :   -0.012633
   3 H :   -0.003930
   4 H :   -0.003645
   5 H :   -0.000098
   6 C :   -0.368988
   7 O :   -0.053722
   8 H :    0.172039
   9 H :    0.096197
  10 H :    0.100401
  11 H :    0.086328

  Mayer bond orders larger than 0.1
B(  6-C ,  7-O ) :   0.9940 B(  6-C ,  9-H ) :   0.9863 B(  6-C , 10-H ) :   0.9783
B(  6-C , 11-H ) :   0.9683 B(  7-O ,  8-H ) :   0.9014

Dispersion correction           -0.000212335
FINAL SINGLE POINT ENERGY      -115.730417434423

DIPOLE MOMENT
-------------
                                X             Y             Z
Electronic contribution:     -0.11353      -1.81054       0.46184
Nuclear contribution   :     -0.32023       2.43909      -0.41608
                        -----------------------------------------
Total Dipole Moment    :     -0.43376       0.62856       0.04576
                        -----------------------------------------
Magnitude (a.u.)       :      0.76506
Magnitude (Debye)      :      1.94464

Rotational constants in cm-1:     4.517609     0.834461     0.797589
Rotational constants in MHz : 135434.513004 25016.520401 23911.118812

                             ****ORCA TERMINATED NORMALLY****
TOTAL RUN TIME: 0 days 0 hours 1 minutes 2 seconds 915 msec
