                         Program Version 4.1.2  - RELEASE  -
|  1> #Run DFT-D3 single point of the dimer
|  2> ! wB97X-D3 def2-TZVP TIGHTSCF CHELPG PMODEL PAL8
|  3>
|  4> %base "15-166_DFT_AB"
|  5>
|  6> %scf
|  7> MaxIter 1000
|  8> end
|  9>
| 10> * xyz 0 1
| 11>   C                      -8.337797            2.416175             5.163144
| 12>   O                      -7.836893            3.630064             5.649020
| 13>   H                      -8.642181            4.245374             5.763971
| 14>   H                      -7.568641            1.935078             4.537271
| 15>   H                      -8.594351            1.681504             5.898508
| 16>   H                      -9.204598            2.572450             4.608800
| 17>   C                      -5.632659            5.085313             3.590567
| 18>   O                      -5.862079            5.490800             4.879194
| 19>   H                      -6.522953            4.845330             5.158301
| 20>   H                      -5.175815            4.020753             3.644523
| 21>   H                      -6.566947            4.897796             3.005638
| 22>   H                      -5.058881            5.782737             3.034811
| 23> *
| 24>
| 25> #Run DFT-D3 single point of the molecule with dimer basis set
| 26> $new_job
| 27> %base "15-166_DFT_A"
| 28> ! wB97X-D3 def2-TZVP TIGHTSCF CHELPG PMODEL
| 29>
| 30> %scf
| 31> MaxIter 1000
| 32> end
| 33>
| 34> * xyz 0 1
| 35>   C                      -8.337797            2.416175             5.163144
| 36>   O                      -7.836893            3.630064             5.649020
| 37>   H                      -8.642181            4.245374             5.763971
| 38>   H                      -7.568641            1.935078             4.537271
| 39>   H                      -8.594351            1.681504             5.898508
| 40>   H                      -9.204598            2.572450             4.608800
| 41>   C                    : -5.632659            5.085313             3.590567
| 42>   O                    : -5.862079            5.490800             4.879194
| 43>   H                    : -6.522953            4.845330             5.158301
| 44>   H                    : -5.175815            4.020753             3.644523
| 45>   H                    : -6.566947            4.897796             3.005638
| 46>   H                    : -5.058881            5.782737             3.034811
| 47> *
| 48>
| 49> #Run DFT-D3 single point of the particle with dimer basis set
| 50> $new_job
| 51> %base "15-166_DFT_B"
| 52> ! wB97X-D3 def2-TZVP TIGHTSCF CHELPG PMODEL
| 53>
| 54> %scf
| 55> MaxIter 1000
| 56> end
| 57>
| 58> * xyz 0 1
| 59>   C                    : -8.337797            2.416175             5.163144
| 60>   O                    : -7.836893            3.630064             5.649020
| 61>   H                    : -8.642181            4.245374             5.763971
| 62>   H                    : -7.568641            1.935078             4.537271
| 63>   H                    : -8.594351            1.681504             5.898508
| 64>   H                    : -9.204598            2.572450             4.608800
| 65>   C                      -5.632659            5.085313             3.590567
| 66>   O                      -5.862079            5.490800             4.879194
| 67>   H                      -6.522953            4.845330             5.158301
| 68>   H                      -5.175815            4.020753             3.644523
| 69>   H                      -6.566947            4.897796             3.005638
| 70>   H                      -5.058881            5.782737             3.034811
| 71> *
| 72>
| 73>                          ****END OF INPUT****
 Total Charge           Charge          ....    0
 Multiplicity           Mult            ....    1
 Number of Electrons    NEL             ....   36
Dispersion correction           -0.001936153
FINAL SINGLE POINT ENERGY      -231.467167193349
Dispersion correction           -0.000234756
FINAL SINGLE POINT ENERGY      -115.729920243567

CARTESIAN COORDINATES (ANGSTROEM)
---------------------------------
  C     -8.337797    2.416175    5.163144
  O     -7.836893    3.630064    5.649020
  H     -8.642181    4.245374    5.763971
  H     -7.568641    1.935078    4.537271
  H     -8.594351    1.681504    5.898508
  H     -9.204598    2.572450    4.608800
  C     -5.632659    5.085313    3.590567
  O     -5.862079    5.490800    4.879194
  H     -6.522953    4.845330    5.158301
  H     -5.175815    4.020753    3.644523
  H     -6.566947    4.897796    3.005638
  H     -5.058881    5.782737    3.034811

 Multiplicity           Mult            ....    1
 Number of Electrons    NEL             ....   18
 Basis Dimension        Dim             ....  172

ORBITAL ENERGIES
----------------

  NO   OCC          E(Eh)            E(eV)
   0   2.0000     -19.234762      -523.4045
   1   2.0000     -10.316323      -280.7214
   2   2.0000      -1.157197       -31.4889
   3   2.0000      -0.787011       -21.4157
   4   2.0000      -0.620870       -16.8947
   5   2.0000      -0.547219       -14.8906
   6   2.0000      -0.529361       -14.4046
   7   2.0000      -0.443527       -12.0690
   8   2.0000      -0.365784        -9.9535
   9   0.0000       0.065997         1.7959
  10   0.0000       0.134277         3.6539
  11   0.0000       0.141493         3.8502
  12   0.0000       0.167999         4.5715
  13   0.0000       0.197481         5.3737

MULLIKEN ATOMIC CHARGES
-----------------------
   0 C :   -0.000187
   1 O :   -0.004205
   2 H :   -0.000983
   3 H :   -0.000169
   4 H :    0.000026
   5 H :   -0.000082
   6 C :   -0.185716
   7 O :   -0.441632
   8 H :    0.317508
   9 H :    0.091426
  10 H :    0.097120
  11 H :    0.126896
Sum of atomic charges:    0.0000000

LOEWDIN ATOMIC CHARGES
----------------------
   0 C :   -0.002622
   1 O :   -0.024075
   2 H :   -0.002617
   3 H :   -0.000336
   4 H :   -0.000046
   5 H :   -0.000070
   6 C :   -0.428337
   7 O :   -0.031801
   8 H :    0.192955
   9 H :    0.102825
  10 H :    0.095575
  11 H :    0.098549

  Mayer bond orders larger than 0.1
B(  6-C ,  7-O ) :   0.9970 B(  6-C ,  9-H ) :   0.9827 B(  6-C , 10-H ) :   0.9724
B(  6-C , 11-H ) :   0.9721 B(  7-O ,  8-H ) :   0.9073

Dispersion correction           -0.000204258
FINAL SINGLE POINT ENERGY      -115.728217678475

DIPOLE MOMENT
-------------
                                X             Y             Z
Electronic contribution:     -0.11589       0.90887       1.72631
Nuclear contribution   :     -0.22259      -1.40812      -2.01080
                        -----------------------------------------
Total Dipole Moment    :     -0.33848      -0.49924      -0.28449
                        -----------------------------------------
Magnitude (a.u.)       :      0.66689
Magnitude (Debye)      :      1.69511

Rotational constants in cm-1:     4.114847     0.883455     0.842464
Rotational constants in MHz : 123359.997719 26485.306202 25256.434106

                             ****ORCA TERMINATED NORMALLY****
TOTAL RUN TIME: 0 days 0 hours 1 minutes 7 seconds 6 msec
