                         Program Version 4.1.2  - RELEASE  -
|  1> #Run DFT-D3 single point of the dimer
|  2> ! wB97X-D3 def2-TZVP TIGHTSCF  CHELPG PAL8
|  3>
|  4> %base "115_charges"
|  5>
|  6> %scf
|  7> MaxIter 1000
|  8> end
|  9> %output
| 10>   Print[ P_Mayer ] 1
| 11>   Print[ P_NatPop ] 1
| 12>   Print[ P_Hirshfeld ] 1
| 13>   Print[ P_Mulliken ] 1
| 14>   Print [ P_Loewdin ] 1
| 15> end
| 16>
| 17> * xyz 0 1
| 18>   C                      6.321323             -3.636944            8.508321
| 19>   O                      6.596616             -3.764649            9.909705
| 20>   H                      5.825310             -4.327303            10.156192
| 21>   H                      7.164389             -3.111995            7.971850
| 22>   H                      6.287767             -4.606183            8.059504
| 23>   H                      5.344876             -3.220342            8.253404
| 24> *
| 25>
| 26>                          ****END OF INPUT****

CARTESIAN COORDINATES (ANGSTROEM)
---------------------------------
  C      6.321323   -3.636944    8.508321
  O      6.596616   -3.764649    9.909705
  H      5.825310   -4.327303   10.156192
  H      7.164389   -3.111995    7.971850
  H      6.287767   -4.606183    8.059504
  H      5.344876   -3.220342    8.253404

 Total Charge           Charge          ....    0
 Multiplicity           Mult            ....    1
 Number of Electrons    NEL             ....   18
 Basis Dimension        Dim             ....   86

ORBITAL ENERGIES
----------------

  NO   OCC          E(Eh)            E(eV)
   0   2.0000     -19.237109      -523.4683
   1   2.0000     -10.315464      -280.6980
   2   2.0000      -1.132792       -30.8248
   3   2.0000      -0.791600       -21.5405
   4   2.0000      -0.607498       -16.5309
   5   2.0000      -0.537616       -14.6293
   6   2.0000      -0.519511       -14.1366
   7   2.0000      -0.446813       -12.1584
   8   2.0000      -0.374148       -10.1811
   9   0.0000       0.110378         3.0035
  10   0.0000       0.152480         4.1492
  11   0.0000       0.196881         5.3574
  12   0.0000       0.204828         5.5737
  13   0.0000       0.224892         6.1196

MULLIKEN ATOMIC CHARGES
-----------------------
   0 C :   -0.191190
   1 O :   -0.458907
   2 H :    0.314536
   3 H :    0.121467
   4 H :    0.108852
   5 H :    0.105243
Sum of atomic charges:   -0.0000000

LOEWDIN ATOMIC CHARGES
----------------------
   0 C :   -0.387796
   1 O :   -0.098957
   2 H :    0.188256
   3 H :    0.116252
   4 H :    0.089156
   5 H :    0.093088

  Mayer bond orders larger than 0.1
B(  0-C ,  1-O ) :   0.9996 B(  0-C ,  3-H ) :   0.9729 B(  0-C ,  4-H ) :   0.9800
B(  0-C ,  5-H ) :   0.9695 B(  1-O ,  2-H ) :   0.9006

Dispersion correction           -0.000229175
FINAL SINGLE POINT ENERGY      -115.729846514229

DIPOLE MOMENT
-------------
                                X             Y             Z
Electronic contribution:      0.48891       0.03049       1.87306
Nuclear contribution   :     -1.05719      -0.35021      -2.28136
                        -----------------------------------------
Total Dipole Moment    :     -0.56828      -0.31972      -0.40830
                        -----------------------------------------
Magnitude (a.u.)       :      0.76933
Magnitude (Debye)      :      1.95549

Rotational constants in cm-1:     4.214992     0.823010     0.779616
Rotational constants in MHz : 126362.271076 24673.209468 23372.306196

                             ****ORCA TERMINATED NORMALLY****
TOTAL RUN TIME: 0 days 0 hours 0 minutes 46 seconds 646 msec
