                         Program Version 4.1.2  - RELEASE  -
|  1> #Run DFT-D3 single point of the dimer
|  2> ! wB97X-D3 def2-TZVP TIGHTSCF CHELPG PMODEL PAL8
|  3>
|  4> %base "7-20_DFT_AB"
|  5>
|  6> %scf
|  7> MaxIter 1000
|  8> end
|  9>
| 10> * xyz 0 1
| 11>   C                      -1.043704            -4.234054            3.067058
| 12>   O                      -0.967894            -4.898226            4.364749
| 13>   H                      -1.811567            -5.220936            4.592340
| 14>   H                      -1.580061            -3.307889            3.073810
| 15>   H                      -0.006759            -3.989458            2.723288
| 16>   H                      -1.542091            -4.895781            2.312860
| 17>   C                      0.090577             -8.911313            5.724493
| 18>   O                      1.384767             -9.518821            5.789049
| 19>   H                      1.330785             -10.387467           6.226583
| 20>   H                      -0.151958            -8.289754            6.611243
| 21>   H                      0.043024             -8.282204            4.827034
| 22>   H                      -0.627127            -9.663993            5.696281
| 23> *
| 24>
| 25> #Run DFT-D3 single point of the molecule with dimer basis set
| 26> $new_job
| 27> %base "7-20_DFT_A"
| 28> ! wB97X-D3 def2-TZVP TIGHTSCF CHELPG PMODEL
| 29>
| 30> %scf
| 31> MaxIter 1000
| 32> end
| 33>
| 34> * xyz 0 1
| 35>   C                      -1.043704            -4.234054            3.067058
| 36>   O                      -0.967894            -4.898226            4.364749
| 37>   H                      -1.811567            -5.220936            4.592340
| 38>   H                      -1.580061            -3.307889            3.073810
| 39>   H                      -0.006759            -3.989458            2.723288
| 40>   H                      -1.542091            -4.895781            2.312860
| 41>   C                    : 0.090577             -8.911313            5.724493
| 42>   O                    : 1.384767             -9.518821            5.789049
| 43>   H                    : 1.330785             -10.387467           6.226583
| 44>   H                    : -0.151958            -8.289754            6.611243
| 45>   H                    : 0.043024             -8.282204            4.827034
| 46>   H                    : -0.627127            -9.663993            5.696281
| 47> *
| 48>
| 49> #Run DFT-D3 single point of the particle with dimer basis set
| 50> $new_job
| 51> %base "7-20_DFT_B"
| 52> ! wB97X-D3 def2-TZVP TIGHTSCF CHELPG PMODEL
| 53>
| 54> %scf
| 55> MaxIter 1000
| 56> end
| 57>
| 58> * xyz 0 1
| 59>   C                    : -1.043704            -4.234054            3.067058
| 60>   O                    : -0.967894            -4.898226            4.364749
| 61>   H                    : -1.811567            -5.220936            4.592340
| 62>   H                    : -1.580061            -3.307889            3.073810
| 63>   H                    : -0.006759            -3.989458            2.723288
| 64>   H                    : -1.542091            -4.895781            2.312860
| 65>   C                      0.090577             -8.911313            5.724493
| 66>   O                      1.384767             -9.518821            5.789049
| 67>   H                      1.330785             -10.387467           6.226583
| 68>   H                      -0.151958            -8.289754            6.611243
| 69>   H                      0.043024             -8.282204            4.827034
| 70>   H                      -0.627127            -9.663993            5.696281
| 71> *
| 72>
| 73>                          ****END OF INPUT****
 Total Charge           Charge          ....    0
 Multiplicity           Mult            ....    1
 Number of Electrons    NEL             ....   36
Dispersion correction           -0.000895188
FINAL SINGLE POINT ENERGY      -231.467183195074
Dispersion correction           -0.000268682
FINAL SINGLE POINT ENERGY      -115.733616169351

CARTESIAN COORDINATES (ANGSTROEM)
---------------------------------
  C     -1.043704   -4.234054    3.067058
  O     -0.967894   -4.898226    4.364749
  H     -1.811567   -5.220936    4.592340
  H     -1.580061   -3.307889    3.073810
  H     -0.006759   -3.989458    2.723288
  H     -1.542091   -4.895781    2.312860
  C      0.090577   -8.911313    5.724493
  O      1.384767   -9.518821    5.789049
  H      1.330785  -10.387467    6.226583
  H     -0.151958   -8.289754    6.611243
  H      0.043024   -8.282204    4.827034
  H     -0.627127   -9.663993    5.696281

 Multiplicity           Mult            ....    1
 Number of Electrons    NEL             ....   18
 Basis Dimension        Dim             ....  172

ORBITAL ENERGIES
----------------

  NO   OCC          E(Eh)            E(eV)
   0   2.0000     -19.228437      -523.2324
   1   2.0000     -10.310900      -280.5738
   2   2.0000      -1.125964       -30.6391
   3   2.0000      -0.797956       -21.7135
   4   2.0000      -0.610652       -16.6167
   5   2.0000      -0.535724       -14.5778
   6   2.0000      -0.528451       -14.3799
   7   2.0000      -0.433624       -11.7995
   8   2.0000      -0.371823       -10.1178
   9   0.0000       0.083594         2.2747
  10   0.0000       0.113746         3.0952
  11   0.0000       0.141198         3.8422
  12   0.0000       0.178663         4.8617
  13   0.0000       0.187844         5.1115

MULLIKEN ATOMIC CHARGES
-----------------------
   0 C :   -0.000046
   1 O :    0.000024
   2 H :   -0.000028
   3 H :   -0.000003
   4 H :   -0.000002
   5 H :   -0.000008
   6 C :   -0.154533
   7 O :   -0.487342
   8 H :    0.315666
   9 H :    0.100283
  10 H :    0.120463
  11 H :    0.105526
Sum of atomic charges:   -0.0000000

LOEWDIN ATOMIC CHARGES
----------------------
   0 C :   -0.000066
   1 O :   -0.000155
   2 H :   -0.000125
   3 H :   -0.000001
   4 H :   -0.000002
   5 H :   -0.000007
   6 C :   -0.365288
   7 O :   -0.099297
   8 H :    0.174102
   9 H :    0.098631
  10 H :    0.108690
  11 H :    0.083519

  Mayer bond orders larger than 0.1
B(  6-C ,  7-O ) :   1.0007 B(  6-C ,  9-H ) :   0.9699 B(  6-C , 10-H ) :   0.9750
B(  6-C , 11-H ) :   0.9867 B(  7-O ,  8-H ) :   0.8973

Dispersion correction           -0.000247892
FINAL SINGLE POINT ENERGY      -115.733268165610

DIPOLE MOMENT
-------------
                                X             Y             Z
Electronic contribution:      1.63770      -0.66438      -0.01793
Nuclear contribution   :     -2.22494       0.33208       0.25915
                        -----------------------------------------
Total Dipole Moment    :     -0.58724      -0.33230       0.24123
                        -----------------------------------------
Magnitude (a.u.)       :      0.71656
Magnitude (Debye)      :      1.82136

Rotational constants in cm-1:     4.356993     0.816380     0.785964
Rotational constants in MHz : 130619.372321 24474.451951 23562.609180

                             ****ORCA TERMINATED NORMALLY****
TOTAL RUN TIME: 0 days 0 hours 0 minutes 56 seconds 695 msec
