                         Program Version 4.1.2  - RELEASE  -
|  1> #Run DFT-D3 single point of the dimer
|  2> ! wB97X-D3 def2-TZVP TIGHTSCF CHELPG PMODEL PAL8
|  3>
|  4> %base "1-2_DFT_AB"
|  5>
|  6> %scf
|  7> MaxIter 1000
|  8> end
|  9>
| 10> * xyz 0 1
| 11>   C                      -7.729322            4.427341             8.202547
| 12>   O                      -7.019809            3.335802             7.681465
| 13>   H                      -7.560810            2.547871             7.585349
| 14>   H                      -8.077797            4.298807             9.202275
| 15>   H                      -7.121937            5.329664             8.121222
| 16>   H                      -8.610645            4.817844             7.611276
| 17>   C                      -4.351667            5.254473             6.920647
| 18>   O                      -5.704513            5.376898             6.739659
| 19>   H                      -5.942629            5.492009             5.833962
| 20>   H                      -4.171133            4.701593             7.857598
| 21>   H                      -3.847408            4.840025             6.094159
| 22>   H                      -3.916681            6.286763             6.979087
| 23> *
| 24>
| 25> #Run DFT-D3 single point of the molecule with dimer basis set
| 26> $new_job
| 27> %base "1-2_DFT_A"
| 28> ! wB97X-D3 def2-TZVP TIGHTSCF CHELPG PMODEL
| 29>
| 30> %scf
| 31> MaxIter 1000
| 32> end
| 33>
| 34> * xyz 0 1
| 35>   C                      -7.729322            4.427341             8.202547
| 36>   O                      -7.019809            3.335802             7.681465
| 37>   H                      -7.560810            2.547871             7.585349
| 38>   H                      -8.077797            4.298807             9.202275
| 39>   H                      -7.121937            5.329664             8.121222
| 40>   H                      -8.610645            4.817844             7.611276
| 41>   C                    : -4.351667            5.254473             6.920647
| 42>   O                    : -5.704513            5.376898             6.739659
| 43>   H                    : -5.942629            5.492009             5.833962
| 44>   H                    : -4.171133            4.701593             7.857598
| 45>   H                    : -3.847408            4.840025             6.094159
| 46>   H                    : -3.916681            6.286763             6.979087
| 47> *
| 48>
| 49> #Run DFT-D3 single point of the particle with dimer basis set
| 50> $new_job
| 51> %base "1-2_DFT_B"
| 52> ! wB97X-D3 def2-TZVP TIGHTSCF CHELPG PMODEL
| 53>
| 54> %scf
| 55> MaxIter 1000
| 56> end
| 57>
| 58> * xyz 0 1
| 59>   C                    : -7.729322            4.427341             8.202547
| 60>   O                    : -7.019809            3.335802             7.681465
| 61>   H                    : -7.560810            2.547871             7.585349
| 62>   H                    : -8.077797            4.298807             9.202275
| 63>   H                    : -7.121937            5.329664             8.121222
| 64>   H                    : -8.610645            4.817844             7.611276
| 65>   C                      -4.351667            5.254473             6.920647
| 66>   O                      -5.704513            5.376898             6.739659
| 67>   H                      -5.942629            5.492009             5.833962
| 68>   H                      -4.171133            4.701593             7.857598
| 69>   H                      -3.847408            4.840025             6.094159
| 70>   H                      -3.916681            6.286763             6.979087
| 71> *
| 72>
| 73>                          ****END OF INPUT****
 Total Charge           Charge          ....    0
 Multiplicity           Mult            ....    1
 Number of Electrons    NEL             ....   36
Dispersion correction           -0.002119784
FINAL SINGLE POINT ENERGY      -231.455227041868
Dispersion correction           -0.000274682
FINAL SINGLE POINT ENERGY      -115.732214609264

CARTESIAN COORDINATES (ANGSTROEM)
---------------------------------
  C     -7.729322    4.427341    8.202547
  O     -7.019809    3.335802    7.681465
  H     -7.560810    2.547871    7.585349
  H     -8.077797    4.298807    9.202275
  H     -7.121937    5.329664    8.121222
  H     -8.610645    4.817844    7.611276
  C     -4.351667    5.254473    6.920647
  O     -5.704513    5.376898    6.739659
  H     -5.942629    5.492009    5.833962
  H     -4.171133    4.701593    7.857598
  H     -3.847408    4.840025    6.094159
  H     -3.916681    6.286763    6.979087

 Multiplicity           Mult            ....    1
 Number of Electrons    NEL             ....   18
 Basis Dimension        Dim             ....  172

ORBITAL ENERGIES
----------------

  NO   OCC          E(Eh)            E(eV)
   0   2.0000     -19.226256      -523.1730
   1   2.0000     -10.308718      -280.5145
   2   2.0000      -1.150756       -31.3137
   3   2.0000      -0.797964       -21.7137
   4   2.0000      -0.628118       -17.0920
   5   2.0000      -0.541353       -14.7310
   6   2.0000      -0.533005       -14.5038
   7   2.0000      -0.433295       -11.7906
   8   2.0000      -0.366221        -9.9654
   9   0.0000       0.098322         2.6755
  10   0.0000       0.130941         3.5631
  11   0.0000       0.155479         4.2308
  12   0.0000       0.180382         4.9084
  13   0.0000       0.195994         5.3333

MULLIKEN ATOMIC CHARGES
-----------------------
   0 C :   -0.002678
   1 O :    0.007011
   2 H :    0.000633
   3 H :   -0.000476
   4 H :   -0.014600
   5 H :   -0.001639
   6 C :   -0.143636
   7 O :   -0.469245
   8 H :    0.313095
   9 H :    0.118995
  10 H :    0.104349
  11 H :    0.088189
Sum of atomic charges:    0.0000000

LOEWDIN ATOMIC CHARGES
----------------------
   0 C :   -0.037166
   1 O :   -0.017496
   2 H :   -0.000947
   3 H :   -0.000523
   4 H :   -0.032544
   5 H :   -0.001236
   6 C :   -0.405583
   7 O :    0.034637
   8 H :    0.161806
   9 H :    0.112557
  10 H :    0.086923
  11 H :    0.099571

  Mayer bond orders larger than 0.1
B(  6-C ,  7-O ) :   0.9867 B(  6-C ,  9-H ) :   0.9768 B(  6-C , 10-H ) :   0.9747
B(  6-C , 11-H ) :   0.9790 B(  7-O ,  8-H ) :   0.8963

Dispersion correction           -0.000223966
FINAL SINGLE POINT ENERGY      -115.732317913037

DIPOLE MOMENT
-------------
                                X             Y             Z
Electronic contribution:     -1.77229      -0.01131      -0.14520
Nuclear contribution   :      2.13871       0.01945      -0.41447
                        -----------------------------------------
Total Dipole Moment    :      0.36642       0.00814      -0.55967
                        -----------------------------------------
Magnitude (a.u.)       :      0.66900
Magnitude (Debye)      :      1.70047

Rotational constants in cm-1:     4.349418     0.877377     0.840660
Rotational constants in MHz : 130392.256445 26303.103492 25202.342969

                             ****ORCA TERMINATED NORMALLY****
TOTAL RUN TIME: 0 days 0 hours 4 minutes 51 seconds 129 msec
