                         Program Version 4.1.2  - RELEASE  -
|  1> #Run DFT-D3 single point of the dimer
|  2> ! wB97X-D3 def2-TZVP TIGHTSCF CHELPG PMODEL PAL8
|  3>
|  4> %base "9-85_DFT_AB"
|  5>
|  6> %scf
|  7> MaxIter 1000
|  8> end
|  9>
| 10> * xyz 0 1
| 11>   C                      6.644204             -5.381908            9.413953
| 12>   O                      6.052512             -6.076243            8.369976
| 13>   H                      6.674226             -6.664635            7.970221
| 14>   H                      5.870115             -4.708260            9.921547
| 15>   H                      6.957315             -6.125516            10.130067
| 16>   H                      7.387805             -4.639974            9.029258
| 17>   C                      7.095239             -9.966601            10.733995
| 18>   O                      5.690407             -10.022147           10.857923
| 19>   H                      5.563122             -10.266943           11.787850
| 20>   H                      7.571686             -10.886018           11.172691
| 21>   H                      7.480874             -9.761837            9.782880
| 22>   H                      7.521813             -9.115402            11.268025
| 23> *
| 24>
| 25> #Run DFT-D3 single point of the molecule with dimer basis set
| 26> $new_job
| 27> %base "9-85_DFT_A"
| 28> ! wB97X-D3 def2-TZVP TIGHTSCF CHELPG PMODEL
| 29>
| 30> %scf
| 31> MaxIter 1000
| 32> end
| 33>
| 34> * xyz 0 1
| 35>   C                      6.644204             -5.381908            9.413953
| 36>   O                      6.052512             -6.076243            8.369976
| 37>   H                      6.674226             -6.664635            7.970221
| 38>   H                      5.870115             -4.708260            9.921547
| 39>   H                      6.957315             -6.125516            10.130067
| 40>   H                      7.387805             -4.639974            9.029258
| 41>   C                    : 7.095239             -9.966601            10.733995
| 42>   O                    : 5.690407             -10.022147           10.857923
| 43>   H                    : 5.563122             -10.266943           11.787850
| 44>   H                    : 7.571686             -10.886018           11.172691
| 45>   H                    : 7.480874             -9.761837            9.782880
| 46>   H                    : 7.521813             -9.115402            11.268025
| 47> *
| 48>
| 49> #Run DFT-D3 single point of the particle with dimer basis set
| 50> $new_job
| 51> %base "9-85_DFT_B"
| 52> ! wB97X-D3 def2-TZVP TIGHTSCF CHELPG PMODEL
| 53>
| 54> %scf
| 55> MaxIter 1000
| 56> end
| 57>
| 58> * xyz 0 1
| 59>   C                    : 6.644204             -5.381908            9.413953
| 60>   O                    : 6.052512             -6.076243            8.369976
| 61>   H                    : 6.674226             -6.664635            7.970221
| 62>   H                    : 5.870115             -4.708260            9.921547
| 63>   H                    : 6.957315             -6.125516            10.130067
| 64>   H                    : 7.387805             -4.639974            9.029258
| 65>   C                      7.095239             -9.966601            10.733995
| 66>   O                      5.690407             -10.022147           10.857923
| 67>   H                      5.563122             -10.266943           11.787850
| 68>   H                      7.571686             -10.886018           11.172691
| 69>   H                      7.480874             -9.761837            9.782880
| 70>   H                      7.521813             -9.115402            11.268025
| 71> *
| 72>
| 73>                          ****END OF INPUT****
 Total Charge           Charge          ....    0
 Multiplicity           Mult            ....    1
 Number of Electrons    NEL             ....   36
Dispersion correction           -0.001031341
FINAL SINGLE POINT ENERGY      -231.460676619583
Dispersion correction           -0.000228829
FINAL SINGLE POINT ENERGY      -115.730866695052

CARTESIAN COORDINATES (ANGSTROEM)
---------------------------------
  C      6.644204   -5.381908    9.413953
  O      6.052512   -6.076243    8.369976
  H      6.674226   -6.664635    7.970221
  H      5.870115   -4.708260    9.921547
  H      6.957315   -6.125516   10.130067
  H      7.387805   -4.639974    9.029258
  C      7.095239   -9.966601   10.733995
  O      5.690407  -10.022147   10.857923
  H      5.563122  -10.266943   11.787850
  H      7.571686  -10.886018   11.172691
  H      7.480874   -9.761837    9.782880
  H      7.521813   -9.115402   11.268025

 Multiplicity           Mult            ....    1
 Number of Electrons    NEL             ....   18
 Basis Dimension        Dim             ....  172

ORBITAL ENERGIES
----------------

  NO   OCC          E(Eh)            E(eV)
   0   2.0000     -19.234679      -523.4022
   1   2.0000     -10.311091      -280.5791
   2   2.0000      -1.139362       -31.0036
   3   2.0000      -0.797727       -21.7073
   4   2.0000      -0.609067       -16.5735
   5   2.0000      -0.545990       -14.8571
   6   2.0000      -0.529112       -14.3979
   7   2.0000      -0.438439       -11.9305
   8   2.0000      -0.372027       -10.1234
   9   0.0000       0.086989         2.3671
  10   0.0000       0.116020         3.1571
  11   0.0000       0.149687         4.0732
  12   0.0000       0.164981         4.4894
  13   0.0000       0.189078         5.1451

MULLIKEN ATOMIC CHARGES
-----------------------
   0 C :   -0.000528
   1 O :    0.000026
   2 H :   -0.000021
   3 H :    0.000018
   4 H :    0.000813
   5 H :    0.000025
   6 C :   -0.181050
   7 O :   -0.462464
   8 H :    0.318314
   9 H :    0.102383
  10 H :    0.122670
  11 H :    0.099816
Sum of atomic charges:    0.0000000

LOEWDIN ATOMIC CHARGES
----------------------
   0 C :   -0.000166
   1 O :   -0.000018
   2 H :   -0.000069
   3 H :   -0.000001
   4 H :   -0.000272
   5 H :   -0.000006
   6 C :   -0.394904
   7 O :   -0.076790
   8 H :    0.180489
   9 H :    0.101229
  10 H :    0.096492
  11 H :    0.094016

  Mayer bond orders larger than 0.1
B(  6-C ,  7-O ) :   1.0001 B(  6-C ,  9-H ) :   0.9833 B(  6-C , 10-H ) :   0.9738
B(  6-C , 11-H ) :   0.9753 B(  7-O ,  8-H ) :   0.8984

Dispersion correction           -0.000230740
FINAL SINGLE POINT ENERGY      -115.729967921129

DIPOLE MOMENT
-------------
                                X             Y             Z
Electronic contribution:     -1.95349      -0.07407      -0.14077
Nuclear contribution   :      2.42238      -0.03059       0.65022
                        -----------------------------------------
Total Dipole Moment    :      0.46889      -0.10466       0.50945
                        -----------------------------------------
Magnitude (a.u.)       :      0.70025
Magnitude (Debye)      :      1.77989

Rotational constants in cm-1:     4.385441     0.832855     0.799381
Rotational constants in MHz : 131472.213922 24968.366269 23964.842569

                             ****ORCA TERMINATED NORMALLY****
TOTAL RUN TIME: 0 days 0 hours 0 minutes 41 seconds 785 msec
