                         Program Version 4.1.2  - RELEASE  -
|  1> #Run DFT-D3 single point of the dimer
|  2> ! wB97X-D3 def2-TZVP TIGHTSCF CHELPG PMODEL PAL8
|  3>
|  4> %base "3-10_DFT_AB"
|  5>
|  6> %scf
|  7> MaxIter 1000
|  8> end
|  9>
| 10> * xyz 0 1
| 11>   C                      0.141561             6.247437             4.342902
| 12>   O                      -0.671210            6.055133             5.470995
| 13>   H                      -0.143852            5.652897             6.120910
| 14>   H                      0.997028             6.871239             4.544806
| 15>   H                      0.411989             5.326716             3.898990
| 16>   H                      -0.387381            6.739469             3.540981
| 17>   C                      1.467480             2.436894             2.519463
| 18>   O                      1.532638             3.667263             1.792435
| 19>   H                      1.815579             3.425079             0.869417
| 20>   H                      1.252288             2.512821             3.585320
| 21>   H                      0.686186             1.727678             2.137464
| 22>   H                      2.382609             1.925820             2.485749
| 23> *
| 24>
| 25> #Run DFT-D3 single point of the molecule with dimer basis set
| 26> $new_job
| 27> %base "3-10_DFT_A"
| 28> ! wB97X-D3 def2-TZVP TIGHTSCF CHELPG PMODEL
| 29>
| 30> %scf
| 31> MaxIter 1000
| 32> end
| 33>
| 34> * xyz 0 1
| 35>   C                      0.141561             6.247437             4.342902
| 36>   O                      -0.671210            6.055133             5.470995
| 37>   H                      -0.143852            5.652897             6.120910
| 38>   H                      0.997028             6.871239             4.544806
| 39>   H                      0.411989             5.326716             3.898990
| 40>   H                      -0.387381            6.739469             3.540981
| 41>   C                    : 1.467480             2.436894             2.519463
| 42>   O                    : 1.532638             3.667263             1.792435
| 43>   H                    : 1.815579             3.425079             0.869417
| 44>   H                    : 1.252288             2.512821             3.585320
| 45>   H                    : 0.686186             1.727678             2.137464
| 46>   H                    : 2.382609             1.925820             2.485749
| 47> *
| 48>
| 49> #Run DFT-D3 single point of the particle with dimer basis set
| 50> $new_job
| 51> %base "3-10_DFT_B"
| 52> ! wB97X-D3 def2-TZVP TIGHTSCF CHELPG PMODEL
| 53>
| 54> %scf
| 55> MaxIter 1000
| 56> end
| 57>
| 58> * xyz 0 1
| 59>   C                    : 0.141561             6.247437             4.342902
| 60>   O                    : -0.671210            6.055133             5.470995
| 61>   H                    : -0.143852            5.652897             6.120910
| 62>   H                    : 0.997028             6.871239             4.544806
| 63>   H                    : 0.411989             5.326716             3.898990
| 64>   H                    : -0.387381            6.739469             3.540981
| 65>   C                      1.467480             2.436894             2.519463
| 66>   O                      1.532638             3.667263             1.792435
| 67>   H                      1.815579             3.425079             0.869417
| 68>   H                      1.252288             2.512821             3.585320
| 69>   H                      0.686186             1.727678             2.137464
| 70>   H                      2.382609             1.925820             2.485749
| 71> *
| 72>
| 73>                          ****END OF INPUT****
 Total Charge           Charge          ....    0
 Multiplicity           Mult            ....    1
 Number of Electrons    NEL             ....   36
Dispersion correction           -0.001278265
FINAL SINGLE POINT ENERGY      -231.466054159455
Dispersion correction           -0.000225441
FINAL SINGLE POINT ENERGY      -115.733646227695

CARTESIAN COORDINATES (ANGSTROEM)
---------------------------------
  C      0.141561    6.247437    4.342902
  O     -0.671210    6.055133    5.470995
  H     -0.143852    5.652897    6.120910
  H      0.997028    6.871239    4.544806
  H      0.411989    5.326716    3.898990
  H     -0.387381    6.739469    3.540981
  C      1.467480    2.436894    2.519463
  O      1.532638    3.667263    1.792435
  H      1.815579    3.425079    0.869417
  H      1.252288    2.512821    3.585320
  H      0.686186    1.727678    2.137464
  H      2.382609    1.925820    2.485749

 Multiplicity           Mult            ....    1
 Number of Electrons    NEL             ....   18
 Basis Dimension        Dim             ....  172

ORBITAL ENERGIES
----------------

  NO   OCC          E(Eh)            E(eV)
   0   2.0000     -19.236794      -523.4598
   1   2.0000     -10.311898      -280.6010
   2   2.0000      -1.127015       -30.6676
   3   2.0000      -0.797294       -21.6955
   4   2.0000      -0.604676       -16.4541
   5   2.0000      -0.538975       -14.6663
   6   2.0000      -0.528432       -14.3794
   7   2.0000      -0.433924       -11.8077
   8   2.0000      -0.375178       -10.2091
   9   0.0000       0.095719         2.6046
  10   0.0000       0.115947         3.1551
  11   0.0000       0.147092         4.0026
  12   0.0000       0.177176         4.8212
  13   0.0000       0.197187         5.3657

MULLIKEN ATOMIC CHARGES
-----------------------
   0 C :   -0.000804
   1 O :   -0.000001
   2 H :    0.000005
   3 H :   -0.000031
   4 H :   -0.000877
   5 H :   -0.000226
   6 C :   -0.187691
   7 O :   -0.470774
   8 H :    0.317955
   9 H :    0.124195
  10 H :    0.101644
  11 H :    0.116607
Sum of atomic charges:   -0.0000000

LOEWDIN ATOMIC CHARGES
----------------------
   0 C :   -0.001902
   1 O :   -0.000021
   2 H :   -0.000011
   3 H :   -0.000030
   4 H :   -0.002794
   5 H :   -0.000117
   6 C :   -0.382159
   7 O :   -0.098597
   8 H :    0.191391
   9 H :    0.108431
  10 H :    0.099805
  11 H :    0.086003

  Mayer bond orders larger than 0.1
B(  6-C ,  7-O ) :   0.9969 B(  6-C ,  9-H ) :   0.9728 B(  6-C , 10-H ) :   0.9746
B(  6-C , 11-H ) :   0.9772 B(  7-O ,  8-H ) :   0.8918

Dispersion correction           -0.000253736
FINAL SINGLE POINT ENERGY      -115.730911253657

DIPOLE MOMENT
-------------
                                X             Y             Z
Electronic contribution:      0.07858       1.77424      -0.79912
Nuclear contribution   :      0.09703      -2.42434       0.53733
                        -----------------------------------------
Total Dipole Moment    :      0.17561      -0.65010      -0.26179
                        -----------------------------------------
Magnitude (a.u.)       :      0.72250
Magnitude (Debye)      :      1.83644

Rotational constants in cm-1:     4.412674     0.804936     0.776933
Rotational constants in MHz : 132288.628282 24131.368396 23291.869881

                             ****ORCA TERMINATED NORMALLY****
TOTAL RUN TIME: 0 days 0 hours 6 minutes 17 seconds 504 msec
