                         Program Version 4.1.2  - RELEASE  -
|  1> #Run DFT-D3 single point of the dimer
|  2> ! wB97X-D3 def2-TZVP TIGHTSCF CHELPG PMODEL PAL8
|  3>
|  4> %base "22-151_DFT_AB"
|  5>
|  6> %scf
|  7> MaxIter 1000
|  8> end
|  9>
| 10> * xyz 0 1
| 11>   C                      -4.746335            2.880887             -0.234083
| 12>   O                      -3.568935            2.925148             0.647374
| 13>   H                      -2.796051            2.897875             0.080328
| 14>   H                      -5.155526            3.875728             -0.398932
| 15>   H                      -4.485468            2.291806             -1.159059
| 16>   H                      -5.556382            2.300064             0.263460
| 17>   C                      -1.507390            1.154501             3.586945
| 18>   O                      -2.170510            2.402761             3.694004
| 19>   H                      -2.738338            2.516325             2.930582
| 20>   H                      -0.792150            1.052577             4.403646
| 21>   H                      -2.124443            0.255359             3.494135
| 22>   H                      -0.882122            1.146564             2.670415
| 23> *
| 24>
| 25> #Run DFT-D3 single point of the molecule with dimer basis set
| 26> $new_job
| 27> %base "22-151_DFT_A"
| 28> ! wB97X-D3 def2-TZVP TIGHTSCF CHELPG PMODEL
| 29>
| 30> %scf
| 31> MaxIter 1000
| 32> end
| 33>
| 34> * xyz 0 1
| 35>   C                      -4.746335            2.880887             -0.234083
| 36>   O                      -3.568935            2.925148             0.647374
| 37>   H                      -2.796051            2.897875             0.080328
| 38>   H                      -5.155526            3.875728             -0.398932
| 39>   H                      -4.485468            2.291806             -1.159059
| 40>   H                      -5.556382            2.300064             0.263460
| 41>   C                    : -1.507390            1.154501             3.586945
| 42>   O                    : -2.170510            2.402761             3.694004
| 43>   H                    : -2.738338            2.516325             2.930582
| 44>   H                    : -0.792150            1.052577             4.403646
| 45>   H                    : -2.124443            0.255359             3.494135
| 46>   H                    : -0.882122            1.146564             2.670415
| 47> *
| 48>
| 49> #Run DFT-D3 single point of the particle with dimer basis set
| 50> $new_job
| 51> %base "22-151_DFT_B"
| 52> ! wB97X-D3 def2-TZVP TIGHTSCF CHELPG PMODEL
| 53>
| 54> %scf
| 55> MaxIter 1000
| 56> end
| 57>
| 58> * xyz 0 1
| 59>   C                    : -4.746335            2.880887             -0.234083
| 60>   O                    : -3.568935            2.925148             0.647374
| 61>   H                    : -2.796051            2.897875             0.080328
| 62>   H                    : -5.155526            3.875728             -0.398932
| 63>   H                    : -4.485468            2.291806             -1.159059
| 64>   H                    : -5.556382            2.300064             0.263460
| 65>   C                      -1.507390            1.154501             3.586945
| 66>   O                      -2.170510            2.402761             3.694004
| 67>   H                      -2.738338            2.516325             2.930582
| 68>   H                      -0.792150            1.052577             4.403646
| 69>   H                      -2.124443            0.255359             3.494135
| 70>   H                      -0.882122            1.146564             2.670415
| 71> *
| 72>
| 73>                          ****END OF INPUT****
 Total Charge           Charge          ....    0
 Multiplicity           Mult            ....    1
 Number of Electrons    NEL             ....   36
Dispersion correction           -0.001346554
FINAL SINGLE POINT ENERGY      -231.473795664265
Dispersion correction           -0.000270240
FINAL SINGLE POINT ENERGY      -115.732482222605

CARTESIAN COORDINATES (ANGSTROEM)
---------------------------------
  C     -4.746335    2.880887   -0.234083
  O     -3.568935    2.925148    0.647374
  H     -2.796051    2.897875    0.080328
  H     -5.155526    3.875728   -0.398932
  H     -4.485468    2.291806   -1.159059
  H     -5.556382    2.300064    0.263460
  C     -1.507390    1.154501    3.586945
  O     -2.170510    2.402761    3.694004
  H     -2.738338    2.516325    2.930582
  H     -0.792150    1.052577    4.403646
  H     -2.124443    0.255359    3.494135
  H     -0.882122    1.146564    2.670415

 Multiplicity           Mult            ....    1
 Number of Electrons    NEL             ....   18
 Basis Dimension        Dim             ....  172

ORBITAL ENERGIES
----------------

  NO   OCC          E(Eh)            E(eV)
   0   2.0000     -19.232210      -523.3351
   1   2.0000     -10.315097      -280.6881
   2   2.0000      -1.136108       -30.9151
   3   2.0000      -0.796522       -21.6745
   4   2.0000      -0.614142       -16.7117
   5   2.0000      -0.534978       -14.5575
   6   2.0000      -0.527393       -14.3511
   7   2.0000      -0.437137       -11.8951
   8   2.0000      -0.373001       -10.1499
   9   0.0000       0.071646         1.9496
  10   0.0000       0.120924         3.2905
  11   0.0000       0.150697         4.1007
  12   0.0000       0.167672         4.5626
  13   0.0000       0.193884         5.2758

MULLIKEN ATOMIC CHARGES
-----------------------
   0 C :   -0.000333
   1 O :   -0.001247
   2 H :   -0.000361
   3 H :    0.000019
   4 H :    0.000007
   5 H :   -0.000000
   6 C :   -0.162716
   7 O :   -0.471602
   8 H :    0.312455
   9 H :    0.122685
  10 H :    0.103001
  11 H :    0.098095
Sum of atomic charges:   -0.0000000

LOEWDIN ATOMIC CHARGES
----------------------
   0 C :   -0.000403
   1 O :   -0.005305
   2 H :   -0.000690
   3 H :   -0.000009
   4 H :   -0.000008
   5 H :   -0.000027
   6 C :   -0.386901
   7 O :   -0.073304
   8 H :    0.167614
   9 H :    0.108814
  10 H :    0.093477
  11 H :    0.096742

  Mayer bond orders larger than 0.1
B(  6-C ,  7-O ) :   0.9960 B(  6-C ,  9-H ) :   0.9746 B(  6-C , 10-H ) :   0.9674
B(  6-C , 11-H ) :   0.9807 B(  7-O ,  8-H ) :   0.9056

Dispersion correction           -0.000252126
FINAL SINGLE POINT ENERGY      -115.735410572815

DIPOLE MOMENT
-------------
                                X             Y             Z
Electronic contribution:     -0.90721       1.61981       0.36811
Nuclear contribution   :      0.82166      -2.04052      -0.89570
                        -----------------------------------------
Total Dipole Moment    :     -0.08555      -0.42071      -0.52759
                        -----------------------------------------
Magnitude (a.u.)       :      0.68020
Magnitude (Debye)      :      1.72892

Rotational constants in cm-1:     4.350400     0.822700     0.790308
Rotational constants in MHz : 130421.703703 24663.911999 23692.839523

                             ****ORCA TERMINATED NORMALLY****
TOTAL RUN TIME: 0 days 0 hours 1 minutes 1 seconds 997 msec
