                         Program Version 4.1.2  - RELEASE  -
|  1> #Run DFT-D3 single point of the dimer
|  2> ! wB97X-D3 def2-TZVP TIGHTSCF CHELPG PMODEL PAL8
|  3>
|  4> %base "14-96_DFT_AB"
|  5>
|  6> %scf
|  7> MaxIter 1000
|  8> end
|  9>
| 10> * xyz 0 1
| 11>   C                      -8.023118            5.970073             -7.301579
| 12>   O                      -7.208899            5.748031             -6.199433
| 13>   H                      -7.582233            5.100643             -5.540227
| 14>   H                      -8.491772            6.984259             -7.204203
| 15>   H                      -7.494694            5.832346             -8.256467
| 16>   H                      -8.841849            5.215604             -7.301558
| 17>   C                      -5.012732            4.651737             -4.015420
| 18>   O                      -5.313746            6.068341             -3.824211
| 19>   H                      -5.792739            6.296180             -4.612807
| 20>   H                      -4.509524            4.441952             -4.946995
| 21>   H                      -4.294382            4.316787             -3.213413
| 22>   H                      -5.939629            4.108769             -3.953471
| 23> *
| 24>
| 25> #Run DFT-D3 single point of the molecule with dimer basis set
| 26> $new_job
| 27> %base "14-96_DFT_A"
| 28> ! wB97X-D3 def2-TZVP TIGHTSCF CHELPG PMODEL
| 29>
| 30> %scf
| 31> MaxIter 1000
| 32> end
| 33>
| 34> * xyz 0 1
| 35>   C                      -8.023118            5.970073             -7.301579
| 36>   O                      -7.208899            5.748031             -6.199433
| 37>   H                      -7.582233            5.100643             -5.540227
| 38>   H                      -8.491772            6.984259             -7.204203
| 39>   H                      -7.494694            5.832346             -8.256467
| 40>   H                      -8.841849            5.215604             -7.301558
| 41>   C                    : -5.012732            4.651737             -4.015420
| 42>   O                    : -5.313746            6.068341             -3.824211
| 43>   H                    : -5.792739            6.296180             -4.612807
| 44>   H                    : -4.509524            4.441952             -4.946995
| 45>   H                    : -4.294382            4.316787             -3.213413
| 46>   H                    : -5.939629            4.108769             -3.953471
| 47> *
| 48>
| 49> #Run DFT-D3 single point of the particle with dimer basis set
| 50> $new_job
| 51> %base "14-96_DFT_B"
| 52> ! wB97X-D3 def2-TZVP TIGHTSCF CHELPG PMODEL
| 53>
| 54> %scf
| 55> MaxIter 1000
| 56> end
| 57>
| 58> * xyz 0 1
| 59>   C                    : -8.023118            5.970073             -7.301579
| 60>   O                    : -7.208899            5.748031             -6.199433
| 61>   H                    : -7.582233            5.100643             -5.540227
| 62>   H                    : -8.491772            6.984259             -7.204203
| 63>   H                    : -7.494694            5.832346             -8.256467
| 64>   H                    : -8.841849            5.215604             -7.301558
| 65>   C                      -5.012732            4.651737             -4.015420
| 66>   O                      -5.313746            6.068341             -3.824211
| 67>   H                      -5.792739            6.296180             -4.612807
| 68>   H                      -4.509524            4.441952             -4.946995
| 69>   H                      -4.294382            4.316787             -3.213413
| 70>   H                      -5.939629            4.108769             -3.953471
| 71> *
| 72>
| 73>                          ****END OF INPUT****
 Total Charge           Charge          ....    0
 Multiplicity           Mult            ....    1
 Number of Electrons    NEL             ....   36
Dispersion correction           -0.001768210
FINAL SINGLE POINT ENERGY      -231.471826666883
Dispersion correction           -0.000249417
FINAL SINGLE POINT ENERGY      -115.731718049811

CARTESIAN COORDINATES (ANGSTROEM)
---------------------------------
  C     -8.023118    5.970073   -7.301579
  O     -7.208899    5.748031   -6.199433
  H     -7.582233    5.100643   -5.540227
  H     -8.491772    6.984259   -7.204203
  H     -7.494694    5.832346   -8.256467
  H     -8.841849    5.215604   -7.301558
  C     -5.012732    4.651737   -4.015420
  O     -5.313746    6.068341   -3.824211
  H     -5.792739    6.296180   -4.612807
  H     -4.509524    4.441952   -4.946995
  H     -4.294382    4.316787   -3.213413
  H     -5.939629    4.108769   -3.953471

 Multiplicity           Mult            ....    1
 Number of Electrons    NEL             ....   18
 Basis Dimension        Dim             ....  172

ORBITAL ENERGIES
----------------

  NO   OCC          E(Eh)            E(eV)
   0   2.0000     -19.229986      -523.2745
   1   2.0000     -10.316933      -280.7380
   2   2.0000      -1.127279       -30.6748
   3   2.0000      -0.795678       -21.6515
   4   2.0000      -0.601803       -16.3759
   5   2.0000      -0.546782       -14.8787
   6   2.0000      -0.514713       -14.0061
   7   2.0000      -0.440698       -11.9920
   8   2.0000      -0.377236       -10.2651
   9   0.0000       0.072295         1.9673
  10   0.0000       0.125556         3.4166
  11   0.0000       0.149218         4.0604
  12   0.0000       0.171432         4.6649
  13   0.0000       0.191831         5.2200

MULLIKEN ATOMIC CHARGES
-----------------------
   0 C :   -0.001031
   1 O :   -0.003183
   2 H :   -0.000580
   3 H :    0.000032
   4 H :    0.000019
   5 H :    0.000014
   6 C :   -0.192299
   7 O :   -0.472354
   8 H :    0.310516
   9 H :    0.115188
  10 H :    0.127501
  11 H :    0.116179
Sum of atomic charges:    0.0000000

LOEWDIN ATOMIC CHARGES
----------------------
   0 C :   -0.000735
   1 O :   -0.011136
   2 H :   -0.004267
   3 H :   -0.000027
   4 H :   -0.000019
   5 H :   -0.000018
   6 C :   -0.352202
   7 O :   -0.098265
   8 H :    0.161246
   9 H :    0.093549
  10 H :    0.117166
  11 H :    0.094708

  Mayer bond orders larger than 0.1
B(  6-C ,  7-O ) :   0.9866 B(  6-C ,  9-H ) :   0.9731 B(  6-C , 10-H ) :   0.9730
B(  6-C , 11-H ) :   0.9788 B(  7-O ,  8-H ) :   0.9120

Dispersion correction           -0.000240838
FINAL SINGLE POINT ENERGY      -115.733996803139

DIPOLE MOMENT
-------------
                                X             Y             Z
Electronic contribution:     -0.32729       1.73602       0.32921
Nuclear contribution   :      0.16399      -2.18757      -0.90194
                        -----------------------------------------
Total Dipole Moment    :     -0.16330      -0.45156      -0.57274
                        -----------------------------------------
Magnitude (a.u.)       :      0.74739
Magnitude (Debye)      :      1.89972

Rotational constants in cm-1:     4.235314     0.795776     0.766998
Rotational constants in MHz : 126971.514534 23856.767306 22994.009781

                             ****ORCA TERMINATED NORMALLY****
TOTAL RUN TIME: 0 days 0 hours 1 minutes 11 seconds 615 msec
