                         Program Version 4.1.2  - RELEASE  -
|  1> #Run DFT-D3 single point of the dimer
|  2> ! wB97X-D3 def2-TZVP TIGHTSCF CHELPG PMODEL PAL8
|  3>
|  4> %base "13-117_DFT_AB"
|  5>
|  6> %scf
|  7> MaxIter 1000
|  8> end
|  9>
| 10> * xyz 0 1
| 11>   C                      -4.012360            -0.632223            -6.223825
| 12>   O                      -2.965257            -0.703320            -7.190753
| 13>   H                      -2.852629            0.189757             -7.475184
| 14>   H                      -4.895015            -0.107006            -6.552738
| 15>   H                      -4.281098            -1.627161            -5.907874
| 16>   H                      -3.664603            -0.197199            -5.263075
| 17>   C                      -4.441860            0.252273             -10.388572
| 18>   O                      -5.831980            0.272758             -10.110588
| 19>   H                      -6.199616            0.251479             -11.006176
| 20>   H                      -4.139284            1.101493             -11.007962
| 21>   H                      -3.881177            0.211888             -9.421861
| 22>   H                      -4.225145            -0.703041            -10.844103
| 23> *
| 24>
| 25> #Run DFT-D3 single point of the molecule with dimer basis set
| 26> $new_job
| 27> %base "13-117_DFT_A"
| 28> ! wB97X-D3 def2-TZVP TIGHTSCF CHELPG PMODEL
| 29>
| 30> %scf
| 31> MaxIter 1000
| 32> end
| 33>
| 34> * xyz 0 1
| 35>   C                      -4.012360            -0.632223            -6.223825
| 36>   O                      -2.965257            -0.703320            -7.190753
| 37>   H                      -2.852629            0.189757             -7.475184
| 38>   H                      -4.895015            -0.107006            -6.552738
| 39>   H                      -4.281098            -1.627161            -5.907874
| 40>   H                      -3.664603            -0.197199            -5.263075
| 41>   C                    : -4.441860            0.252273             -10.388572
| 42>   O                    : -5.831980            0.272758             -10.110588
| 43>   H                    : -6.199616            0.251479             -11.006176
| 44>   H                    : -4.139284            1.101493             -11.007962
| 45>   H                    : -3.881177            0.211888             -9.421861
| 46>   H                    : -4.225145            -0.703041            -10.844103
| 47> *
| 48>
| 49> #Run DFT-D3 single point of the particle with dimer basis set
| 50> $new_job
| 51> %base "13-117_DFT_B"
| 52> ! wB97X-D3 def2-TZVP TIGHTSCF CHELPG PMODEL
| 53>
| 54> %scf
| 55> MaxIter 1000
| 56> end
| 57>
| 58> * xyz 0 1
| 59>   C                    : -4.012360            -0.632223            -6.223825
| 60>   O                    : -2.965257            -0.703320            -7.190753
| 61>   H                    : -2.852629            0.189757             -7.475184
| 62>   H                    : -4.895015            -0.107006            -6.552738
| 63>   H                    : -4.281098            -1.627161            -5.907874
| 64>   H                    : -3.664603            -0.197199            -5.263075
| 65>   C                      -4.441860            0.252273             -10.388572
| 66>   O                      -5.831980            0.272758             -10.110588
| 67>   H                      -6.199616            0.251479             -11.006176
| 68>   H                      -4.139284            1.101493             -11.007962
| 69>   H                      -3.881177            0.211888             -9.421861
| 70>   H                      -4.225145            -0.703041            -10.844103
| 71> *
| 72>
| 73>                          ****END OF INPUT****
 Total Charge           Charge          ....    0
 Multiplicity           Mult            ....    1
 Number of Electrons    NEL             ....   36
Dispersion correction           -0.001530986
FINAL SINGLE POINT ENERGY      -231.470004972159
Dispersion correction           -0.000243031
FINAL SINGLE POINT ENERGY      -115.735407304209

CARTESIAN COORDINATES (ANGSTROEM)
---------------------------------
  C     -4.012360   -0.632223   -6.223825
  O     -2.965257   -0.703320   -7.190753
  H     -2.852629    0.189757   -7.475184
  H     -4.895015   -0.107006   -6.552738
  H     -4.281098   -1.627161   -5.907874
  H     -3.664603   -0.197199   -5.263075
  C     -4.441860    0.252273  -10.388572
  O     -5.831980    0.272758  -10.110588
  H     -6.199616    0.251479  -11.006176
  H     -4.139284    1.101493  -11.007962
  H     -3.881177    0.211888   -9.421861
  H     -4.225145   -0.703041  -10.844103

 Multiplicity           Mult            ....    1
 Number of Electrons    NEL             ....   18
 Basis Dimension        Dim             ....  172

ORBITAL ENERGIES
----------------

  NO   OCC          E(Eh)            E(eV)
   0   2.0000     -19.230366      -523.2849
   1   2.0000     -10.313907      -280.6557
   2   2.0000      -1.137613       -30.9560
   3   2.0000      -0.789522       -21.4840
   4   2.0000      -0.605483       -16.4760
   5   2.0000      -0.551264       -15.0007
   6   2.0000      -0.521181       -14.1821
   7   2.0000      -0.437022       -11.8920
   8   2.0000      -0.373688       -10.1686
   9   0.0000       0.090918         2.4740
  10   0.0000       0.117478         3.1967
  11   0.0000       0.151634         4.1262
  12   0.0000       0.179665         4.8889
  13   0.0000       0.197780         5.3819

MULLIKEN ATOMIC CHARGES
-----------------------
   0 C :   -0.000243
   1 O :    0.000893
   2 H :   -0.000646
   3 H :   -0.000253
   4 H :   -0.000006
   5 H :    0.000061
   6 C :   -0.180790
   7 O :   -0.463167
   8 H :    0.312357
   9 H :    0.109054
  10 H :    0.115660
  11 H :    0.107081
Sum of atomic charges:   -0.0000000

LOEWDIN ATOMIC CHARGES
----------------------
   0 C :   -0.001360
   1 O :   -0.003569
   2 H :   -0.006077
   3 H :   -0.000363
   4 H :   -0.000017
   5 H :   -0.000009
   6 C :   -0.387664
   7 O :   -0.084725
   8 H :    0.175653
   9 H :    0.095554
  10 H :    0.118711
  11 H :    0.093866

  Mayer bond orders larger than 0.1
B(  6-C ,  7-O ) :   1.0040 B(  6-C ,  9-H ) :   0.9738 B(  6-C , 10-H ) :   0.9738
B(  6-C , 11-H ) :   0.9829 B(  7-O ,  8-H ) :   0.9030

Dispersion correction           -0.000213209
FINAL SINGLE POINT ENERGY      -115.733529406655

DIPOLE MOMENT
-------------
                                X             Y             Z
Electronic contribution:     -1.72157       0.12229       0.46410
Nuclear contribution   :      2.03893      -0.15895      -1.11374
                        -----------------------------------------
Total Dipole Moment    :      0.31736      -0.03665      -0.64964
                        -----------------------------------------
Magnitude (a.u.)       :      0.72394
Magnitude (Debye)      :      1.84011

Rotational constants in cm-1:     4.135956     0.841607     0.809174
Rotational constants in MHz : 123992.847508 25230.752168 24258.419649

                             ****ORCA TERMINATED NORMALLY****
TOTAL RUN TIME: 0 days 0 hours 1 minutes 0 seconds 330 msec
