                         Program Version 4.1.2  - RELEASE  -
|  1> #Run DFT-D3 single point of the dimer
|  2> ! wB97X-D3 def2-TZVP TIGHTSCF CHELPG PMODEL PAL8
|  3>
|  4> %base "2-70_DFT_AB"
|  5>
|  6> %scf
|  7> MaxIter 1000
|  8> end
|  9>
| 10> * xyz 0 1
| 11>   C                      2.216168             -10.583670           6.792271
| 12>   O                      1.676542             -10.073466           5.612727
| 13>   H                      2.289929             -10.296612           4.873086
| 14>   H                      1.920652             -11.635590           6.979439
| 15>   H                      3.230282             -10.410300           6.926087
| 16>   H                      1.813010             -10.092693           7.607417
| 17>   C                      -0.083451            -8.652331            9.068069
| 18>   O                      -0.742948            -7.412282            9.454303
| 19>   H                      -0.232314            -6.660138            9.257204
| 20>   H                      -0.139988            -9.365678            9.806319
| 21>   H                      -0.524478            -9.182056            8.255366
| 22>   H                      1.021803             -8.573023            8.903212
| 23> *
| 24>
| 25> #Run DFT-D3 single point of the molecule with dimer basis set
| 26> $new_job
| 27> %base "2-70_DFT_A"
| 28> ! wB97X-D3 def2-TZVP TIGHTSCF CHELPG PMODEL
| 29>
| 30> %scf
| 31> MaxIter 1000
| 32> end
| 33>
| 34> * xyz 0 1
| 35>   C                      2.216168             -10.583670           6.792271
| 36>   O                      1.676542             -10.073466           5.612727
| 37>   H                      2.289929             -10.296612           4.873086
| 38>   H                      1.920652             -11.635590           6.979439
| 39>   H                      3.230282             -10.410300           6.926087
| 40>   H                      1.813010             -10.092693           7.607417
| 41>   C                    : -0.083451            -8.652331            9.068069
| 42>   O                    : -0.742948            -7.412282            9.454303
| 43>   H                    : -0.232314            -6.660138            9.257204
| 44>   H                    : -0.139988            -9.365678            9.806319
| 45>   H                    : -0.524478            -9.182056            8.255366
| 46>   H                    : 1.021803             -8.573023            8.903212
| 47> *
| 48>
| 49> #Run DFT-D3 single point of the particle with dimer basis set
| 50> $new_job
| 51> %base "2-70_DFT_B"
| 52> ! wB97X-D3 def2-TZVP TIGHTSCF CHELPG PMODEL
| 53>
| 54> %scf
| 55> MaxIter 1000
| 56> end
| 57>
| 58> * xyz 0 1
| 59>   C                    : 2.216168             -10.583670           6.792271
| 60>   O                    : 1.676542             -10.073466           5.612727
| 61>   H                    : 2.289929             -10.296612           4.873086
| 62>   H                    : 1.920652             -11.635590           6.979439
| 63>   H                    : 3.230282             -10.410300           6.926087
| 64>   H                    : 1.813010             -10.092693           7.607417
| 65>   C                      -0.083451            -8.652331            9.068069
| 66>   O                      -0.742948            -7.412282            9.454303
| 67>   H                      -0.232314            -6.660138            9.257204
| 68>   H                      -0.139988            -9.365678            9.806319
| 69>   H                      -0.524478            -9.182056            8.255366
| 70>   H                      1.021803             -8.573023            8.903212
| 71> *
| 72>
| 73>                          ****END OF INPUT****
 Total Charge           Charge          ....    0
 Multiplicity           Mult            ....    1
 Number of Electrons    NEL             ....   36
Dispersion correction           -0.001577569
FINAL SINGLE POINT ENERGY      -231.454697636924
Dispersion correction           -0.000238871
FINAL SINGLE POINT ENERGY      -115.728949910430

CARTESIAN COORDINATES (ANGSTROEM)
---------------------------------
  C      2.216168  -10.583670    6.792271
  O      1.676542  -10.073466    5.612727
  H      2.289929  -10.296612    4.873086
  H      1.920652  -11.635590    6.979439
  H      3.230282  -10.410300    6.926087
  H      1.813010  -10.092693    7.607417
  C     -0.083451   -8.652331    9.068069
  O     -0.742948   -7.412282    9.454303
  H     -0.232314   -6.660138    9.257204
  H     -0.139988   -9.365678    9.806319
  H     -0.524478   -9.182056    8.255366
  H      1.021803   -8.573023    8.903212

 Multiplicity           Mult            ....    1
 Number of Electrons    NEL             ....   18
 Basis Dimension        Dim             ....  172

ORBITAL ENERGIES
----------------

  NO   OCC          E(Eh)            E(eV)
   0   2.0000     -19.229083      -523.2500
   1   2.0000     -10.310650      -280.5670
   2   2.0000      -1.127679       -30.6857
   3   2.0000      -0.812460       -22.1082
   4   2.0000      -0.610506       -16.6127
   5   2.0000      -0.536366       -14.5952
   6   2.0000      -0.528976       -14.3942
   7   2.0000      -0.432737       -11.7754
   8   2.0000      -0.378086       -10.2882
   9   0.0000       0.082464         2.2440
  10   0.0000       0.120273         3.2728
  11   0.0000       0.147066         4.0019
  12   0.0000       0.169717         4.6182
  13   0.0000       0.183668         4.9979

MULLIKEN ATOMIC CHARGES
-----------------------
   0 C :    0.003038
   1 O :    0.000418
   2 H :    0.000041
   3 H :   -0.000073
   4 H :   -0.000432
   5 H :   -0.007685
   6 C :   -0.169913
   7 O :   -0.481975
   8 H :    0.314086
   9 H :    0.125062
  10 H :    0.109921
  11 H :    0.107512
Sum of atomic charges:   -0.0000000

LOEWDIN ATOMIC CHARGES
----------------------
   0 C :   -0.004606
   1 O :   -0.000128
   2 H :   -0.000008
   3 H :   -0.000041
   4 H :   -0.000082
   5 H :   -0.009456
   6 C :   -0.343775
   7 O :   -0.085549
   8 H :    0.145786
   9 H :    0.090584
  10 H :    0.096389
  11 H :    0.110886

  Mayer bond orders larger than 0.1
B(  6-C ,  7-O ) :   1.0103 B(  6-C ,  9-H ) :   0.9747 B(  6-C , 10-H ) :   0.9758
B(  6-C , 11-H ) :   0.9810 B(  7-O ,  8-H ) :   0.9047

Dispersion correction           -0.000287689
FINAL SINGLE POINT ENERGY      -115.725607767391

DIPOLE MOMENT
-------------
                                X             Y             Z
Electronic contribution:     -0.98369       1.57918       0.49363
Nuclear contribution   :      1.60695      -1.63537      -0.76198
                        -----------------------------------------
Total Dipole Moment    :      0.62325      -0.05618      -0.26835
                        -----------------------------------------
Magnitude (a.u.)       :      0.68089
Magnitude (Debye)      :      1.73069

Rotational constants in cm-1:     4.746459     0.781087     0.750847
Rotational constants in MHz : 142295.248813 23416.393158 22509.833646

                             ****ORCA TERMINATED NORMALLY****
TOTAL RUN TIME: 0 days 0 hours 6 minutes 7 seconds 246 msec
