                         Program Version 4.1.2  - RELEASE  -
|  1> #Run DFT-D3 single point of the dimer
|  2> ! wB97X-D3 def2-TZVP TIGHTSCF CHELPG PMODEL PAL8
|  3>
|  4> %base "10-216_DFT_AB"
|  5>
|  6> %scf
|  7> MaxIter 1000
|  8> end
|  9>
| 10> * xyz 0 1
| 11>   C                      3.390229             -8.763379            8.206568
| 12>   O                      2.293317             -8.817549            7.273787
| 13>   H                      1.603742             -8.200066            7.583275
| 14>   H                      4.340334             -8.858161            7.725690
| 15>   H                      3.457738             -7.764749            8.617547
| 16>   H                      3.260541             -9.496691            9.021267
| 17>   C                      4.927070             -7.136852            4.687210
| 18>   O                      3.481489             -7.286531            4.707330
| 19>   H                      3.231415             -7.831343            5.483614
| 20>   H                      5.359156             -6.790389            3.759214
| 21>   H                      5.171913             -6.330077            5.394438
| 22>   H                      5.407996             -8.090754            4.960268
| 23> *
| 24>
| 25> #Run DFT-D3 single point of the molecule with dimer basis set
| 26> $new_job
| 27> %base "10-216_DFT_A"
| 28> ! wB97X-D3 def2-TZVP TIGHTSCF CHELPG PMODEL
| 29>
| 30> %scf
| 31> MaxIter 1000
| 32> end
| 33>
| 34> * xyz 0 1
| 35>   C                      3.390229             -8.763379            8.206568
| 36>   O                      2.293317             -8.817549            7.273787
| 37>   H                      1.603742             -8.200066            7.583275
| 38>   H                      4.340334             -8.858161            7.725690
| 39>   H                      3.457738             -7.764749            8.617547
| 40>   H                      3.260541             -9.496691            9.021267
| 41>   C                    : 4.927070             -7.136852            4.687210
| 42>   O                    : 3.481489             -7.286531            4.707330
| 43>   H                    : 3.231415             -7.831343            5.483614
| 44>   H                    : 5.359156             -6.790389            3.759214
| 45>   H                    : 5.171913             -6.330077            5.394438
| 46>   H                    : 5.407996             -8.090754            4.960268
| 47> *
| 48>
| 49> #Run DFT-D3 single point of the particle with dimer basis set
| 50> $new_job
| 51> %base "10-216_DFT_B"
| 52> ! wB97X-D3 def2-TZVP TIGHTSCF CHELPG PMODEL
| 53>
| 54> %scf
| 55> MaxIter 1000
| 56> end
| 57>
| 58> * xyz 0 1
| 59>   C                    : 3.390229             -8.763379            8.206568
| 60>   O                    : 2.293317             -8.817549            7.273787
| 61>   H                    : 1.603742             -8.200066            7.583275
| 62>   H                    : 4.340334             -8.858161            7.725690
| 63>   H                    : 3.457738             -7.764749            8.617547
| 64>   H                    : 3.260541             -9.496691            9.021267
| 65>   C                      4.927070             -7.136852            4.687210
| 66>   O                      3.481489             -7.286531            4.707330
| 67>   H                      3.231415             -7.831343            5.483614
| 68>   H                      5.359156             -6.790389            3.759214
| 69>   H                      5.171913             -6.330077            5.394438
| 70>   H                      5.407996             -8.090754            4.960268
| 71> *
| 72>
| 73>                          ****END OF INPUT****
 Total Charge           Charge          ....    0
 Multiplicity           Mult            ....    1
 Number of Electrons    NEL             ....   36
Dispersion correction           -0.001880380
FINAL SINGLE POINT ENERGY      -231.472536623221
Dispersion correction           -0.000250861
FINAL SINGLE POINT ENERGY      -115.733682670801

CARTESIAN COORDINATES (ANGSTROEM)
---------------------------------
  C      3.390229   -8.763379    8.206568
  O      2.293317   -8.817549    7.273787
  H      1.603742   -8.200066    7.583275
  H      4.340334   -8.858161    7.725690
  H      3.457738   -7.764749    8.617547
  H      3.260541   -9.496691    9.021267
  C      4.927070   -7.136852    4.687210
  O      3.481489   -7.286531    4.707330
  H      3.231415   -7.831343    5.483614
  H      5.359156   -6.790389    3.759214
  H      5.171913   -6.330077    5.394438
  H      5.407996   -8.090754    4.960268

 Multiplicity           Mult            ....    1
 Number of Electrons    NEL             ....   18
 Basis Dimension        Dim             ....  172

ORBITAL ENERGIES
----------------

  NO   OCC          E(Eh)            E(eV)
   0   2.0000     -19.230371      -523.2850
   1   2.0000     -10.317387      -280.7504
   2   2.0000      -1.119410       -30.4607
   3   2.0000      -0.796113       -21.6633
   4   2.0000      -0.597535       -16.2597
   5   2.0000      -0.539195       -14.6722
   6   2.0000      -0.529501       -14.4085
   7   2.0000      -0.430045       -11.7021
   8   2.0000      -0.372175       -10.1274
   9   0.0000       0.067913         1.8480
  10   0.0000       0.134993         3.6733
  11   0.0000       0.140072         3.8116
  12   0.0000       0.171197         4.6585
  13   0.0000       0.181685         4.9439

MULLIKEN ATOMIC CHARGES
-----------------------
   0 C :   -0.005733
   1 O :    0.001068
   2 H :   -0.000048
   3 H :    0.000762
   4 H :    0.000522
   5 H :   -0.000141
   6 C :   -0.171065
   7 O :   -0.483149
   8 H :    0.314142
   9 H :    0.125639
  10 H :    0.109271
  11 H :    0.108731
Sum of atomic charges:   -0.0000000

LOEWDIN ATOMIC CHARGES
----------------------
   0 C :   -0.005120
   1 O :   -0.007671
   2 H :   -0.000937
   3 H :   -0.001027
   4 H :   -0.000193
   5 H :   -0.000118
   6 C :   -0.357516
   7 O :   -0.112200
   8 H :    0.182246
   9 H :    0.103838
  10 H :    0.099490
  11 H :    0.099208

  Mayer bond orders larger than 0.1
B(  6-C ,  7-O ) :   0.9830 B(  6-C ,  9-H ) :   0.9709 B(  6-C , 10-H ) :   0.9810
B(  6-C , 11-H ) :   0.9792 B(  7-O ,  8-H ) :   0.9042

Dispersion correction           -0.000256482
FINAL SINGLE POINT ENERGY      -115.731839429612

DIPOLE MOMENT
-------------
                                X             Y             Z
Electronic contribution:     -1.79550      -0.14518      -0.19666
Nuclear contribution   :      2.25718      -0.12650       0.65809
                        -----------------------------------------
Total Dipole Moment    :      0.46168      -0.27168       0.46142
                        -----------------------------------------
Magnitude (a.u.)       :      0.70702
Magnitude (Debye)      :      1.79709

Rotational constants in cm-1:     4.293568     0.790306     0.764387
Rotational constants in MHz : 128717.925138 23692.766563 22915.731588

                             ****ORCA TERMINATED NORMALLY****
TOTAL RUN TIME: 0 days 0 hours 1 minutes 7 seconds 593 msec
