                         Program Version 4.1.2  - RELEASE  -
|  1> #Run DFT-D3 single point of the dimer
|  2> ! wB97X-D3 def2-TZVP TIGHTSCF CHELPG PMODEL PAL8
|  3>
|  4> %base "15-114_DFT_AB"
|  5>
|  6> %scf
|  7> MaxIter 1000
|  8> end
|  9>
| 10> * xyz 0 1
| 11>   C                      -8.741298            2.011350             -3.240860
| 12>   O                      -9.621524            0.943779             -3.563059
| 13>   H                      -9.309505            0.156833             -3.162644
| 14>   H                      -9.085731            2.993607             -3.654103
| 15>   H                      -8.600028            2.141304             -2.154189
| 16>   H                      -7.868140            1.741703             -3.848083
| 17>   C                      -8.573909            -2.077596            -4.345326
| 18>   O                      -9.735790            -2.214274            -3.613718
| 19>   H                      -9.935774            -3.090446            -3.276745
| 20>   H                      -8.233384            -1.011311            -4.283582
| 21>   H                      -7.841778            -2.740519            -3.977391
| 22>   H                      -8.738142            -2.353538            -5.386780
| 23> *
| 24>
| 25> #Run DFT-D3 single point of the molecule with dimer basis set
| 26> $new_job
| 27> %base "15-114_DFT_A"
| 28> ! wB97X-D3 def2-TZVP TIGHTSCF CHELPG PMODEL
| 29>
| 30> %scf
| 31> MaxIter 1000
| 32> end
| 33>
| 34> * xyz 0 1
| 35>   C                      -8.741298            2.011350             -3.240860
| 36>   O                      -9.621524            0.943779             -3.563059
| 37>   H                      -9.309505            0.156833             -3.162644
| 38>   H                      -9.085731            2.993607             -3.654103
| 39>   H                      -8.600028            2.141304             -2.154189
| 40>   H                      -7.868140            1.741703             -3.848083
| 41>   C                    : -8.573909            -2.077596            -4.345326
| 42>   O                    : -9.735790            -2.214274            -3.613718
| 43>   H                    : -9.935774            -3.090446            -3.276745
| 44>   H                    : -8.233384            -1.011311            -4.283582
| 45>   H                    : -7.841778            -2.740519            -3.977391
| 46>   H                    : -8.738142            -2.353538            -5.386780
| 47> *
| 48>
| 49> #Run DFT-D3 single point of the particle with dimer basis set
| 50> $new_job
| 51> %base "15-114_DFT_B"
| 52> ! wB97X-D3 def2-TZVP TIGHTSCF CHELPG PMODEL
| 53>
| 54> %scf
| 55> MaxIter 1000
| 56> end
| 57>
| 58> * xyz 0 1
| 59>   C                    : -8.741298            2.011350             -3.240860
| 60>   O                    : -9.621524            0.943779             -3.563059
| 61>   H                    : -9.309505            0.156833             -3.162644
| 62>   H                    : -9.085731            2.993607             -3.654103
| 63>   H                    : -8.600028            2.141304             -2.154189
| 64>   H                    : -7.868140            1.741703             -3.848083
| 65>   C                      -8.573909            -2.077596            -4.345326
| 66>   O                      -9.735790            -2.214274            -3.613718
| 67>   H                      -9.935774            -3.090446            -3.276745
| 68>   H                      -8.233384            -1.011311            -4.283582
| 69>   H                      -7.841778            -2.740519            -3.977391
| 70>   H                      -8.738142            -2.353538            -5.386780
| 71> *
| 72>
| 73>                          ****END OF INPUT****
 Total Charge           Charge          ....    0
 Multiplicity           Mult            ....    1
 Number of Electrons    NEL             ....   36
Dispersion correction           -0.001726091
FINAL SINGLE POINT ENERGY      -231.464051679241
Dispersion correction           -0.000231632
FINAL SINGLE POINT ENERGY      -115.730354208125

CARTESIAN COORDINATES (ANGSTROEM)
---------------------------------
  C     -8.741298    2.011350   -3.240860
  O     -9.621524    0.943779   -3.563059
  H     -9.309505    0.156833   -3.162644
  H     -9.085731    2.993607   -3.654103
  H     -8.600028    2.141304   -2.154189
  H     -7.868140    1.741703   -3.848083
  C     -8.573909   -2.077596   -4.345326
  O     -9.735790   -2.214274   -3.613718
  H     -9.935774   -3.090446   -3.276745
  H     -8.233384   -1.011311   -4.283582
  H     -7.841778   -2.740519   -3.977391
  H     -8.738142   -2.353538   -5.386780

 Multiplicity           Mult            ....    1
 Number of Electrons    NEL             ....   18
 Basis Dimension        Dim             ....  172

ORBITAL ENERGIES
----------------

  NO   OCC          E(Eh)            E(eV)
   0   2.0000     -19.223721      -523.1040
   1   2.0000     -10.308232      -280.5013
   2   2.0000      -1.140297       -31.0291
   3   2.0000      -0.798149       -21.7187
   4   2.0000      -0.621079       -16.9004
   5   2.0000      -0.543367       -14.7858
   6   2.0000      -0.533251       -14.5105
   7   2.0000      -0.422105       -11.4861
   8   2.0000      -0.367986       -10.0134
   9   0.0000       0.094619         2.5747
  10   0.0000       0.118391         3.2216
  11   0.0000       0.159233         4.3329
  12   0.0000       0.186390         5.0719
  13   0.0000       0.197609         5.3772

MULLIKEN ATOMIC CHARGES
-----------------------
   0 C :   -0.001329
   1 O :    0.000970
   2 H :   -0.001274
   3 H :   -0.000024
   4 H :   -0.000044
   5 H :    0.000360
   6 C :   -0.138408
   7 O :   -0.487674
   8 H :    0.316834
   9 H :    0.111939
  10 H :    0.102770
  11 H :    0.095880
Sum of atomic charges:   -0.0000000

LOEWDIN ATOMIC CHARGES
----------------------
   0 C :   -0.001911
   1 O :   -0.004664
   2 H :   -0.014555
   3 H :   -0.000013
   4 H :   -0.000013
   5 H :   -0.001041
   6 C :   -0.395026
   7 O :   -0.049938
   8 H :    0.167642
   9 H :    0.120036
  10 H :    0.086575
  11 H :    0.092908

  Mayer bond orders larger than 0.1
B(  6-C ,  7-O ) :   0.9945 B(  6-C ,  9-H ) :   0.9740 B(  6-C , 10-H ) :   0.9863
B(  6-C , 11-H ) :   0.9771 B(  7-O ,  8-H ) :   0.8904

Dispersion correction           -0.000234068
FINAL SINGLE POINT ENERGY      -115.732516962651

DIPOLE MOMENT
-------------
                                X             Y             Z
Electronic contribution:     -1.45868      -0.08390       0.94163
Nuclear contribution   :      1.79684      -0.47066      -0.99103
                        -----------------------------------------
Total Dipole Moment    :      0.33816      -0.55456      -0.04940
                        -----------------------------------------
Magnitude (a.u.)       :      0.65140
Magnitude (Debye)      :      1.65573

Rotational constants in cm-1:     4.400527     0.862314     0.828557
Rotational constants in MHz : 131924.490664 25851.534361 24839.525352

                             ****ORCA TERMINATED NORMALLY****
TOTAL RUN TIME: 0 days 0 hours 1 minutes 2 seconds 467 msec
