                         Program Version 4.1.2  - RELEASE  -
|  1> #Run DFT-D3 single point of the dimer
|  2> ! wB97X-D3 def2-TZVP TIGHTSCF CHELPG PMODEL PAL8
|  3>
|  4> %base "20-175_DFT_AB"
|  5>
|  6> %scf
|  7> MaxIter 1000
|  8> end
|  9>
| 10> * xyz 0 1
| 11>   C                      -9.312661            -8.723315            0.015196
| 12>   O                      -10.497548           -9.415589            -0.222541
| 13>   H                      -10.437662           -9.884623            -1.059188
| 14>   H                      -9.266104            -8.402779            1.095260
| 15>   H                      -8.411689            -9.399035            -0.151624
| 16>   H                      -9.040852            -7.889552            -0.646920
| 17>   C                      -10.855573           -11.085070           -2.870032
| 18>   O                      -9.669875            -10.988829           -2.094075
| 19>   H                      -8.850628            -11.052110           -2.622754
| 20>   H                      -10.806833           -10.564567           -3.839186
| 21>   H                      -10.988498           -12.153725           -3.110980
| 22>   H                      -11.705414           -10.595916           -2.347252
| 23> *
| 24>
| 25> #Run DFT-D3 single point of the molecule with dimer basis set
| 26> $new_job
| 27> %base "20-175_DFT_A"
| 28> ! wB97X-D3 def2-TZVP TIGHTSCF CHELPG PMODEL
| 29>
| 30> %scf
| 31> MaxIter 1000
| 32> end
| 33>
| 34> * xyz 0 1
| 35>   C                      -9.312661            -8.723315            0.015196
| 36>   O                      -10.497548           -9.415589            -0.222541
| 37>   H                      -10.437662           -9.884623            -1.059188
| 38>   H                      -9.266104            -8.402779            1.095260
| 39>   H                      -8.411689            -9.399035            -0.151624
| 40>   H                      -9.040852            -7.889552            -0.646920
| 41>   C                    : -10.855573           -11.085070           -2.870032
| 42>   O                    : -9.669875            -10.988829           -2.094075
| 43>   H                    : -8.850628            -11.052110           -2.622754
| 44>   H                    : -10.806833           -10.564567           -3.839186
| 45>   H                    : -10.988498           -12.153725           -3.110980
| 46>   H                    : -11.705414           -10.595916           -2.347252
| 47> *
| 48>
| 49> #Run DFT-D3 single point of the particle with dimer basis set
| 50> $new_job
| 51> %base "20-175_DFT_B"
| 52> ! wB97X-D3 def2-TZVP TIGHTSCF CHELPG PMODEL
| 53>
| 54> %scf
| 55> MaxIter 1000
| 56> end
| 57>
| 58> * xyz 0 1
| 59>   C                    : -9.312661            -8.723315            0.015196
| 60>   O                    : -10.497548           -9.415589            -0.222541
| 61>   H                    : -10.437662           -9.884623            -1.059188
| 62>   H                    : -9.266104            -8.402779            1.095260
| 63>   H                    : -8.411689            -9.399035            -0.151624
| 64>   H                    : -9.040852            -7.889552            -0.646920
| 65>   C                      -10.855573           -11.085070           -2.870032
| 66>   O                      -9.669875            -10.988829           -2.094075
| 67>   H                      -8.850628            -11.052110           -2.622754
| 68>   H                      -10.806833           -10.564567           -3.839186
| 69>   H                      -10.988498           -12.153725           -3.110980
| 70>   H                      -11.705414           -10.595916           -2.347252
| 71> *
| 72>
| 73>                          ****END OF INPUT****
 Total Charge           Charge          ....    0
 Multiplicity           Mult            ....    1
 Number of Electrons    NEL             ....   36
Dispersion correction           -0.002059715
FINAL SINGLE POINT ENERGY      -231.466747277651
Dispersion correction           -0.000257496
FINAL SINGLE POINT ENERGY      -115.732810098476

CARTESIAN COORDINATES (ANGSTROEM)
---------------------------------
  C     -9.312661   -8.723315    0.015196
  O    -10.497548   -9.415589   -0.222541
  H    -10.437662   -9.884623   -1.059188
  H     -9.266104   -8.402779    1.095260
  H     -8.411689   -9.399035   -0.151624
  H     -9.040852   -7.889552   -0.646920
  C    -10.855573  -11.085070   -2.870032
  O     -9.669875  -10.988829   -2.094075
  H     -8.850628  -11.052110   -2.622754
  H    -10.806833  -10.564567   -3.839186
  H    -10.988498  -12.153725   -3.110980
  H    -11.705414  -10.595916   -2.347252

 Multiplicity           Mult            ....    1
 Number of Electrons    NEL             ....   18
 Basis Dimension        Dim             ....  172

ORBITAL ENERGIES
----------------

  NO   OCC          E(Eh)            E(eV)
   0   2.0000     -19.229200      -523.2531
   1   2.0000     -10.317643      -280.7573
   2   2.0000      -1.127510       -30.6811
   3   2.0000      -0.793652       -21.5964
   4   2.0000      -0.609237       -16.5782
   5   2.0000      -0.546251       -14.8642
   6   2.0000      -0.517605       -14.0848
   7   2.0000      -0.426720       -11.6116
   8   2.0000      -0.371367       -10.1054
   9   0.0000       0.098262         2.6739
  10   0.0000       0.129578         3.5260
  11   0.0000       0.147504         4.0138
  12   0.0000       0.185089         5.0365
  13   0.0000       0.200247         5.4490

MULLIKEN ATOMIC CHARGES
-----------------------
   0 C :   -0.000284
   1 O :    0.002702
   2 H :    0.003540
   3 H :   -0.000634
   4 H :   -0.005008
   5 H :   -0.001464
   6 C :   -0.159517
   7 O :   -0.484945
   8 H :    0.316502
   9 H :    0.101844
  10 H :    0.105841
  11 H :    0.121423
Sum of atomic charges:   -0.0000000

LOEWDIN ATOMIC CHARGES
----------------------
   0 C :   -0.013506
   1 O :   -0.012457
   2 H :   -0.062256
   3 H :   -0.000222
   4 H :   -0.004259
   5 H :   -0.000694
   6 C :   -0.368225
   7 O :   -0.027822
   8 H :    0.176733
   9 H :    0.095227
  10 H :    0.099584
  11 H :    0.117896

  Mayer bond orders larger than 0.1
B(  6-C ,  7-O ) :   0.9857 B(  6-C ,  9-H ) :   0.9724 B(  6-C , 10-H ) :   0.9773
B(  6-C , 11-H ) :   0.9779 B(  7-O ,  8-H ) :   0.8899

Dispersion correction           -0.000257829
FINAL SINGLE POINT ENERGY      -115.733339010824

DIPOLE MOMENT
-------------
                                X             Y             Z
Electronic contribution:      1.37734       0.13520       1.13235
Nuclear contribution   :     -1.33517      -0.20096      -1.80891
                        -----------------------------------------
Total Dipole Moment    :      0.04217      -0.06577      -0.67656
                        -----------------------------------------
Magnitude (a.u.)       :      0.68106
Magnitude (Debye)      :      1.73111

Rotational constants in cm-1:     4.251470     0.816156     0.788937
Rotational constants in MHz : 127455.860735 24467.735610 23651.740965

                             ****ORCA TERMINATED NORMALLY****
TOTAL RUN TIME: 0 days 0 hours 1 minutes 11 seconds 327 msec
