                         Program Version 4.1.2  - RELEASE  -
|  1> #Run DFT-D3 single point of the dimer
|  2> ! wB97X-D3 def2-TZVP TIGHTSCF CHELPG PMODEL PAL8
|  3>
|  4> %base "4-130_DFT_AB"
|  5>
|  6> %scf
|  7> MaxIter 1000
|  8> end
|  9>
| 10> * xyz 0 1
| 11>   C                      7.403587             -9.978403            2.850823
| 12>   O                      8.436868             -10.175592           3.819464
| 13>   H                      8.901432             -9.344453            3.760023
| 14>   H                      6.659822             -10.796634           2.741819
| 15>   H                      6.753976             -9.111193            3.112570
| 16>   H                      7.782467             -9.757799            1.881767
| 17>   C                      7.856443             -9.389643            7.401398
| 18>   O                      9.152816             -9.756470            7.777369
| 19>   H                      8.957298             -10.307832           8.542634
| 20>   H                      7.450292             -8.700106            8.069318
| 21>   H                      7.654278             -8.999541            6.338729
| 22>   H                      7.305150             -10.304182           7.327361
| 23> *
| 24>
| 25> #Run DFT-D3 single point of the molecule with dimer basis set
| 26> $new_job
| 27> %base "4-130_DFT_A"
| 28> ! wB97X-D3 def2-TZVP TIGHTSCF CHELPG PMODEL
| 29>
| 30> %scf
| 31> MaxIter 1000
| 32> end
| 33>
| 34> * xyz 0 1
| 35>   C                      7.403587             -9.978403            2.850823
| 36>   O                      8.436868             -10.175592           3.819464
| 37>   H                      8.901432             -9.344453            3.760023
| 38>   H                      6.659822             -10.796634           2.741819
| 39>   H                      6.753976             -9.111193            3.112570
| 40>   H                      7.782467             -9.757799            1.881767
| 41>   C                    : 7.856443             -9.389643            7.401398
| 42>   O                    : 9.152816             -9.756470            7.777369
| 43>   H                    : 8.957298             -10.307832           8.542634
| 44>   H                    : 7.450292             -8.700106            8.069318
| 45>   H                    : 7.654278             -8.999541            6.338729
| 46>   H                    : 7.305150             -10.304182           7.327361
| 47> *
| 48>
| 49> #Run DFT-D3 single point of the particle with dimer basis set
| 50> $new_job
| 51> %base "4-130_DFT_B"
| 52> ! wB97X-D3 def2-TZVP TIGHTSCF CHELPG PMODEL
| 53>
| 54> %scf
| 55> MaxIter 1000
| 56> end
| 57>
| 58> * xyz 0 1
| 59>   C                    : 7.403587             -9.978403            2.850823
| 60>   O                    : 8.436868             -10.175592           3.819464
| 61>   H                    : 8.901432             -9.344453            3.760023
| 62>   H                    : 6.659822             -10.796634           2.741819
| 63>   H                    : 6.753976             -9.111193            3.112570
| 64>   H                    : 7.782467             -9.757799            1.881767
| 65>   C                      7.856443             -9.389643            7.401398
| 66>   O                      9.152816             -9.756470            7.777369
| 67>   H                      8.957298             -10.307832           8.542634
| 68>   H                      7.450292             -8.700106            8.069318
| 69>   H                      7.654278             -8.999541            6.338729
| 70>   H                      7.305150             -10.304182           7.327361
| 71> *
| 72>
| 73>                          ****END OF INPUT****
 Total Charge           Charge          ....    0
 Multiplicity           Mult            ....    1
 Number of Electrons    NEL             ....   36
Dispersion correction           -0.001350389
FINAL SINGLE POINT ENERGY      -231.455972249972
Dispersion correction           -0.000237993
FINAL SINGLE POINT ENERGY      -115.731916995123

CARTESIAN COORDINATES (ANGSTROEM)
---------------------------------
  C      7.403587   -9.978403    2.850823
  O      8.436868  -10.175592    3.819464
  H      8.901432   -9.344453    3.760023
  H      6.659822  -10.796634    2.741819
  H      6.753976   -9.111193    3.112570
  H      7.782467   -9.757799    1.881767
  C      7.856443   -9.389643    7.401398
  O      9.152816   -9.756470    7.777369
  H      8.957298  -10.307832    8.542634
  H      7.450292   -8.700106    8.069318
  H      7.654278   -8.999541    6.338729
  H      7.305150  -10.304182    7.327361

 Multiplicity           Mult            ....    1
 Number of Electrons    NEL             ....   18
 Basis Dimension        Dim             ....  172

ORBITAL ENERGIES
----------------

  NO   OCC          E(Eh)            E(eV)
   0   2.0000     -19.231872      -523.3259
   1   2.0000     -10.309200      -280.5276
   2   2.0000      -1.146618       -31.2010
   3   2.0000      -0.793231       -21.5849
   4   2.0000      -0.609068       -16.5736
   5   2.0000      -0.563121       -15.3233
   6   2.0000      -0.528148       -14.3716
   7   2.0000      -0.423859       -11.5338
   8   2.0000      -0.376903       -10.2560
   9   0.0000       0.084344         2.2951
  10   0.0000       0.115963         3.1555
  11   0.0000       0.153445         4.1755
  12   0.0000       0.168024         4.5722
  13   0.0000       0.189170         5.1476

MULLIKEN ATOMIC CHARGES
-----------------------
   0 C :   -0.000129
   1 O :    0.000309
   2 H :    0.000141
   3 H :   -0.000037
   4 H :   -0.000076
   5 H :   -0.000012
   6 C :   -0.186543
   7 O :   -0.461381
   8 H :    0.318976
   9 H :    0.113038
  10 H :    0.110711
  11 H :    0.105002
Sum of atomic charges:    0.0000000

LOEWDIN ATOMIC CHARGES
----------------------
   0 C :   -0.000953
   1 O :   -0.001417
   2 H :   -0.000886
   3 H :   -0.000015
   4 H :   -0.000275
   5 H :   -0.000009
   6 C :   -0.406185
   7 O :   -0.067049
   8 H :    0.179624
   9 H :    0.083616
  10 H :    0.119318
  11 H :    0.094229

  Mayer bond orders larger than 0.1
B(  6-C ,  7-O ) :   0.9928 B(  6-C ,  9-H ) :   0.9763 B(  6-C , 10-H ) :   0.9679
B(  6-C , 11-H ) :   0.9941 B(  7-O ,  8-H ) :   0.8990

Dispersion correction           -0.000211994
FINAL SINGLE POINT ENERGY      -115.723213562996

DIPOLE MOMENT
-------------
                                X             Y             Z
Electronic contribution:      1.83528      -0.28699       0.47435
Nuclear contribution   :     -2.46767       0.06736      -0.15052
                        -----------------------------------------
Total Dipole Moment    :     -0.63240      -0.21963       0.32382
                        -----------------------------------------
Magnitude (a.u.)       :      0.74366
Magnitude (Debye)      :      1.89022

Rotational constants in cm-1:     4.410649     0.844762     0.821306
Rotational constants in MHz : 132227.942056 25325.314834 24622.128749

                             ****ORCA TERMINATED NORMALLY****
TOTAL RUN TIME: 0 days 0 hours 1 minutes 27 seconds 271 msec
