                         Program Version 4.1.2  - RELEASE  -
|  1> #Run DFT-D3 single point of the dimer
|  2> ! wB97X-D3 def2-TZVP TIGHTSCF CHELPG PMODEL PAL8
|  3>
|  4> %base "13-62_DFT_AB"
|  5>
|  6> %scf
|  7> MaxIter 1000
|  8> end
|  9>
| 10> * xyz 0 1
| 11>   C                      6.579677             -4.656054            2.098122
| 12>   O                      6.418017             -5.253259            3.379541
| 13>   H                      5.507121             -5.599913            3.333520
| 14>   H                      5.924402             -3.782596            1.864666
| 15>   H                      7.523478             -4.087973            1.999012
| 16>   H                      6.439044             -5.427651            1.315982
| 17>   C                      5.160119             -4.518508            -1.480591
| 18>   O                      6.307349             -3.679778            -1.437952
| 19>   H                      6.918061             -4.117089            -2.025001
| 20>   H                      4.300942             -3.910907            -1.216338
| 21>   H                      4.971459             -5.059759            -2.422785
| 22>   H                      5.262418             -5.328838            -0.725788
| 23> *
| 24>
| 25> #Run DFT-D3 single point of the molecule with dimer basis set
| 26> $new_job
| 27> %base "13-62_DFT_A"
| 28> ! wB97X-D3 def2-TZVP TIGHTSCF CHELPG PMODEL
| 29>
| 30> %scf
| 31> MaxIter 1000
| 32> end
| 33>
| 34> * xyz 0 1
| 35>   C                      6.579677             -4.656054            2.098122
| 36>   O                      6.418017             -5.253259            3.379541
| 37>   H                      5.507121             -5.599913            3.333520
| 38>   H                      5.924402             -3.782596            1.864666
| 39>   H                      7.523478             -4.087973            1.999012
| 40>   H                      6.439044             -5.427651            1.315982
| 41>   C                    : 5.160119             -4.518508            -1.480591
| 42>   O                    : 6.307349             -3.679778            -1.437952
| 43>   H                    : 6.918061             -4.117089            -2.025001
| 44>   H                    : 4.300942             -3.910907            -1.216338
| 45>   H                    : 4.971459             -5.059759            -2.422785
| 46>   H                    : 5.262418             -5.328838            -0.725788
| 47> *
| 48>
| 49> #Run DFT-D3 single point of the particle with dimer basis set
| 50> $new_job
| 51> %base "13-62_DFT_B"
| 52> ! wB97X-D3 def2-TZVP TIGHTSCF CHELPG PMODEL
| 53>
| 54> %scf
| 55> MaxIter 1000
| 56> end
| 57>
| 58> * xyz 0 1
| 59>   C                    : 6.579677             -4.656054            2.098122
| 60>   O                    : 6.418017             -5.253259            3.379541
| 61>   H                    : 5.507121             -5.599913            3.333520
| 62>   H                    : 5.924402             -3.782596            1.864666
| 63>   H                    : 7.523478             -4.087973            1.999012
| 64>   H                    : 6.439044             -5.427651            1.315982
| 65>   C                      5.160119             -4.518508            -1.480591
| 66>   O                      6.307349             -3.679778            -1.437952
| 67>   H                      6.918061             -4.117089            -2.025001
| 68>   H                      4.300942             -3.910907            -1.216338
| 69>   H                      4.971459             -5.059759            -2.422785
| 70>   H                      5.262418             -5.328838            -0.725788
| 71> *
| 72>
| 73>                          ****END OF INPUT****
 Total Charge           Charge          ....    0
 Multiplicity           Mult            ....    1
 Number of Electrons    NEL             ....   36
Dispersion correction           -0.001728851
FINAL SINGLE POINT ENERGY      -231.466176069178
Dispersion correction           -0.000250269
FINAL SINGLE POINT ENERGY      -115.729887470923

CARTESIAN COORDINATES (ANGSTROEM)
---------------------------------
  C      6.579677   -4.656054    2.098122
  O      6.418017   -5.253259    3.379541
  H      5.507121   -5.599913    3.333520
  H      5.924402   -3.782596    1.864666
  H      7.523478   -4.087973    1.999012
  H      6.439044   -5.427651    1.315982
  C      5.160119   -4.518508   -1.480591
  O      6.307349   -3.679778   -1.437952
  H      6.918061   -4.117089   -2.025001
  H      4.300942   -3.910907   -1.216338
  H      4.971459   -5.059759   -2.422785
  H      5.262418   -5.328838   -0.725788

 Multiplicity           Mult            ....    1
 Number of Electrons    NEL             ....   18
 Basis Dimension        Dim             ....  172

ORBITAL ENERGIES
----------------

  NO   OCC          E(Eh)            E(eV)
   0   2.0000     -19.232987      -523.3562
   1   2.0000     -10.315399      -280.6963
   2   2.0000      -1.139695       -31.0127
   3   2.0000      -0.793547       -21.5935
   4   2.0000      -0.614035       -16.7087
   5   2.0000      -0.535448       -14.5703
   6   2.0000      -0.522630       -14.2215
   7   2.0000      -0.446997       -12.1634
   8   2.0000      -0.372826       -10.1451
   9   0.0000       0.090319         2.4577
  10   0.0000       0.122278         3.3274
  11   0.0000       0.153761         4.1840
  12   0.0000       0.177583         4.8323
  13   0.0000       0.188280         5.1234

MULLIKEN ATOMIC CHARGES
-----------------------
   0 C :    0.001649
   1 O :    0.000009
   2 H :    0.000001
   3 H :   -0.001205
   4 H :   -0.001077
   5 H :    0.001033
   6 C :   -0.180916
   7 O :   -0.463226
   8 H :    0.311743
   9 H :    0.122925
  10 H :    0.112646
  11 H :    0.096419
Sum of atomic charges:    0.0000000

LOEWDIN ATOMIC CHARGES
----------------------
   0 C :   -0.005515
   1 O :   -0.000029
   2 H :   -0.000010
   3 H :   -0.000868
   4 H :   -0.000536
   5 H :   -0.003735
   6 C :   -0.385272
   7 O :   -0.072669
   8 H :    0.166158
   9 H :    0.106192
  10 H :    0.097478
  11 H :    0.098806

  Mayer bond orders larger than 0.1
B(  6-C ,  7-O ) :   0.9987 B(  6-C ,  9-H ) :   0.9787 B(  6-C , 10-H ) :   0.9724
B(  6-C , 11-H ) :   0.9753 B(  7-O ,  8-H ) :   0.9047

Dispersion correction           -0.000241773
FINAL SINGLE POINT ENERGY      -115.734719817584

DIPOLE MOMENT
-------------
                                X             Y             Z
Electronic contribution:      1.41241       1.25213       0.05879
Nuclear contribution   :     -1.47527      -1.84616      -0.46281
                        -----------------------------------------
Total Dipole Moment    :     -0.06286      -0.59404      -0.40402
                        -----------------------------------------
Magnitude (a.u.)       :      0.72115
Magnitude (Debye)      :      1.83302

Rotational constants in cm-1:     4.248242     0.828751     0.794189
Rotational constants in MHz : 127359.079017 24845.333912 23809.194847

                             ****ORCA TERMINATED NORMALLY****
TOTAL RUN TIME: 0 days 0 hours 1 minutes 11 seconds 590 msec
