                         Program Version 4.1.2  - RELEASE  -
|  1> #Run DFT-D3 single point of the dimer
|  2> ! wB97X-D3 def2-TZVP TIGHTSCF CHELPG PMODEL PAL8
|  3>
|  4> %base "6-88_DFT_AB"
|  5>
|  6> %scf
|  7> MaxIter 1000
|  8> end
|  9>
| 10> * xyz 0 1
| 11>   C                      6.664978             3.067073             1.226311
| 12>   O                      8.059023             2.989451             1.564592
| 13>   H                      8.160365             2.945944             2.478638
| 14>   H                      6.091341             2.145018             1.217380
| 15>   H                      6.072127             3.731938             1.852075
| 16>   H                      6.459341             3.559162             0.310594
| 17>   C                      3.504074             3.083173             -2.831861
| 18>   O                      3.784711             1.868062             -3.447040
| 19>   H                      3.080860             1.253483             -3.553574
| 20>   H                      3.183347             3.778387             -3.555988
| 21>   H                      2.754322             2.961550             -2.060546
| 22>   H                      4.439116             3.440261             -2.383345
| 23> *
| 24>
| 25> #Run DFT-D3 single point of the molecule with dimer basis set
| 26> $new_job
| 27> %base "6-88_DFT_A"
| 28> ! wB97X-D3 def2-TZVP TIGHTSCF CHELPG PMODEL
| 29>
| 30> %scf
| 31> MaxIter 1000
| 32> end
| 33>
| 34> * xyz 0 1
| 35>   C                      6.664978             3.067073             1.226311
| 36>   O                      8.059023             2.989451             1.564592
| 37>   H                      8.160365             2.945944             2.478638
| 38>   H                      6.091341             2.145018             1.217380
| 39>   H                      6.072127             3.731938             1.852075
| 40>   H                      6.459341             3.559162             0.310594
| 41>   C                    : 3.504074             3.083173             -2.831861
| 42>   O                    : 3.784711             1.868062             -3.447040
| 43>   H                    : 3.080860             1.253483             -3.553574
| 44>   H                    : 3.183347             3.778387             -3.555988
| 45>   H                    : 2.754322             2.961550             -2.060546
| 46>   H                    : 4.439116             3.440261             -2.383345
| 47> *
| 48>
| 49> #Run DFT-D3 single point of the particle with dimer basis set
| 50> $new_job
| 51> %base "6-88_DFT_B"
| 52> ! wB97X-D3 def2-TZVP TIGHTSCF CHELPG PMODEL
| 53>
| 54> %scf
| 55> MaxIter 1000
| 56> end
| 57>
| 58> * xyz 0 1
| 59>   C                    : 6.664978             3.067073             1.226311
| 60>   O                    : 8.059023             2.989451             1.564592
| 61>   H                    : 8.160365             2.945944             2.478638
| 62>   H                    : 6.091341             2.145018             1.217380
| 63>   H                    : 6.072127             3.731938             1.852075
| 64>   H                    : 6.459341             3.559162             0.310594
| 65>   C                      3.504074             3.083173             -2.831861
| 66>   O                      3.784711             1.868062             -3.447040
| 67>   H                      3.080860             1.253483             -3.553574
| 68>   H                      3.183347             3.778387             -3.555988
| 69>   H                      2.754322             2.961550             -2.060546
| 70>   H                      4.439116             3.440261             -2.383345
| 71> *
| 72>
| 73>                          ****END OF INPUT****
 Total Charge           Charge          ....    0
 Multiplicity           Mult            ....    1
 Number of Electrons    NEL             ....   36
Dispersion correction           -0.000803121
FINAL SINGLE POINT ENERGY      -231.460862063527
Dispersion correction           -0.000278732
FINAL SINGLE POINT ENERGY      -115.727799149052

CARTESIAN COORDINATES (ANGSTROEM)
---------------------------------
  C      6.664978    3.067073    1.226311
  O      8.059023    2.989451    1.564592
  H      8.160365    2.945944    2.478638
  H      6.091341    2.145018    1.217380
  H      6.072127    3.731938    1.852075
  H      6.459341    3.559162    0.310594
  C      3.504074    3.083173   -2.831861
  O      3.784711    1.868062   -3.447040
  H      3.080860    1.253483   -3.553574
  H      3.183347    3.778387   -3.555988
  H      2.754322    2.961550   -2.060546
  H      4.439116    3.440261   -2.383345

 Multiplicity           Mult            ....    1
 Number of Electrons    NEL             ....   18
 Basis Dimension        Dim             ....  172

ORBITAL ENERGIES
----------------

  NO   OCC          E(Eh)            E(eV)
   0   2.0000     -19.219570      -522.9911
   1   2.0000     -10.306056      -280.4420
   2   2.0000      -1.138255       -30.9735
   3   2.0000      -0.803331       -21.8597
   4   2.0000      -0.617186       -16.7945
   5   2.0000      -0.549871       -14.9627
   6   2.0000      -0.531732       -14.4692
   7   2.0000      -0.419638       -11.4189
   8   2.0000      -0.370264       -10.0754
   9   0.0000       0.086119         2.3434
  10   0.0000       0.119696         3.2571
  11   0.0000       0.146549         3.9878
  12   0.0000       0.176242         4.7958
  13   0.0000       0.190792         5.1917

MULLIKEN ATOMIC CHARGES
-----------------------
   0 C :    0.000001
   1 O :    0.000002
   2 H :    0.000000
   3 H :    0.000007
   4 H :    0.000004
   5 H :   -0.000136
   6 C :   -0.129552
   7 O :   -0.497928
   8 H :    0.315807
   9 H :    0.103123
  10 H :    0.096254
  11 H :    0.112417
Sum of atomic charges:   -0.0000000

LOEWDIN ATOMIC CHARGES
----------------------
   0 C :   -0.000133
   1 O :   -0.000002
   2 H :   -0.000000
   3 H :   -0.000008
   4 H :   -0.000003
   5 H :   -0.000359
   6 C :   -0.384661
   7 O :   -0.057941
   8 H :    0.152925
   9 H :    0.087266
  10 H :    0.093144
  11 H :    0.109771

  Mayer bond orders larger than 0.1
B(  6-C ,  7-O ) :   0.9935 B(  6-C ,  9-H ) :   0.9779 B(  6-C , 10-H ) :   0.9845
B(  6-C , 11-H ) :   0.9740 B(  7-O ,  8-H ) :   0.8963

Dispersion correction           -0.000235868
FINAL SINGLE POINT ENERGY      -115.732969314918

DIPOLE MOMENT
-------------
                                X             Y             Z
Electronic contribution:      0.38490      -1.44782      -0.77562
Nuclear contribution   :     -0.98167       1.53097       0.96290
                        -----------------------------------------
Total Dipole Moment    :     -0.59677       0.08315       0.18729
                        -----------------------------------------
Magnitude (a.u.)       :      0.63098
Magnitude (Debye)      :      1.60381

Rotational constants in cm-1:     4.492001     0.853657     0.825211
Rotational constants in MHz : 134666.813090 25592.004420 24739.199118

                             ****ORCA TERMINATED NORMALLY****
TOTAL RUN TIME: 0 days 0 hours 1 minutes 4 seconds 334 msec
