                         Program Version 4.1.2  - RELEASE  -
|  1> #Run DFT-D3 single point of the dimer
|  2> ! wB97X-D3 def2-TZVP TIGHTSCF CHELPG PMODEL PAL8
|  3>
|  4> %base "20-195_DFT_AB"
|  5>
|  6> %scf
|  7> MaxIter 1000
|  8> end
|  9>
| 10> * xyz 0 1
| 11>   C                      -0.964929            1.765584             8.833861
| 12>   O                      -1.717708            2.772433             9.460546
| 13>   H                      -1.454043            3.673651             9.111161
| 14>   H                      -1.455333            0.796565             9.025648
| 15>   H                      -1.064649            1.866882             7.749070
| 16>   H                      0.069803             1.756085             9.207566
| 17>   C                      -1.848234            6.513734             9.012824
| 18>   O                      -0.708035            5.646262             9.112648
| 19>   H                      -0.282645            5.869293             9.942857
| 20>   H                      -2.623279            6.228417             8.297152
| 21>   H                      -2.358376            6.553106             10.032803
| 22>   H                      -1.550898            7.542060             8.799035
| 23> *
| 24>
| 25> #Run DFT-D3 single point of the molecule with dimer basis set
| 26> $new_job
| 27> %base "20-195_DFT_A"
| 28> ! wB97X-D3 def2-TZVP TIGHTSCF CHELPG PMODEL
| 29>
| 30> %scf
| 31> MaxIter 1000
| 32> end
| 33>
| 34> * xyz 0 1
| 35>   C                      -0.964929            1.765584             8.833861
| 36>   O                      -1.717708            2.772433             9.460546
| 37>   H                      -1.454043            3.673651             9.111161
| 38>   H                      -1.455333            0.796565             9.025648
| 39>   H                      -1.064649            1.866882             7.749070
| 40>   H                      0.069803             1.756085             9.207566
| 41>   C                    : -1.848234            6.513734             9.012824
| 42>   O                    : -0.708035            5.646262             9.112648
| 43>   H                    : -0.282645            5.869293             9.942857
| 44>   H                    : -2.623279            6.228417             8.297152
| 45>   H                    : -2.358376            6.553106             10.032803
| 46>   H                    : -1.550898            7.542060             8.799035
| 47> *
| 48>
| 49> #Run DFT-D3 single point of the particle with dimer basis set
| 50> $new_job
| 51> %base "20-195_DFT_B"
| 52> ! wB97X-D3 def2-TZVP TIGHTSCF CHELPG PMODEL
| 53>
| 54> %scf
| 55> MaxIter 1000
| 56> end
| 57>
| 58> * xyz 0 1
| 59>   C                    : -0.964929            1.765584             8.833861
| 60>   O                    : -1.717708            2.772433             9.460546
| 61>   H                    : -1.454043            3.673651             9.111161
| 62>   H                    : -1.455333            0.796565             9.025648
| 63>   H                    : -1.064649            1.866882             7.749070
| 64>   H                    : 0.069803             1.756085             9.207566
| 65>   C                      -1.848234            6.513734             9.012824
| 66>   O                      -0.708035            5.646262             9.112648
| 67>   H                      -0.282645            5.869293             9.942857
| 68>   H                      -2.623279            6.228417             8.297152
| 69>   H                      -2.358376            6.553106             10.032803
| 70>   H                      -1.550898            7.542060             8.799035
| 71> *
| 72>
| 73>                          ****END OF INPUT****
 Total Charge           Charge          ....    0
 Multiplicity           Mult            ....    1
 Number of Electrons    NEL             ....   36
Dispersion correction           -0.001556275
FINAL SINGLE POINT ENERGY      -231.475087162839
Dispersion correction           -0.000240615
FINAL SINGLE POINT ENERGY      -115.733905685609

CARTESIAN COORDINATES (ANGSTROEM)
---------------------------------
  C     -0.964929    1.765584    8.833861
  O     -1.717708    2.772433    9.460546
  H     -1.454043    3.673651    9.111161
  H     -1.455333    0.796565    9.025648
  H     -1.064649    1.866882    7.749070
  H      0.069803    1.756085    9.207566
  C     -1.848234    6.513734    9.012824
  O     -0.708035    5.646262    9.112648
  H     -0.282645    5.869293    9.942857
  H     -2.623279    6.228417    8.297152
  H     -2.358376    6.553106   10.032803
  H     -1.550898    7.542060    8.799035

 Multiplicity           Mult            ....    1
 Number of Electrons    NEL             ....   18
 Basis Dimension        Dim             ....  172

ORBITAL ENERGIES
----------------

  NO   OCC          E(Eh)            E(eV)
   0   2.0000     -19.232820      -523.3516
   1   2.0000     -10.321060      -280.8503
   2   2.0000      -1.132535       -30.8179
   3   2.0000      -0.793733       -21.5986
   4   2.0000      -0.606143       -16.4940
   5   2.0000      -0.536886       -14.6094
   6   2.0000      -0.530241       -14.4286
   7   2.0000      -0.434806       -11.8317
   8   2.0000      -0.374106       -10.1799
   9   0.0000       0.097258         2.6465
  10   0.0000       0.119328         3.2471
  11   0.0000       0.149037         4.0555
  12   0.0000       0.190082         5.1724
  13   0.0000       0.199379         5.4254

MULLIKEN ATOMIC CHARGES
-----------------------
   0 C :   -0.000413
   1 O :   -0.002809
   2 H :   -0.002818
   3 H :   -0.000070
   4 H :   -0.000207
   5 H :   -0.000323
   6 C :   -0.186635
   7 O :   -0.470828
   8 H :    0.318174
   9 H :    0.132951
  10 H :    0.102664
  11 H :    0.110312
Sum of atomic charges:    0.0000000

LOEWDIN ATOMIC CHARGES
----------------------
   0 C :   -0.001389
   1 O :   -0.003847
   2 H :   -0.030430
   3 H :   -0.000024
   4 H :   -0.000057
   5 H :   -0.000125
   6 C :   -0.375590
   7 O :   -0.065204
   8 H :    0.169911
   9 H :    0.108241
  10 H :    0.103827
  11 H :    0.094686

  Mayer bond orders larger than 0.1
B(  6-C ,  7-O ) :   0.9815 B(  6-C ,  9-H ) :   0.9719 B(  6-C , 10-H ) :   0.9851
B(  6-C , 11-H ) :   0.9678 B(  7-O ,  8-H ) :   0.8971

Dispersion correction           -0.000248367
FINAL SINGLE POINT ENERGY      -115.732827125867

DIPOLE MOMENT
-------------
                                X             Y             Z
Electronic contribution:      1.45585      -1.23009      -0.17768
Nuclear contribution   :     -1.65449       1.73209       0.65019
                        -----------------------------------------
Total Dipole Moment    :     -0.19864       0.50200       0.47251
                        -----------------------------------------
Magnitude (a.u.)       :      0.71745
Magnitude (Debye)      :      1.82360

Rotational constants in cm-1:     4.254125     0.805475     0.775750
Rotational constants in MHz : 127535.446619 24147.546261 23256.392055

                             ****ORCA TERMINATED NORMALLY****
TOTAL RUN TIME: 0 days 0 hours 1 minutes 8 seconds 13 msec
