                         Program Version 4.1.2  - RELEASE  -
|  1> #Run DFT-D3 single point of the dimer
|  2> ! wB97X-D3 def2-TZVP TIGHTSCF CHELPG PMODEL PAL8
|  3>
|  4> %base "18-47_DFT_AB"
|  5>
|  6> %scf
|  7> MaxIter 1000
|  8> end
|  9>
| 10> * xyz 0 1
| 11>   C                      -2.012563            4.665636             -1.975602
| 12>   O                      -2.587163            3.443356             -2.387225
| 13>   H                      -2.699769            2.832937             -1.683804
| 14>   H                      -1.104865            4.452574             -1.373677
| 15>   H                      -1.693675            5.183946             -2.882772
| 16>   H                      -2.766827            5.318061             -1.491630
| 17>   C                      -5.233125            4.057205             1.120172
| 18>   O                      -4.049725            4.015248             0.367915
| 19>   H                      -3.640704            4.844211             0.494158
| 20>   H                      -5.756371            5.064788             1.065926
| 21>   H                      -5.982062            3.392982             0.703762
| 22>   H                      -5.052303            3.785532             2.221070
| 23> *
| 24>
| 25> #Run DFT-D3 single point of the molecule with dimer basis set
| 26> $new_job
| 27> %base "18-47_DFT_A"
| 28> ! wB97X-D3 def2-TZVP TIGHTSCF CHELPG PMODEL
| 29>
| 30> %scf
| 31> MaxIter 1000
| 32> end
| 33>
| 34> * xyz 0 1
| 35>   C                      -2.012563            4.665636             -1.975602
| 36>   O                      -2.587163            3.443356             -2.387225
| 37>   H                      -2.699769            2.832937             -1.683804
| 38>   H                      -1.104865            4.452574             -1.373677
| 39>   H                      -1.693675            5.183946             -2.882772
| 40>   H                      -2.766827            5.318061             -1.491630
| 41>   C                    : -5.233125            4.057205             1.120172
| 42>   O                    : -4.049725            4.015248             0.367915
| 43>   H                    : -3.640704            4.844211             0.494158
| 44>   H                    : -5.756371            5.064788             1.065926
| 45>   H                    : -5.982062            3.392982             0.703762
| 46>   H                    : -5.052303            3.785532             2.221070
| 47> *
| 48>
| 49> #Run DFT-D3 single point of the particle with dimer basis set
| 50> $new_job
| 51> %base "18-47_DFT_B"
| 52> ! wB97X-D3 def2-TZVP TIGHTSCF CHELPG PMODEL
| 53>
| 54> %scf
| 55> MaxIter 1000
| 56> end
| 57>
| 58> * xyz 0 1
| 59>   C                    : -2.012563            4.665636             -1.975602
| 60>   O                    : -2.587163            3.443356             -2.387225
| 61>   H                    : -2.699769            2.832937             -1.683804
| 62>   H                    : -1.104865            4.452574             -1.373677
| 63>   H                    : -1.693675            5.183946             -2.882772
| 64>   H                    : -2.766827            5.318061             -1.491630
| 65>   C                      -5.233125            4.057205             1.120172
| 66>   O                      -4.049725            4.015248             0.367915
| 67>   H                      -3.640704            4.844211             0.494158
| 68>   H                      -5.756371            5.064788             1.065926
| 69>   H                      -5.982062            3.392982             0.703762
| 70>   H                      -5.052303            3.785532             2.221070
| 71> *
| 72>
| 73>                          ****END OF INPUT****
 Total Charge           Charge          ....    0
 Multiplicity           Mult            ....    1
 Number of Electrons    NEL             ....   36
Dispersion correction           -0.001822456
FINAL SINGLE POINT ENERGY      -231.470543920529
Dispersion correction           -0.000246454
FINAL SINGLE POINT ENERGY      -115.735298664046

CARTESIAN COORDINATES (ANGSTROEM)
---------------------------------
  C     -2.012563    4.665636   -1.975602
  O     -2.587163    3.443356   -2.387225
  H     -2.699769    2.832937   -1.683804
  H     -1.104865    4.452574   -1.373677
  H     -1.693675    5.183946   -2.882772
  H     -2.766827    5.318061   -1.491630
  C     -5.233125    4.057205    1.120172
  O     -4.049725    4.015248    0.367915
  H     -3.640704    4.844211    0.494158
  H     -5.756371    5.064788    1.065926
  H     -5.982062    3.392982    0.703762
  H     -5.052303    3.785532    2.221070

 Multiplicity           Mult            ....    1
 Number of Electrons    NEL             ....   18
 Basis Dimension        Dim             ....  172

ORBITAL ENERGIES
----------------

  NO   OCC          E(Eh)            E(eV)
   0   2.0000     -19.232881      -523.3533
   1   2.0000     -10.322325      -280.8847
   2   2.0000      -1.149482       -31.2790
   3   2.0000      -0.792328       -21.5603
   4   2.0000      -0.614837       -16.7306
   5   2.0000      -0.542421       -14.7600
   6   2.0000      -0.527819       -14.3627
   7   2.0000      -0.433514       -11.7965
   8   2.0000      -0.376706       -10.2507
   9   0.0000       0.092302         2.5117
  10   0.0000       0.127446         3.4680
  11   0.0000       0.158508         4.3132
  12   0.0000       0.175970         4.7884
  13   0.0000       0.194993         5.3060

MULLIKEN ATOMIC CHARGES
-----------------------
   0 C :    0.005180
   1 O :    0.001668
   2 H :   -0.004408
   3 H :   -0.000291
   4 H :   -0.000443
   5 H :   -0.013326
   6 C :   -0.184872
   7 O :   -0.446347
   8 H :    0.317020
   9 H :    0.101028
  10 H :    0.124033
  11 H :    0.100758
Sum of atomic charges:   -0.0000000

LOEWDIN ATOMIC CHARGES
----------------------
   0 C :   -0.010906
   1 O :   -0.002372
   2 H :   -0.006707
   3 H :   -0.000330
   4 H :   -0.000094
   5 H :   -0.007977
   6 C :   -0.404212
   7 O :   -0.034679
   8 H :    0.158435
   9 H :    0.101817
  10 H :    0.103711
  11 H :    0.103314

  Mayer bond orders larger than 0.1
B(  6-C ,  7-O ) :   1.0041 B(  6-C ,  9-H ) :   0.9757 B(  6-C , 10-H ) :   0.9742
B(  6-C , 11-H ) :   0.9697 B(  7-O ,  8-H ) :   0.8998

Dispersion correction           -0.000250893
FINAL SINGLE POINT ENERGY      -115.733241787877

DIPOLE MOMENT
-------------
                                X             Y             Z
Electronic contribution:      1.58554      -0.23959      -1.06746
Nuclear contribution   :     -1.79797       0.78214       1.40746
                        -----------------------------------------
Total Dipole Moment    :     -0.21243       0.54255       0.34000
                        -----------------------------------------
Magnitude (a.u.)       :      0.67461
Magnitude (Debye)      :      1.71471

Rotational constants in cm-1:     4.184561     0.829345     0.811186
Rotational constants in MHz : 125449.993681 24863.127791 24318.732944

                             ****ORCA TERMINATED NORMALLY****
TOTAL RUN TIME: 0 days 0 hours 1 minutes 0 seconds 573 msec
