                         Program Version 4.1.2  - RELEASE  -
|  1> #Run DFT-D3 single point of the dimer
|  2> ! wB97X-D3 def2-TZVP TIGHTSCF CHELPG PMODEL PAL8
|  3>
|  4> %base "18-13_DFT_AB"
|  5>
|  6> %scf
|  7> MaxIter 1000
|  8> end
|  9>
| 10> * xyz 0 1
| 11>   C                      1.789285             9.798423             -2.464702
| 12>   O                      2.889570             10.586637            -2.007297
| 13>   H                      2.798921             10.643839            -1.020595
| 14>   H                      1.306149             10.392855            -3.281718
| 15>   H                      2.071224             8.818361             -2.858965
| 16>   H                      0.975558             9.695420             -1.724452
| 17>   C                      1.563923             4.822854             -2.055716
| 18>   O                      1.026069             5.666654             -3.070397
| 19>   H                      1.205890             5.204161             -3.879448
| 20>   H                      1.124852             3.829493             -2.152610
| 21>   H                      2.630486             4.837886             -2.065390
| 22>   H                      1.210527             5.130865             -1.082344
| 23> *
| 24>
| 25> #Run DFT-D3 single point of the molecule with dimer basis set
| 26> $new_job
| 27> %base "18-13_DFT_A"
| 28> ! wB97X-D3 def2-TZVP TIGHTSCF CHELPG PMODEL
| 29>
| 30> %scf
| 31> MaxIter 1000
| 32> end
| 33>
| 34> * xyz 0 1
| 35>   C                      1.789285             9.798423             -2.464702
| 36>   O                      2.889570             10.586637            -2.007297
| 37>   H                      2.798921             10.643839            -1.020595
| 38>   H                      1.306149             10.392855            -3.281718
| 39>   H                      2.071224             8.818361             -2.858965
| 40>   H                      0.975558             9.695420             -1.724452
| 41>   C                    : 1.563923             4.822854             -2.055716
| 42>   O                    : 1.026069             5.666654             -3.070397
| 43>   H                    : 1.205890             5.204161             -3.879448
| 44>   H                    : 1.124852             3.829493             -2.152610
| 45>   H                    : 2.630486             4.837886             -2.065390
| 46>   H                    : 1.210527             5.130865             -1.082344
| 47> *
| 48>
| 49> #Run DFT-D3 single point of the particle with dimer basis set
| 50> $new_job
| 51> %base "18-13_DFT_B"
| 52> ! wB97X-D3 def2-TZVP TIGHTSCF CHELPG PMODEL
| 53>
| 54> %scf
| 55> MaxIter 1000
| 56> end
| 57>
| 58> * xyz 0 1
| 59>   C                    : 1.789285             9.798423             -2.464702
| 60>   O                    : 2.889570             10.586637            -2.007297
| 61>   H                    : 2.798921             10.643839            -1.020595
| 62>   H                    : 1.306149             10.392855            -3.281718
| 63>   H                    : 2.071224             8.818361             -2.858965
| 64>   H                    : 0.975558             9.695420             -1.724452
| 65>   C                      1.563923             4.822854             -2.055716
| 66>   O                      1.026069             5.666654             -3.070397
| 67>   H                      1.205890             5.204161             -3.879448
| 68>   H                      1.124852             3.829493             -2.152610
| 69>   H                      2.630486             4.837886             -2.065390
| 70>   H                      1.210527             5.130865             -1.082344
| 71> *
| 72>
| 73>                          ****END OF INPUT****
 Total Charge           Charge          ....    0
 Multiplicity           Mult            ....    1
 Number of Electrons    NEL             ....   36
Dispersion correction           -0.000948007
FINAL SINGLE POINT ENERGY      -231.468574287576
Dispersion correction           -0.000263189
FINAL SINGLE POINT ENERGY      -115.732603938628

CARTESIAN COORDINATES (ANGSTROEM)
---------------------------------
  C      1.789285    9.798423   -2.464702
  O      2.889570   10.586637   -2.007297
  H      2.798921   10.643839   -1.020595
  H      1.306149   10.392855   -3.281718
  H      2.071224    8.818361   -2.858965
  H      0.975558    9.695420   -1.724452
  C      1.563923    4.822854   -2.055716
  O      1.026069    5.666654   -3.070397
  H      1.205890    5.204161   -3.879448
  H      1.124852    3.829493   -2.152610
  H      2.630486    4.837886   -2.065390
  H      1.210527    5.130865   -1.082344

 Multiplicity           Mult            ....    1
 Number of Electrons    NEL             ....   18
 Basis Dimension        Dim             ....  172

ORBITAL ENERGIES
----------------

  NO   OCC          E(Eh)            E(eV)
   0   2.0000     -19.228536      -523.2351
   1   2.0000     -10.309420      -280.5336
   2   2.0000      -1.136735       -30.9321
   3   2.0000      -0.798813       -21.7368
   4   2.0000      -0.605544       -16.4777
   5   2.0000      -0.554695       -15.0940
   6   2.0000      -0.525411       -14.2972
   7   2.0000      -0.433177       -11.7874
   8   2.0000      -0.377097       -10.2613
   9   0.0000       0.095715         2.6045
  10   0.0000       0.118143         3.2148
  11   0.0000       0.156970         4.2714
  12   0.0000       0.176717         4.8087
  13   0.0000       0.197038         5.3617

MULLIKEN ATOMIC CHARGES
-----------------------
   0 C :    0.001729
   1 O :   -0.000026
   2 H :   -0.000006
   3 H :   -0.000112
   4 H :   -0.005211
   5 H :   -0.000102
   6 C :   -0.161272
   7 O :   -0.471184
   8 H :    0.311026
   9 H :    0.103079
  10 H :    0.109585
  11 H :    0.112494
Sum of atomic charges:    0.0000000

LOEWDIN ATOMIC CHARGES
----------------------
   0 C :   -0.000956
   1 O :   -0.000015
   2 H :   -0.000001
   3 H :   -0.000006
   4 H :   -0.002783
   5 H :   -0.000046
   6 C :   -0.371919
   7 O :   -0.079427
   8 H :    0.161824
   9 H :    0.097543
  10 H :    0.090498
  11 H :    0.105287

  Mayer bond orders larger than 0.1
B(  6-C ,  7-O ) :   0.9905 B(  6-C ,  9-H ) :   0.9806 B(  6-C , 10-H ) :   0.9758
B(  6-C , 11-H ) :   0.9761 B(  7-O ,  8-H ) :   0.9047

Dispersion correction           -0.000222537
FINAL SINGLE POINT ENERGY      -115.734748653479

DIPOLE MOMENT
-------------
                                X             Y             Z
Electronic contribution:     -0.62230       1.16728      -1.19111
Nuclear contribution   :      0.93504      -1.81173       1.10942
                        -----------------------------------------
Total Dipole Moment    :      0.31274      -0.64446      -0.08169
                        -----------------------------------------
Magnitude (a.u.)       :      0.72097
Magnitude (Debye)      :      1.83257

Rotational constants in cm-1:     4.351889     0.825814     0.805370
Rotational constants in MHz : 130466.349398 24757.290746 24144.376659

                             ****ORCA TERMINATED NORMALLY****
TOTAL RUN TIME: 0 days 0 hours 0 minutes 52 seconds 356 msec
