                         Program Version 4.1.2  - RELEASE  -
|  1> #Run DFT-D3 single point of the dimer
|  2> ! wB97X-D3 def2-TZVP TIGHTSCF CHELPG PMODEL PAL8
|  3>
|  4> %base "19-125_DFT_AB"
|  5>
|  6> %scf
|  7> MaxIter 1000
|  8> end
|  9>
| 10> * xyz 0 1
| 11>   C                      5.736915             6.096399             -5.489844
| 12>   O                      5.154897             4.938208             -6.015251
| 13>   H                      5.492586             4.122501             -5.681083
| 14>   H                      5.357355             6.307799             -4.486453
| 15>   H                      6.834772             6.055645             -5.421734
| 16>   H                      5.315370             6.965713             -6.146136
| 17>   C                      3.771082             -0.084111            -5.364219
| 18>   O                      2.789198             0.944553             -5.009210
| 19>   H                      2.732328             1.510619             -5.748746
| 20>   H                      4.269562             -0.378328            -4.423374
| 21>   H                      3.274497             -0.961496            -5.774441
| 22>   H                      4.520300             0.267564             -5.941169
| 23> *
| 24>
| 25> #Run DFT-D3 single point of the molecule with dimer basis set
| 26> $new_job
| 27> %base "19-125_DFT_A"
| 28> ! wB97X-D3 def2-TZVP TIGHTSCF CHELPG PMODEL
| 29>
| 30> %scf
| 31> MaxIter 1000
| 32> end
| 33>
| 34> * xyz 0 1
| 35>   C                      5.736915             6.096399             -5.489844
| 36>   O                      5.154897             4.938208             -6.015251
| 37>   H                      5.492586             4.122501             -5.681083
| 38>   H                      5.357355             6.307799             -4.486453
| 39>   H                      6.834772             6.055645             -5.421734
| 40>   H                      5.315370             6.965713             -6.146136
| 41>   C                    : 3.771082             -0.084111            -5.364219
| 42>   O                    : 2.789198             0.944553             -5.009210
| 43>   H                    : 2.732328             1.510619             -5.748746
| 44>   H                    : 4.269562             -0.378328            -4.423374
| 45>   H                    : 3.274497             -0.961496            -5.774441
| 46>   H                    : 4.520300             0.267564             -5.941169
| 47> *
| 48>
| 49> #Run DFT-D3 single point of the particle with dimer basis set
| 50> $new_job
| 51> %base "19-125_DFT_B"
| 52> ! wB97X-D3 def2-TZVP TIGHTSCF CHELPG PMODEL
| 53>
| 54> %scf
| 55> MaxIter 1000
| 56> end
| 57>
| 58> * xyz 0 1
| 59>   C                    : 5.736915             6.096399             -5.489844
| 60>   O                    : 5.154897             4.938208             -6.015251
| 61>   H                    : 5.492586             4.122501             -5.681083
| 62>   H                    : 5.357355             6.307799             -4.486453
| 63>   H                    : 6.834772             6.055645             -5.421734
| 64>   H                    : 5.315370             6.965713             -6.146136
| 65>   C                      3.771082             -0.084111            -5.364219
| 66>   O                      2.789198             0.944553             -5.009210
| 67>   H                      2.732328             1.510619             -5.748746
| 68>   H                      4.269562             -0.378328            -4.423374
| 69>   H                      3.274497             -0.961496            -5.774441
| 70>   H                      4.520300             0.267564             -5.941169
| 71> *
| 72>
| 73>                          ****END OF INPUT****
 Total Charge           Charge          ....    0
 Multiplicity           Mult            ....    1
 Number of Electrons    NEL             ....   36
Dispersion correction           -0.000748404
FINAL SINGLE POINT ENERGY      -231.460694438102
Dispersion correction           -0.000259027
FINAL SINGLE POINT ENERGY      -115.731281949037

CARTESIAN COORDINATES (ANGSTROEM)
---------------------------------
  C      5.736915    6.096399   -5.489844
  O      5.154897    4.938208   -6.015251
  H      5.492586    4.122501   -5.681083
  H      5.357355    6.307799   -4.486453
  H      6.834772    6.055645   -5.421734
  H      5.315370    6.965713   -6.146136
  C      3.771082   -0.084111   -5.364219
  O      2.789198    0.944553   -5.009210
  H      2.732328    1.510619   -5.748746
  H      4.269562   -0.378328   -4.423374
  H      3.274497   -0.961496   -5.774441
  H      4.520300    0.267564   -5.941169

 Multiplicity           Mult            ....    1
 Number of Electrons    NEL             ....   18
 Basis Dimension        Dim             ....  172

ORBITAL ENERGIES
----------------

  NO   OCC          E(Eh)            E(eV)
   0   2.0000     -19.226050      -523.1674
   1   2.0000     -10.308132      -280.4985
   2   2.0000      -1.126801       -30.6618
   3   2.0000      -0.805939       -21.9307
   4   2.0000      -0.608325       -16.5534
   5   2.0000      -0.546043       -14.8586
   6   2.0000      -0.515860       -14.0373
   7   2.0000      -0.441634       -12.0175
   8   2.0000      -0.377287       -10.2665
   9   0.0000       0.083268         2.2658
  10   0.0000       0.114480         3.1152
  11   0.0000       0.154680         4.2090
  12   0.0000       0.169381         4.6091
  13   0.0000       0.193900         5.2763

MULLIKEN ATOMIC CHARGES
-----------------------
   0 C :    0.000082
   1 O :    0.000038
   2 H :   -0.000621
   3 H :   -0.000012
   4 H :   -0.000004
   5 H :    0.000001
   6 C :   -0.176537
   7 O :   -0.476331
   8 H :    0.305238
   9 H :    0.114936
  10 H :    0.110539
  11 H :    0.122672
Sum of atomic charges:   -0.0000000

LOEWDIN ATOMIC CHARGES
----------------------
   0 C :   -0.000005
   1 O :   -0.000034
   2 H :   -0.000365
   3 H :   -0.000000
   4 H :   -0.000000
   5 H :   -0.000000
   6 C :   -0.334506
   7 O :   -0.098749
   8 H :    0.145060
   9 H :    0.112327
  10 H :    0.099152
  11 H :    0.077122

  Mayer bond orders larger than 0.1
B(  6-C ,  7-O ) :   0.9989 B(  6-C ,  9-H ) :   0.9782 B(  6-C , 10-H ) :   0.9767
B(  6-C , 11-H ) :   0.9757 B(  7-O ,  8-H ) :   0.9118

Dispersion correction           -0.000247342
FINAL SINGLE POINT ENERGY      -115.728795066979

DIPOLE MOMENT
-------------
                                X             Y             Z
Electronic contribution:     -1.18201       1.22243       0.38776
Nuclear contribution   :      1.59679      -1.28480      -1.01573
                        -----------------------------------------
Total Dipole Moment    :      0.41478      -0.06237      -0.62797
                        -----------------------------------------
Magnitude (a.u.)       :      0.75517
Magnitude (Debye)      :      1.91948

Rotational constants in cm-1:     4.459174     0.789595     0.770892
Rotational constants in MHz : 133682.664338 23671.452484 23110.758011

                             ****ORCA TERMINATED NORMALLY****
TOTAL RUN TIME: 0 days 0 hours 0 minutes 44 seconds 102 msec
