                         Program Version 4.1.2  - RELEASE  -
|  1> #Run DFT-D3 single point of the dimer
|  2> ! wB97X-D3 def2-TZVP TIGHTSCF CHELPG PMODEL PAL8
|  3>
|  4> %base "3-44_DFT_AB"
|  5>
|  6> %scf
|  7> MaxIter 1000
|  8> end
|  9>
| 10> * xyz 0 1
| 11>   C                      -3.289817            3.839313             -6.482746
| 12>   O                      -4.185576            4.250906             -7.462851
| 13>   H                      -4.707539            3.455339             -7.545012
| 14>   H                      -3.645948            3.191517             -5.758856
| 15>   H                      -2.405513            3.242529             -6.901142
| 16>   H                      -2.662676            4.632680             -6.020365
| 17>   C                      1.057545             3.862714             -3.473345
| 18>   O                      1.262792             2.751196             -2.626858
| 19>   H                      0.694783             2.763946             -1.872017
| 20>   H                      1.891357             4.555210             -3.318902
| 21>   H                      0.953360             3.598273             -4.529557
| 22>   H                      0.045968             4.336788             -3.240017
| 23> *
| 24>
| 25> #Run DFT-D3 single point of the molecule with dimer basis set
| 26> $new_job
| 27> %base "3-44_DFT_A"
| 28> ! wB97X-D3 def2-TZVP TIGHTSCF CHELPG PMODEL
| 29>
| 30> %scf
| 31> MaxIter 1000
| 32> end
| 33>
| 34> * xyz 0 1
| 35>   C                      -3.289817            3.839313             -6.482746
| 36>   O                      -4.185576            4.250906             -7.462851
| 37>   H                      -4.707539            3.455339             -7.545012
| 38>   H                      -3.645948            3.191517             -5.758856
| 39>   H                      -2.405513            3.242529             -6.901142
| 40>   H                      -2.662676            4.632680             -6.020365
| 41>   C                    : 1.057545             3.862714             -3.473345
| 42>   O                    : 1.262792             2.751196             -2.626858
| 43>   H                    : 0.694783             2.763946             -1.872017
| 44>   H                    : 1.891357             4.555210             -3.318902
| 45>   H                    : 0.953360             3.598273             -4.529557
| 46>   H                    : 0.045968             4.336788             -3.240017
| 47> *
| 48>
| 49> #Run DFT-D3 single point of the particle with dimer basis set
| 50> $new_job
| 51> %base "3-44_DFT_B"
| 52> ! wB97X-D3 def2-TZVP TIGHTSCF CHELPG PMODEL
| 53>
| 54> %scf
| 55> MaxIter 1000
| 56> end
| 57>
| 58> * xyz 0 1
| 59>   C                    : -3.289817            3.839313             -6.482746
| 60>   O                    : -4.185576            4.250906             -7.462851
| 61>   H                    : -4.707539            3.455339             -7.545012
| 62>   H                    : -3.645948            3.191517             -5.758856
| 63>   H                    : -2.405513            3.242529             -6.901142
| 64>   H                    : -2.662676            4.632680             -6.020365
| 65>   C                      1.057545             3.862714             -3.473345
| 66>   O                      1.262792             2.751196             -2.626858
| 67>   H                      0.694783             2.763946             -1.872017
| 68>   H                      1.891357             4.555210             -3.318902
| 69>   H                      0.953360             3.598273             -4.529557
| 70>   H                      0.045968             4.336788             -3.240017
| 71> *
| 72>
| 73>                          ****END OF INPUT****
 Total Charge           Charge          ....    0
 Multiplicity           Mult            ....    1
 Number of Electrons    NEL             ....   36
Dispersion correction           -0.000732116
FINAL SINGLE POINT ENERGY      -231.456212973334
Dispersion correction           -0.000235394
FINAL SINGLE POINT ENERGY      -115.723657026587

CARTESIAN COORDINATES (ANGSTROEM)
---------------------------------
  C     -3.289817    3.839313   -6.482746
  O     -4.185576    4.250906   -7.462851
  H     -4.707539    3.455339   -7.545012
  H     -3.645948    3.191517   -5.758856
  H     -2.405513    3.242529   -6.901142
  H     -2.662676    4.632680   -6.020365
  C      1.057545    3.862714   -3.473345
  O      1.262792    2.751196   -2.626858
  H      0.694783    2.763946   -1.872017
  H      1.891357    4.555210   -3.318902
  H      0.953360    3.598273   -4.529557
  H      0.045968    4.336788   -3.240017

 Multiplicity           Mult            ....    1
 Number of Electrons    NEL             ....   18
 Basis Dimension        Dim             ....  172

ORBITAL ENERGIES
----------------

  NO   OCC          E(Eh)            E(eV)
   0   2.0000     -19.225114      -523.1420
   1   2.0000     -10.318959      -280.7932
   2   2.0000      -1.136103       -30.9149
   3   2.0000      -0.794919       -21.6308
   4   2.0000      -0.610134       -16.6026
   5   2.0000      -0.546476       -14.8704
   6   2.0000      -0.526814       -14.3353
   7   2.0000      -0.420977       -11.4554
   8   2.0000      -0.374098       -10.1797
   9   0.0000       0.082157         2.2356
  10   0.0000       0.114194         3.1074
  11   0.0000       0.141122         3.8401
  12   0.0000       0.178305         4.8519
  13   0.0000       0.183894         5.0040

MULLIKEN ATOMIC CHARGES
-----------------------
   0 C :    0.000217
   1 O :   -0.000002
   2 H :   -0.000000
   3 H :   -0.000022
   4 H :   -0.000085
   5 H :   -0.000310
   6 C :   -0.163466
   7 O :   -0.481216
   8 H :    0.317943
   9 H :    0.112527
  10 H :    0.116941
  11 H :    0.097473
Sum of atomic charges:   -0.0000000

LOEWDIN ATOMIC CHARGES
----------------------
   0 C :   -0.000073
   1 O :   -0.000001
   2 H :   -0.000000
   3 H :   -0.000005
   4 H :   -0.000039
   5 H :   -0.000125
   6 C :   -0.387181
   7 O :   -0.075113
   8 H :    0.157930
   9 H :    0.098684
  10 H :    0.101819
  11 H :    0.104105

  Mayer bond orders larger than 0.1
B(  6-C ,  7-O ) :   1.0005 B(  6-C ,  9-H ) :   0.9757 B(  6-C , 10-H ) :   0.9683
B(  6-C , 11-H ) :   0.9866 B(  7-O ,  8-H ) :   0.8991

Dispersion correction           -0.000252912
FINAL SINGLE POINT ENERGY      -115.732323373999

DIPOLE MOMENT
-------------
                                X             Y             Z
Electronic contribution:      0.43658      -1.46885       0.96730
Nuclear contribution   :     -0.91151       1.91333      -0.81521
                        -----------------------------------------
Total Dipole Moment    :     -0.47493       0.44448       0.15209
                        -----------------------------------------
Magnitude (a.u.)       :      0.66802
Magnitude (Debye)      :      1.69797

Rotational constants in cm-1:     4.246714     0.825546     0.801452
Rotational constants in MHz : 127313.279588 24749.235020 24026.913898

                             ****ORCA TERMINATED NORMALLY****
TOTAL RUN TIME: 0 days 0 hours 6 minutes 17 seconds 507 msec
