                         Program Version 4.1.2  - RELEASE  -
|  1> #Run DFT-D3 single point of the dimer
|  2> ! wB97X-D3 def2-TZVP TIGHTSCF CHELPG PMODEL PAL8
|  3>
|  4> %base "12-199_DFT_AB"
|  5>
|  6> %scf
|  7> MaxIter 1000
|  8> end
|  9>
| 10> * xyz 0 1
| 11>   C                      -10.950893           -9.469904            -2.006202
| 12>   O                      -10.990471           -9.388457            -0.567786
| 13>   H                      -10.061460           -9.614233            -0.357043
| 14>   H                      -10.222261           -8.662454            -2.481418
| 15>   H                      -10.581003           -10.428392           -2.335062
| 16>   H                      -11.919247           -9.264990            -2.477511
| 17>   C                      -7.883500            -7.945834            0.809314
| 18>   O                      -8.193881            -9.057241            0.024582
| 19>   H                      -7.296062            -9.387903            -0.184469
| 20>   H                      -8.068939            -7.101845            0.156294
| 21>   H                      -8.598682            -7.878497            1.604359
| 22>   H                      -6.871748            -7.933282            1.248646
| 23> *
| 24>
| 25> #Run DFT-D3 single point of the molecule with dimer basis set
| 26> $new_job
| 27> %base "12-199_DFT_A"
| 28> ! wB97X-D3 def2-TZVP TIGHTSCF CHELPG PMODEL
| 29>
| 30> %scf
| 31> MaxIter 1000
| 32> end
| 33>
| 34> * xyz 0 1
| 35>   C                      -10.950893           -9.469904            -2.006202
| 36>   O                      -10.990471           -9.388457            -0.567786
| 37>   H                      -10.061460           -9.614233            -0.357043
| 38>   H                      -10.222261           -8.662454            -2.481418
| 39>   H                      -10.581003           -10.428392           -2.335062
| 40>   H                      -11.919247           -9.264990            -2.477511
| 41>   C                    : -7.883500            -7.945834            0.809314
| 42>   O                    : -8.193881            -9.057241            0.024582
| 43>   H                    : -7.296062            -9.387903            -0.184469
| 44>   H                    : -8.068939            -7.101845            0.156294
| 45>   H                    : -8.598682            -7.878497            1.604359
| 46>   H                    : -6.871748            -7.933282            1.248646
| 47> *
| 48>
| 49> #Run DFT-D3 single point of the particle with dimer basis set
| 50> $new_job
| 51> %base "12-199_DFT_B"
| 52> ! wB97X-D3 def2-TZVP TIGHTSCF CHELPG PMODEL
| 53>
| 54> %scf
| 55> MaxIter 1000
| 56> end
| 57>
| 58> * xyz 0 1
| 59>   C                    : -10.950893           -9.469904            -2.006202
| 60>   O                    : -10.990471           -9.388457            -0.567786
| 61>   H                    : -10.061460           -9.614233            -0.357043
| 62>   H                    : -10.222261           -8.662454            -2.481418
| 63>   H                    : -10.581003           -10.428392           -2.335062
| 64>   H                    : -11.919247           -9.264990            -2.477511
| 65>   C                      -7.883500            -7.945834            0.809314
| 66>   O                      -8.193881            -9.057241            0.024582
| 67>   H                      -7.296062            -9.387903            -0.184469
| 68>   H                      -8.068939            -7.101845            0.156294
| 69>   H                      -8.598682            -7.878497            1.604359
| 70>   H                      -6.871748            -7.933282            1.248646
| 71> *
| 72>
| 73>                          ****END OF INPUT****
 Total Charge           Charge          ....    0
 Multiplicity           Mult            ....    1
 Number of Electrons    NEL             ....   36
Dispersion correction           -0.001797555
FINAL SINGLE POINT ENERGY      -231.468370469454
Dispersion correction           -0.000251813
FINAL SINGLE POINT ENERGY      -115.730110745463

CARTESIAN COORDINATES (ANGSTROEM)
---------------------------------
  C    -10.950893   -9.469904   -2.006202
  O    -10.990471   -9.388457   -0.567786
  H    -10.061460   -9.614233   -0.357043
  H    -10.222261   -8.662454   -2.481418
  H    -10.581003  -10.428392   -2.335062
  H    -11.919247   -9.264990   -2.477511
  C     -7.883500   -7.945834    0.809314
  O     -8.193881   -9.057241    0.024582
  H     -7.296062   -9.387903   -0.184469
  H     -8.068939   -7.101845    0.156294
  H     -8.598682   -7.878497    1.604359
  H     -6.871748   -7.933282    1.248646

 Multiplicity           Mult            ....    1
 Number of Electrons    NEL             ....   18
 Basis Dimension        Dim             ....  172

ORBITAL ENERGIES
----------------

  NO   OCC          E(Eh)            E(eV)
   0   2.0000     -19.231979      -523.3288
   1   2.0000     -10.307736      -280.4878
   2   2.0000      -1.143678       -31.1211
   3   2.0000      -0.790860       -21.5204
   4   2.0000      -0.612899       -16.6778
   5   2.0000      -0.547159       -14.8890
   6   2.0000      -0.525350       -14.2955
   7   2.0000      -0.444008       -12.0821
   8   2.0000      -0.368736       -10.0338
   9   0.0000       0.097569         2.6550
  10   0.0000       0.122617         3.3366
  11   0.0000       0.157921         4.2973
  12   0.0000       0.184311         5.0153
  13   0.0000       0.190629         5.1873

MULLIKEN ATOMIC CHARGES
-----------------------
   0 C :    0.003346
   1 O :    0.000804
   2 H :   -0.010701
   3 H :   -0.003571
   4 H :   -0.000933
   5 H :   -0.000239
   6 C :   -0.167282
   7 O :   -0.453772
   8 H :    0.312732
   9 H :    0.103743
  10 H :    0.110557
  11 H :    0.105316
Sum of atomic charges:    0.0000000

LOEWDIN ATOMIC CHARGES
----------------------
   0 C :   -0.005169
   1 O :   -0.004185
   2 H :   -0.035175
   3 H :   -0.001622
   4 H :   -0.000240
   5 H :   -0.000061
   6 C :   -0.399888
   7 O :   -0.035719
   8 H :    0.185558
   9 H :    0.097713
  10 H :    0.098626
  11 H :    0.100163

  Mayer bond orders larger than 0.1
B(  6-C ,  7-O ) :   0.9916 B(  6-C ,  9-H ) :   0.9843 B(  6-C , 10-H ) :   0.9802
B(  6-C , 11-H ) :   0.9740 B(  7-O ,  8-H ) :   0.9003

Dispersion correction           -0.000214862
FINAL SINGLE POINT ENERGY      -115.730505421752

DIPOLE MOMENT
-------------
                                X             Y             Z
Electronic contribution:     -0.47166      -1.44297      -0.94499
Nuclear contribution   :      1.15187       1.64956       1.12655
                        -----------------------------------------
Total Dipole Moment    :      0.68021       0.20659       0.18156
                        -----------------------------------------
Magnitude (a.u.)       :      0.73371
Magnitude (Debye)      :      1.86495

Rotational constants in cm-1:     4.202528     0.868313     0.828316
Rotational constants in MHz : 125988.606903 26031.377657 24832.297426

                             ****ORCA TERMINATED NORMALLY****
TOTAL RUN TIME: 0 days 0 hours 1 minutes 8 seconds 326 msec
