                         Program Version 4.1.2  - RELEASE  -
|  1> #Run DFT-D3 single point of the dimer
|  2> ! wB97X-D3 def2-TZVP TIGHTSCF CHELPG PMODEL PAL8
|  3>
|  4> %base "3-143_DFT_AB"
|  5>
|  6> %scf
|  7> MaxIter 1000
|  8> end
|  9>
| 10> * xyz 0 1
| 11>   C                      -3.609709            -6.212238            11.084964
| 12>   O                      -4.364734            -5.445713            10.082139
| 13>   H                      -4.900436            -4.779414            10.518448
| 14>   H                      -3.996064            -6.014864            12.063790
| 15>   H                      -3.631724            -7.334633            10.985328
| 16>   H                      -2.523652            -5.863047            11.239573
| 17>   C                      1.126425             -7.979691            8.688435
| 18>   O                      0.167515             -7.011438            8.689688
| 19>   H                      -0.711181            -7.413790            8.442444
| 20>   H                      1.685178             -7.866956            9.647331
| 21>   H                      0.695395             -8.997913            8.613979
| 22>   H                      1.773083             -7.918611            7.867989
| 23> *
| 24>
| 25> #Run DFT-D3 single point of the molecule with dimer basis set
| 26> $new_job
| 27> %base "3-143_DFT_A"
| 28> ! wB97X-D3 def2-TZVP TIGHTSCF CHELPG PMODEL
| 29>
| 30> %scf
| 31> MaxIter 1000
| 32> end
| 33>
| 34> * xyz 0 1
| 35>   C                      -3.609709            -6.212238            11.084964
| 36>   O                      -4.364734            -5.445713            10.082139
| 37>   H                      -4.900436            -4.779414            10.518448
| 38>   H                      -3.996064            -6.014864            12.063790
| 39>   H                      -3.631724            -7.334633            10.985328
| 40>   H                      -2.523652            -5.863047            11.239573
| 41>   C                    : 1.126425             -7.979691            8.688435
| 42>   O                    : 0.167515             -7.011438            8.689688
| 43>   H                    : -0.711181            -7.413790            8.442444
| 44>   H                    : 1.685178             -7.866956            9.647331
| 45>   H                    : 0.695395             -8.997913            8.613979
| 46>   H                    : 1.773083             -7.918611            7.867989
| 47> *
| 48>
| 49> #Run DFT-D3 single point of the particle with dimer basis set
| 50> $new_job
| 51> %base "3-143_DFT_B"
| 52> ! wB97X-D3 def2-TZVP TIGHTSCF CHELPG PMODEL
| 53>
| 54> %scf
| 55> MaxIter 1000
| 56> end
| 57>
| 58> * xyz 0 1
| 59>   C                    : -3.609709            -6.212238            11.084964
| 60>   O                    : -4.364734            -5.445713            10.082139
| 61>   H                    : -4.900436            -4.779414            10.518448
| 62>   H                    : -3.996064            -6.014864            12.063790
| 63>   H                    : -3.631724            -7.334633            10.985328
| 64>   H                    : -2.523652            -5.863047            11.239573
| 65>   C                      1.126425             -7.979691            8.688435
| 66>   O                      0.167515             -7.011438            8.689688
| 67>   H                      -0.711181            -7.413790            8.442444
| 68>   H                      1.685178             -7.866956            9.647331
| 69>   H                      0.695395             -8.997913            8.613979
| 70>   H                      1.773083             -7.918611            7.867989
| 71> *
| 72>
| 73>                          ****END OF INPUT****
 Total Charge           Charge          ....    0
 Multiplicity           Mult            ....    1
 Number of Electrons    NEL             ....   36
Dispersion correction           -0.000868624
FINAL SINGLE POINT ENERGY      -231.456169144032
Dispersion correction           -0.000298218
FINAL SINGLE POINT ENERGY      -115.725820915622

CARTESIAN COORDINATES (ANGSTROEM)
---------------------------------
  C     -3.609709   -6.212238   11.084964
  O     -4.364734   -5.445713   10.082139
  H     -4.900436   -4.779414   10.518448
  H     -3.996064   -6.014864   12.063790
  H     -3.631724   -7.334633   10.985328
  H     -2.523652   -5.863047   11.239573
  C      1.126425   -7.979691    8.688435
  O      0.167515   -7.011438    8.689688
  H     -0.711181   -7.413790    8.442444
  H      1.685178   -7.866956    9.647331
  H      0.695395   -8.997913    8.613979
  H      1.773083   -7.918611    7.867989

 Multiplicity           Mult            ....    1
 Number of Electrons    NEL             ....   18
 Basis Dimension        Dim             ....  172

ORBITAL ENERGIES
----------------

  NO   OCC          E(Eh)            E(eV)
   0   2.0000     -19.231238      -523.3086
   1   2.0000     -10.305676      -280.4317
   2   2.0000      -1.145505       -31.1708
   3   2.0000      -0.790691       -21.5158
   4   2.0000      -0.619282       -16.8515
   5   2.0000      -0.549932       -14.9644
   6   2.0000      -0.529716       -14.4143
   7   2.0000      -0.425546       -11.5797
   8   2.0000      -0.369308       -10.0494
   9   0.0000       0.082474         2.2442
  10   0.0000       0.112221         3.0537
  11   0.0000       0.155734         4.2377
  12   0.0000       0.167828         4.5668
  13   0.0000       0.189931         5.1683

MULLIKEN ATOMIC CHARGES
-----------------------
   0 C :    0.000068
   1 O :    0.000016
   2 H :   -0.000003
   3 H :   -0.000134
   4 H :   -0.000039
   5 H :   -0.001479
   6 C :   -0.156406
   7 O :   -0.466100
   8 H :    0.323759
   9 H :    0.105299
  10 H :    0.092176
  11 H :    0.102842
Sum of atomic charges:    0.0000000

LOEWDIN ATOMIC CHARGES
----------------------
   0 C :   -0.000600
   1 O :   -0.000007
   2 H :   -0.000001
   3 H :   -0.000014
   4 H :   -0.000075
   5 H :   -0.000690
   6 C :   -0.425932
   7 O :   -0.056695
   8 H :    0.195578
   9 H :    0.107821
  10 H :    0.096791
  11 H :    0.083822

  Mayer bond orders larger than 0.1
B(  6-C ,  7-O ) :   1.0166 B(  6-C ,  9-H ) :   0.9791 B(  6-C , 10-H ) :   0.9890
B(  6-C , 11-H ) :   0.9716 B(  7-O ,  8-H ) :   0.8889

Dispersion correction           -0.000227882
FINAL SINGLE POINT ENERGY      -115.729637967536

DIPOLE MOMENT
-------------
                                X             Y             Z
Electronic contribution:     -1.14126       1.41201      -0.02984
Nuclear contribution   :      0.91820      -2.03540      -0.15151
                        -----------------------------------------
Total Dipole Moment    :     -0.22306      -0.62339      -0.18135
                        -----------------------------------------
Magnitude (a.u.)       :      0.68648
Magnitude (Debye)      :      1.74490

Rotational constants in cm-1:     4.252867     0.885946     0.845457
Rotational constants in MHz : 127497.747885 26560.003461 25346.157221

                             ****ORCA TERMINATED NORMALLY****
TOTAL RUN TIME: 0 days 0 hours 5 minutes 50 seconds 969 msec
