                         Program Version 4.1.2  - RELEASE  -
|  1> #Run DFT-D3 single point of the dimer
|  2> ! wB97X-D3 def2-TZVP TIGHTSCF CHELPG PMODEL PAL8
|  3>
|  4> %base "18-75_DFT_AB"
|  5>
|  6> %scf
|  7> MaxIter 1000
|  8> end
|  9>
| 10> * xyz 0 1
| 11>   C                      1.357016             -4.144993            -10.981236
| 12>   O                      0.027472             -4.230226            -11.449429
| 13>   H                      -0.609732            -4.116617            -10.744449
| 14>   H                      1.503885             -3.179850            -10.444601
| 15>   H                      1.556631             -4.875398            -10.229939
| 16>   H                      2.132881             -4.103547            -11.830028
| 17>   C                      -3.375293            -4.371187            -11.085779
| 18>   O                      -3.565899            -3.036521            -10.753621
| 19>   H                      -4.492599            -2.863608            -10.785166
| 20>   H                      -2.646114            -4.498764            -11.924313
| 21>   H                      -2.873743            -4.873393            -10.315072
| 22>   H                      -4.377217            -4.896034            -11.305137
| 23> *
| 24>
| 25> #Run DFT-D3 single point of the molecule with dimer basis set
| 26> $new_job
| 27> %base "18-75_DFT_A"
| 28> ! wB97X-D3 def2-TZVP TIGHTSCF CHELPG PMODEL
| 29>
| 30> %scf
| 31> MaxIter 1000
| 32> end
| 33>
| 34> * xyz 0 1
| 35>   C                      1.357016             -4.144993            -10.981236
| 36>   O                      0.027472             -4.230226            -11.449429
| 37>   H                      -0.609732            -4.116617            -10.744449
| 38>   H                      1.503885             -3.179850            -10.444601
| 39>   H                      1.556631             -4.875398            -10.229939
| 40>   H                      2.132881             -4.103547            -11.830028
| 41>   C                    : -3.375293            -4.371187            -11.085779
| 42>   O                    : -3.565899            -3.036521            -10.753621
| 43>   H                    : -4.492599            -2.863608            -10.785166
| 44>   H                    : -2.646114            -4.498764            -11.924313
| 45>   H                    : -2.873743            -4.873393            -10.315072
| 46>   H                    : -4.377217            -4.896034            -11.305137
| 47> *
| 48>
| 49> #Run DFT-D3 single point of the particle with dimer basis set
| 50> $new_job
| 51> %base "18-75_DFT_B"
| 52> ! wB97X-D3 def2-TZVP TIGHTSCF CHELPG PMODEL
| 53>
| 54> %scf
| 55> MaxIter 1000
| 56> end
| 57>
| 58> * xyz 0 1
| 59>   C                    : 1.357016             -4.144993            -10.981236
| 60>   O                    : 0.027472             -4.230226            -11.449429
| 61>   H                    : -0.609732            -4.116617            -10.744449
| 62>   H                    : 1.503885             -3.179850            -10.444601
| 63>   H                    : 1.556631             -4.875398            -10.229939
| 64>   H                    : 2.132881             -4.103547            -11.830028
| 65>   C                      -3.375293            -4.371187            -11.085779
| 66>   O                      -3.565899            -3.036521            -10.753621
| 67>   H                      -4.492599            -2.863608            -10.785166
| 68>   H                      -2.646114            -4.498764            -11.924313
| 69>   H                      -2.873743            -4.873393            -10.315072
| 70>   H                      -4.377217            -4.896034            -11.305137
| 71> *
| 72>
| 73>                          ****END OF INPUT****
 Total Charge           Charge          ....    0
 Multiplicity           Mult            ....    1
 Number of Electrons    NEL             ....   36
Dispersion correction           -0.001500962
FINAL SINGLE POINT ENERGY      -231.462202933150
Dispersion correction           -0.000247279
FINAL SINGLE POINT ENERGY      -115.731191033200

CARTESIAN COORDINATES (ANGSTROEM)
---------------------------------
  C      1.357016   -4.144993  -10.981236
  O      0.027472   -4.230226  -11.449429
  H     -0.609732   -4.116617  -10.744449
  H      1.503885   -3.179850  -10.444601
  H      1.556631   -4.875398  -10.229939
  H      2.132881   -4.103547  -11.830028
  C     -3.375293   -4.371187  -11.085779
  O     -3.565899   -3.036521  -10.753621
  H     -4.492599   -2.863608  -10.785166
  H     -2.646114   -4.498764  -11.924313
  H     -2.873743   -4.873393  -10.315072
  H     -4.377217   -4.896034  -11.305137

 Multiplicity           Mult            ....    1
 Number of Electrons    NEL             ....   18
 Basis Dimension        Dim             ....  172

ORBITAL ENERGIES
----------------

  NO   OCC          E(Eh)            E(eV)
   0   2.0000     -19.229066      -523.2495
   1   2.0000     -10.314626      -280.6752
   2   2.0000      -1.148405       -31.2497
   3   2.0000      -0.795427       -21.6447
   4   2.0000      -0.614951       -16.7337
   5   2.0000      -0.542427       -14.7602
   6   2.0000      -0.534162       -14.5353
   7   2.0000      -0.433441       -11.7945
   8   2.0000      -0.369524       -10.0553
   9   0.0000       0.089494         2.4353
  10   0.0000       0.114755         3.1227
  11   0.0000       0.151843         4.1319
  12   0.0000       0.182621         4.9694
  13   0.0000       0.189664         5.1610

MULLIKEN ATOMIC CHARGES
-----------------------
   0 C :   -0.000311
   1 O :    0.000264
   2 H :    0.002210
   3 H :    0.000010
   4 H :    0.000014
   5 H :   -0.000003
   6 C :   -0.176710
   7 O :   -0.460728
   8 H :    0.316842
   9 H :    0.098392
  10 H :    0.111843
  11 H :    0.108177
Sum of atomic charges:   -0.0000000

LOEWDIN ATOMIC CHARGES
----------------------
   0 C :   -0.000127
   1 O :   -0.002777
   2 H :   -0.004938
   3 H :   -0.000005
   4 H :   -0.000004
   5 H :   -0.000004
   6 C :   -0.405453
   7 O :   -0.049730
   8 H :    0.162136
   9 H :    0.104508
  10 H :    0.088932
  11 H :    0.107461

  Mayer bond orders larger than 0.1
B(  6-C ,  7-O ) :   1.0193 B(  6-C ,  9-H ) :   0.9756 B(  6-C , 10-H ) :   0.9796
B(  6-C , 11-H ) :   0.9832 B(  7-O ,  8-H ) :   0.9022

Dispersion correction           -0.000243485
FINAL SINGLE POINT ENERGY      -115.729700344965

DIPOLE MOMENT
-------------
                                X             Y             Z
Electronic contribution:     -0.15150       1.81218       0.49002
Nuclear contribution   :     -0.37252      -2.20169      -0.60892
                        -----------------------------------------
Total Dipole Moment    :     -0.52403      -0.38950      -0.11890
                        -----------------------------------------
Magnitude (a.u.)       :      0.66367
Magnitude (Debye)      :      1.68691

Rotational constants in cm-1:     4.268596     0.862084     0.813571
Rotational constants in MHz : 127969.301804 25844.626169 24390.230714

                             ****ORCA TERMINATED NORMALLY****
TOTAL RUN TIME: 0 days 0 hours 1 minutes 4 seconds 112 msec
