                         Program Version 4.1.2  - RELEASE  -
|  1> #Run DFT-D3 single point of the dimer
|  2> ! wB97X-D3 def2-TZVP TIGHTSCF CHELPG PMODEL PAL8
|  3>
|  4> %base "7-204_DFT_AB"
|  5>
|  6> %scf
|  7> MaxIter 1000
|  8> end
|  9>
| 10> * xyz 0 1
| 11>   C                      -0.939052            -8.127681            1.759857
| 12>   O                      -2.146726            -8.792579            1.430857
| 13>   H                      -1.913014            -9.269738            0.629961
| 14>   H                      -0.962725            -7.226038            2.449969
| 15>   H                      -0.312505            -8.902315            2.236363
| 16>   H                      -0.412223            -7.730860            0.825161
| 17>   C                      -5.076573            -6.879441            1.705663
| 18>   O                      -3.866430            -6.551945            2.291352
| 19>   H                      -3.217793            -7.265157            2.074985
| 20>   H                      -5.829489            -6.212226            1.964640
| 21>   H                      -5.003095            -6.860190            0.617543
| 22>   H                      -5.416746            -7.881705            2.055767
| 23> *
| 24>
| 25> #Run DFT-D3 single point of the molecule with dimer basis set
| 26> $new_job
| 27> %base "7-204_DFT_A"
| 28> ! wB97X-D3 def2-TZVP TIGHTSCF CHELPG PMODEL
| 29>
| 30> %scf
| 31> MaxIter 1000
| 32> end
| 33>
| 34> * xyz 0 1
| 35>   C                      -0.939052            -8.127681            1.759857
| 36>   O                      -2.146726            -8.792579            1.430857
| 37>   H                      -1.913014            -9.269738            0.629961
| 38>   H                      -0.962725            -7.226038            2.449969
| 39>   H                      -0.312505            -8.902315            2.236363
| 40>   H                      -0.412223            -7.730860            0.825161
| 41>   C                    : -5.076573            -6.879441            1.705663
| 42>   O                    : -3.866430            -6.551945            2.291352
| 43>   H                    : -3.217793            -7.265157            2.074985
| 44>   H                    : -5.829489            -6.212226            1.964640
| 45>   H                    : -5.003095            -6.860190            0.617543
| 46>   H                    : -5.416746            -7.881705            2.055767
| 47> *
| 48>
| 49> #Run DFT-D3 single point of the particle with dimer basis set
| 50> $new_job
| 51> %base "7-204_DFT_B"
| 52> ! wB97X-D3 def2-TZVP TIGHTSCF CHELPG PMODEL
| 53>
| 54> %scf
| 55> MaxIter 1000
| 56> end
| 57>
| 58> * xyz 0 1
| 59>   C                    : -0.939052            -8.127681            1.759857
| 60>   O                    : -2.146726            -8.792579            1.430857
| 61>   H                    : -1.913014            -9.269738            0.629961
| 62>   H                    : -0.962725            -7.226038            2.449969
| 63>   H                    : -0.312505            -8.902315            2.236363
| 64>   H                    : -0.412223            -7.730860            0.825161
| 65>   C                      -5.076573            -6.879441            1.705663
| 66>   O                      -3.866430            -6.551945            2.291352
| 67>   H                      -3.217793            -7.265157            2.074985
| 68>   H                      -5.829489            -6.212226            1.964640
| 69>   H                      -5.003095            -6.860190            0.617543
| 70>   H                      -5.416746            -7.881705            2.055767
| 71> *
| 72>
| 73>                          ****END OF INPUT****
 Total Charge           Charge          ....    0
 Multiplicity           Mult            ....    1
 Number of Electrons    NEL             ....   36
Dispersion correction           -0.001786962
FINAL SINGLE POINT ENERGY      -231.469141279198
Dispersion correction           -0.000240173
FINAL SINGLE POINT ENERGY      -115.728357853091

CARTESIAN COORDINATES (ANGSTROEM)
---------------------------------
  C     -0.939052   -8.127681    1.759857
  O     -2.146726   -8.792579    1.430857
  H     -1.913014   -9.269738    0.629961
  H     -0.962725   -7.226038    2.449969
  H     -0.312505   -8.902315    2.236363
  H     -0.412223   -7.730860    0.825161
  C     -5.076573   -6.879441    1.705663
  O     -3.866430   -6.551945    2.291352
  H     -3.217793   -7.265157    2.074985
  H     -5.829489   -6.212226    1.964640
  H     -5.003095   -6.860190    0.617543
  H     -5.416746   -7.881705    2.055767

 Multiplicity           Mult            ....    1
 Number of Electrons    NEL             ....   18
 Basis Dimension        Dim             ....  172

ORBITAL ENERGIES
----------------

  NO   OCC          E(Eh)            E(eV)
   0   2.0000     -19.232146      -523.3333
   1   2.0000     -10.306111      -280.4435
   2   2.0000      -1.140769       -31.0419
   3   2.0000      -0.795816       -21.6553
   4   2.0000      -0.610432       -16.6107
   5   2.0000      -0.546567       -14.8729
   6   2.0000      -0.538667       -14.6579
   7   2.0000      -0.429637       -11.6910
   8   2.0000      -0.371104       -10.0983
   9   0.0000       0.069552         1.8926
  10   0.0000       0.132445         3.6040
  11   0.0000       0.157469         4.2849
  12   0.0000       0.168412         4.5827
  13   0.0000       0.189354         5.1526

MULLIKEN ATOMIC CHARGES
-----------------------
   0 C :   -0.004157
   1 O :   -0.003210
   2 H :   -0.000117
   3 H :   -0.000171
   4 H :    0.000156
   5 H :    0.000723
   6 C :   -0.157429
   7 O :   -0.466517
   8 H :    0.317903
   9 H :    0.124289
  10 H :    0.097711
  11 H :    0.090819
Sum of atomic charges:    0.0000000

LOEWDIN ATOMIC CHARGES
----------------------
   0 C :   -0.012132
   1 O :   -0.016750
   2 H :   -0.000740
   3 H :   -0.002373
   4 H :   -0.000201
   5 H :   -0.000187
   6 C :   -0.403506
   7 O :   -0.053829
   8 H :    0.202054
   9 H :    0.095750
  10 H :    0.093945
  11 H :    0.097970

  Mayer bond orders larger than 0.1
B(  6-C ,  7-O ) :   0.9966 B(  6-C ,  9-H ) :   0.9722 B(  6-C , 10-H ) :   0.9769
B(  6-C , 11-H ) :   0.9846 B(  7-O ,  8-H ) :   0.9008

Dispersion correction           -0.000222036
FINAL SINGLE POINT ENERGY      -115.733638228481

DIPOLE MOMENT
-------------
                                X             Y             Z
Electronic contribution:      1.49419       0.64631       0.83608
Nuclear contribution   :     -1.57075      -1.18623      -1.18304
                        -----------------------------------------
Total Dipole Moment    :     -0.07656      -0.53992      -0.34696
                        -----------------------------------------
Magnitude (a.u.)       :      0.64634
Magnitude (Debye)      :      1.64287

Rotational constants in cm-1:     4.335784     0.858140     0.833127
Rotational constants in MHz : 129983.528628 25726.385488 24976.526325

                             ****ORCA TERMINATED NORMALLY****
TOTAL RUN TIME: 0 days 0 hours 1 minutes 7 seconds 224 msec
