                         Program Version 4.1.2  - RELEASE  -
|  1> #Run DFT-D3 single point of the dimer
|  2> ! wB97X-D3 def2-TZVP TIGHTSCF CHELPG PMODEL PAL8
|  3>
|  4> %base "19-138_DFT_AB"
|  5>
|  6> %scf
|  7> MaxIter 1000
|  8> end
|  9>
| 10> * xyz 0 1
| 11>   C                      -7.106117            -0.711953            -4.295349
| 12>   O                      -7.987258            -0.969623            -5.345620
| 13>   H                      -8.785335            -0.606331            -5.012032
| 14>   H                      -6.036073            -1.036936            -4.411769
| 15>   H                      -7.037151            0.351110             -4.185939
| 16>   H                      -7.469075            -1.155235            -3.374603
| 17>   C                      -10.780089           -3.736451            -5.484572
| 18>   O                      -9.434585            -3.378231            -5.305909
| 19>   H                      -9.305679            -2.730971            -6.020294
| 20>   H                      -11.006055           -4.182106            -6.440590
| 21>   H                      -11.175239           -4.449505            -4.766262
| 22>   H                      -11.485986           -2.854427            -5.329985
| 23> *
| 24>
| 25> #Run DFT-D3 single point of the molecule with dimer basis set
| 26> $new_job
| 27> %base "19-138_DFT_A"
| 28> ! wB97X-D3 def2-TZVP TIGHTSCF CHELPG PMODEL
| 29>
| 30> %scf
| 31> MaxIter 1000
| 32> end
| 33>
| 34> * xyz 0 1
| 35>   C                      -7.106117            -0.711953            -4.295349
| 36>   O                      -7.987258            -0.969623            -5.345620
| 37>   H                      -8.785335            -0.606331            -5.012032
| 38>   H                      -6.036073            -1.036936            -4.411769
| 39>   H                      -7.037151            0.351110             -4.185939
| 40>   H                      -7.469075            -1.155235            -3.374603
| 41>   C                    : -10.780089           -3.736451            -5.484572
| 42>   O                    : -9.434585            -3.378231            -5.305909
| 43>   H                    : -9.305679            -2.730971            -6.020294
| 44>   H                    : -11.006055           -4.182106            -6.440590
| 45>   H                    : -11.175239           -4.449505            -4.766262
| 46>   H                    : -11.485986           -2.854427            -5.329985
| 47> *
| 48>
| 49> #Run DFT-D3 single point of the particle with dimer basis set
| 50> $new_job
| 51> %base "19-138_DFT_B"
| 52> ! wB97X-D3 def2-TZVP TIGHTSCF CHELPG PMODEL
| 53>
| 54> %scf
| 55> MaxIter 1000
| 56> end
| 57>
| 58> * xyz 0 1
| 59>   C                    : -7.106117            -0.711953            -4.295349
| 60>   O                    : -7.987258            -0.969623            -5.345620
| 61>   H                    : -8.785335            -0.606331            -5.012032
| 62>   H                    : -6.036073            -1.036936            -4.411769
| 63>   H                    : -7.037151            0.351110             -4.185939
| 64>   H                    : -7.469075            -1.155235            -3.374603
| 65>   C                      -10.780089           -3.736451            -5.484572
| 66>   O                      -9.434585            -3.378231            -5.305909
| 67>   H                      -9.305679            -2.730971            -6.020294
| 68>   H                      -11.006055           -4.182106            -6.440590
| 69>   H                      -11.175239           -4.449505            -4.766262
| 70>   H                      -11.485986           -2.854427            -5.329985
| 71> *
| 72>
| 73>                          ****END OF INPUT****
 Total Charge           Charge          ....    0
 Multiplicity           Mult            ....    1
 Number of Electrons    NEL             ....   36
Dispersion correction           -0.001525149
FINAL SINGLE POINT ENERGY      -231.464464211060
Dispersion correction           -0.000209132
FINAL SINGLE POINT ENERGY      -115.730557397479

CARTESIAN COORDINATES (ANGSTROEM)
---------------------------------
  C     -7.106117   -0.711953   -4.295349
  O     -7.987258   -0.969623   -5.345620
  H     -8.785335   -0.606331   -5.012032
  H     -6.036073   -1.036936   -4.411769
  H     -7.037151    0.351110   -4.185939
  H     -7.469075   -1.155235   -3.374603
  C    -10.780089   -3.736451   -5.484572
  O     -9.434585   -3.378231   -5.305909
  H     -9.305679   -2.730971   -6.020294
  H    -11.006055   -4.182106   -6.440590
  H    -11.175239   -4.449505   -4.766262
  H    -11.485986   -2.854427   -5.329985

 Multiplicity           Mult            ....    1
 Number of Electrons    NEL             ....   18
 Basis Dimension        Dim             ....  172

ORBITAL ENERGIES
----------------

  NO   OCC          E(Eh)            E(eV)
   0   2.0000     -19.238980      -523.5192
   1   2.0000     -10.315153      -280.6896
   2   2.0000      -1.144210       -31.1355
   3   2.0000      -0.793423       -21.5901
   4   2.0000      -0.611246       -16.6328
   5   2.0000      -0.542008       -14.7488
   6   2.0000      -0.532345       -14.4858
   7   2.0000      -0.435570       -11.8525
   8   2.0000      -0.376496       -10.2450
   9   0.0000       0.086082         2.3424
  10   0.0000       0.123273         3.3544
  11   0.0000       0.150211         4.0875
  12   0.0000       0.179270         4.8782
  13   0.0000       0.199859         5.4385

MULLIKEN ATOMIC CHARGES
-----------------------
   0 C :    0.001248
   1 O :   -0.002573
   2 H :   -0.004704
   3 H :    0.000081
   4 H :   -0.000080
   5 H :   -0.002178
   6 C :   -0.188947
   7 O :   -0.449127
   8 H :    0.321642
   9 H :    0.107575
  10 H :    0.122321
  11 H :    0.094741
Sum of atomic charges:   -0.0000000

LOEWDIN ATOMIC CHARGES
----------------------
   0 C :   -0.003153
   1 O :   -0.012038
   2 H :   -0.004794
   3 H :   -0.000040
   4 H :   -0.000042
   5 H :   -0.000882
   6 C :   -0.409034
   7 O :   -0.055777
   8 H :    0.187619
   9 H :    0.090611
  10 H :    0.106423
  11 H :    0.101108

  Mayer bond orders larger than 0.1
B(  6-C ,  7-O ) :   1.0110 B(  6-C ,  9-H ) :   0.9751 B(  6-C , 10-H ) :   0.9729
B(  6-C , 11-H ) :   0.9758 B(  7-O ,  8-H ) :   0.8955

Dispersion correction           -0.000239528
FINAL SINGLE POINT ENERGY      -115.732473101031

DIPOLE MOMENT
-------------
                                X             Y             Z
Electronic contribution:      1.95558       0.29385       0.34250
Nuclear contribution   :     -2.39040      -0.07121      -0.84069
                        -----------------------------------------
Total Dipole Moment    :     -0.43482       0.22264      -0.49819
                        -----------------------------------------
Magnitude (a.u.)       :      0.69773
Magnitude (Debye)      :      1.77348

Rotational constants in cm-1:     4.330962     0.829834     0.804694
Rotational constants in MHz : 129838.983010 24877.797485 24124.109082

                             ****ORCA TERMINATED NORMALLY****
TOTAL RUN TIME: 0 days 0 hours 0 minutes 49 seconds 364 msec
