                         Program Version 4.1.2  - RELEASE  -
|  1> #Run DFT-D3 single point of the dimer
|  2> ! wB97X-D3 def2-TZVP TIGHTSCF CHELPG PMODEL PAL8
|  3>
|  4> %base "17-192_DFT_AB"
|  5>
|  6> %scf
|  7> MaxIter 1000
|  8> end
|  9>
| 10> * xyz 0 1
| 11>   C                      -9.527822            -9.728058            -0.734884
| 12>   O                      -9.588153            -10.262342           0.524446
| 13>   H                      -9.808452            -9.662483            1.212237
| 14>   H                      -10.053993           -8.784656            -0.838553
| 15>   H                      -8.566556            -9.455384            -1.089109
| 16>   H                      -9.991204            -10.377157           -1.505548
| 17>   C                      -5.973402            -11.209498           -0.007555
| 18>   O                      -7.272111            -11.729975           0.164970
| 19>   H                      -7.764098            -10.971614           0.508654
| 20>   H                      -5.238792            -11.857875           -0.558067
| 21>   H                      -6.117976            -10.312449           -0.620980
| 22>   H                      -5.520536            -10.999363           0.990332
| 23> *
| 24>
| 25> #Run DFT-D3 single point of the molecule with dimer basis set
| 26> $new_job
| 27> %base "17-192_DFT_A"
| 28> ! wB97X-D3 def2-TZVP TIGHTSCF CHELPG PMODEL
| 29>
| 30> %scf
| 31> MaxIter 1000
| 32> end
| 33>
| 34> * xyz 0 1
| 35>   C                      -9.527822            -9.728058            -0.734884
| 36>   O                      -9.588153            -10.262342           0.524446
| 37>   H                      -9.808452            -9.662483            1.212237
| 38>   H                      -10.053993           -8.784656            -0.838553
| 39>   H                      -8.566556            -9.455384            -1.089109
| 40>   H                      -9.991204            -10.377157           -1.505548
| 41>   C                    : -5.973402            -11.209498           -0.007555
| 42>   O                    : -7.272111            -11.729975           0.164970
| 43>   H                    : -7.764098            -10.971614           0.508654
| 44>   H                    : -5.238792            -11.857875           -0.558067
| 45>   H                    : -6.117976            -10.312449           -0.620980
| 46>   H                    : -5.520536            -10.999363           0.990332
| 47> *
| 48>
| 49> #Run DFT-D3 single point of the particle with dimer basis set
| 50> $new_job
| 51> %base "17-192_DFT_B"
| 52> ! wB97X-D3 def2-TZVP TIGHTSCF CHELPG PMODEL
| 53>
| 54> %scf
| 55> MaxIter 1000
| 56> end
| 57>
| 58> * xyz 0 1
| 59>   C                    : -9.527822            -9.728058            -0.734884
| 60>   O                    : -9.588153            -10.262342           0.524446
| 61>   H                    : -9.808452            -9.662483            1.212237
| 62>   H                    : -10.053993           -8.784656            -0.838553
| 63>   H                    : -8.566556            -9.455384            -1.089109
| 64>   H                    : -9.991204            -10.377157           -1.505548
| 65>   C                      -5.973402            -11.209498           -0.007555
| 66>   O                      -7.272111            -11.729975           0.164970
| 67>   H                      -7.764098            -10.971614           0.508654
| 68>   H                      -5.238792            -11.857875           -0.558067
| 69>   H                      -6.117976            -10.312449           -0.620980
| 70>   H                      -5.520536            -10.999363           0.990332
| 71> *
| 72>
| 73>                          ****END OF INPUT****
 Total Charge           Charge          ....    0
 Multiplicity           Mult            ....    1
 Number of Electrons    NEL             ....   36
Dispersion correction           -0.001955780
FINAL SINGLE POINT ENERGY      -231.466446845988
Dispersion correction           -0.000251275
FINAL SINGLE POINT ENERGY      -115.731004984168

CARTESIAN COORDINATES (ANGSTROEM)
---------------------------------
  C     -9.527822   -9.728058   -0.734884
  O     -9.588153  -10.262342    0.524446
  H     -9.808452   -9.662483    1.212237
  H    -10.053993   -8.784656   -0.838553
  H     -8.566556   -9.455384   -1.089109
  H     -9.991204  -10.377157   -1.505548
  C     -5.973402  -11.209498   -0.007555
  O     -7.272111  -11.729975    0.164970
  H     -7.764098  -10.971614    0.508654
  H     -5.238792  -11.857875   -0.558067
  H     -6.117976  -10.312449   -0.620980
  H     -5.520536  -10.999363    0.990332

 Multiplicity           Mult            ....    1
 Number of Electrons    NEL             ....   18
 Basis Dimension        Dim             ....  172

ORBITAL ENERGIES
----------------

  NO   OCC          E(Eh)            E(eV)
   0   2.0000     -19.232082      -523.3316
   1   2.0000     -10.319633      -280.8115
   2   2.0000      -1.141035       -31.0491
   3   2.0000      -0.787510       -21.4292
   4   2.0000      -0.605356       -16.4726
   5   2.0000      -0.550194       -14.9715
   6   2.0000      -0.530785       -14.4434
   7   2.0000      -0.429436       -11.6856
   8   2.0000      -0.373147       -10.1538
   9   0.0000       0.073769         2.0074
  10   0.0000       0.136640         3.7182
  11   0.0000       0.146852         3.9960
  12   0.0000       0.168122         4.5748
  13   0.0000       0.189428         5.1546

MULLIKEN ATOMIC CHARGES
-----------------------
   0 C :   -0.009923
   1 O :   -0.000351
   2 H :   -0.000121
   3 H :   -0.000618
   4 H :   -0.001287
   5 H :    0.000620
   6 C :   -0.177482
   7 O :   -0.453873
   8 H :    0.316273
   9 H :    0.119835
  10 H :    0.103054
  11 H :    0.103873
Sum of atomic charges:    0.0000000

LOEWDIN ATOMIC CHARGES
----------------------
   0 C :   -0.016941
   1 O :   -0.017928
   2 H :   -0.001238
   3 H :   -0.000270
   4 H :   -0.003451
   5 H :   -0.000729
   6 C :   -0.396280
   7 O :   -0.059793
   8 H :    0.189031
   9 H :    0.112363
  10 H :    0.097044
  11 H :    0.098192

  Mayer bond orders larger than 0.1
B(  6-C ,  7-O ) :   0.9949 B(  6-C ,  9-H ) :   0.9684 B(  6-C , 10-H ) :   0.9837
B(  6-C , 11-H ) :   0.9824 B(  7-O ,  8-H ) :   0.8998

Dispersion correction           -0.000220410
FINAL SINGLE POINT ENERGY      -115.731450386573

DIPOLE MOMENT
-------------
                                X             Y             Z
Electronic contribution:     -1.59756      -0.88949       0.16544
Nuclear contribution   :      1.81094       1.54245      -0.03499
                        -----------------------------------------
Total Dipole Moment    :      0.21338       0.65297       0.13045
                        -----------------------------------------
Magnitude (a.u.)       :      0.69922
Magnitude (Debye)      :      1.77728

Rotational constants in cm-1:     4.143920     0.836049     0.811188
Rotational constants in MHz : 124231.605890 25064.113397 24318.798598

                             ****ORCA TERMINATED NORMALLY****
TOTAL RUN TIME: 0 days 0 hours 1 minutes 13 seconds 743 msec
