                         Program Version 4.1.2  - RELEASE  -
|  1> #Run DFT-D3 single point of the dimer
|  2> ! wB97X-D3 def2-TZVP TIGHTSCF CHELPG PMODEL PAL8
|  3>
|  4> %base "17-104_DFT_AB"
|  5>
|  6> %scf
|  7> MaxIter 1000
|  8> end
|  9>
| 10> * xyz 0 1
| 11>   C                      -3.510231            -1.086601            -3.537600
| 12>   O                      -4.343705            -1.752611            -4.437602
| 13>   H                      -5.224240            -1.403687            -4.477860
| 14>   H                      -4.049414            -0.835512            -2.615135
| 15>   H                      -2.571821            -1.682410            -3.278911
| 16>   H                      -3.190376            -0.068218            -3.952758
| 17>   C                      -5.938019            1.396045             -1.010357
| 18>   O                      -5.780449            2.649759             -0.478520
| 19>   H                      -5.146989            3.115646             -1.048343
| 20>   H                      -5.745337            1.479658             -2.080329
| 21>   H                      -5.070851            0.715713             -0.818665
| 22>   H                      -6.876233            0.889256             -0.793456
| 23> *
| 24>
| 25> #Run DFT-D3 single point of the molecule with dimer basis set
| 26> $new_job
| 27> %base "17-104_DFT_A"
| 28> ! wB97X-D3 def2-TZVP TIGHTSCF CHELPG PMODEL
| 29>
| 30> %scf
| 31> MaxIter 1000
| 32> end
| 33>
| 34> * xyz 0 1
| 35>   C                      -3.510231            -1.086601            -3.537600
| 36>   O                      -4.343705            -1.752611            -4.437602
| 37>   H                      -5.224240            -1.403687            -4.477860
| 38>   H                      -4.049414            -0.835512            -2.615135
| 39>   H                      -2.571821            -1.682410            -3.278911
| 40>   H                      -3.190376            -0.068218            -3.952758
| 41>   C                    : -5.938019            1.396045             -1.010357
| 42>   O                    : -5.780449            2.649759             -0.478520
| 43>   H                    : -5.146989            3.115646             -1.048343
| 44>   H                    : -5.745337            1.479658             -2.080329
| 45>   H                    : -5.070851            0.715713             -0.818665
| 46>   H                    : -6.876233            0.889256             -0.793456
| 47> *
| 48>
| 49> #Run DFT-D3 single point of the particle with dimer basis set
| 50> $new_job
| 51> %base "17-104_DFT_B"
| 52> ! wB97X-D3 def2-TZVP TIGHTSCF CHELPG PMODEL
| 53>
| 54> %scf
| 55> MaxIter 1000
| 56> end
| 57>
| 58> * xyz 0 1
| 59>   C                    : -3.510231            -1.086601            -3.537600
| 60>   O                    : -4.343705            -1.752611            -4.437602
| 61>   H                    : -5.224240            -1.403687            -4.477860
| 62>   H                    : -4.049414            -0.835512            -2.615135
| 63>   H                    : -2.571821            -1.682410            -3.278911
| 64>   H                    : -3.190376            -0.068218            -3.952758
| 65>   C                      -5.938019            1.396045             -1.010357
| 66>   O                      -5.780449            2.649759             -0.478520
| 67>   H                      -5.146989            3.115646             -1.048343
| 68>   H                      -5.745337            1.479658             -2.080329
| 69>   H                      -5.070851            0.715713             -0.818665
| 70>   H                      -6.876233            0.889256             -0.793456
| 71> *
| 72>
| 73>                          ****END OF INPUT****
 Total Charge           Charge          ....    0
 Multiplicity           Mult            ....    1
 Number of Electrons    NEL             ....   36
Dispersion correction           -0.001289201
FINAL SINGLE POINT ENERGY      -231.459231932367
Dispersion correction           -0.000257141
FINAL SINGLE POINT ENERGY      -115.732114763604

CARTESIAN COORDINATES (ANGSTROEM)
---------------------------------
  C     -3.510231   -1.086601   -3.537600
  O     -4.343705   -1.752611   -4.437602
  H     -5.224240   -1.403687   -4.477860
  H     -4.049414   -0.835512   -2.615135
  H     -2.571821   -1.682410   -3.278911
  H     -3.190376   -0.068218   -3.952758
  C     -5.938019    1.396045   -1.010357
  O     -5.780449    2.649759   -0.478520
  H     -5.146989    3.115646   -1.048343
  H     -5.745337    1.479658   -2.080329
  H     -5.070851    0.715713   -0.818665
  H     -6.876233    0.889256   -0.793456

 Multiplicity           Mult            ....    1
 Number of Electrons    NEL             ....   18
 Basis Dimension        Dim             ....  172

ORBITAL ENERGIES
----------------

  NO   OCC          E(Eh)            E(eV)
   0   2.0000     -19.232634      -523.3466
   1   2.0000     -10.311838      -280.5994
   2   2.0000      -1.150997       -31.3202
   3   2.0000      -0.791800       -21.5460
   4   2.0000      -0.625865       -17.0306
   5   2.0000      -0.544599       -14.8193
   6   2.0000      -0.530365       -14.4320
   7   2.0000      -0.436114       -11.8673
   8   2.0000      -0.363582        -9.8936
   9   0.0000       0.078667         2.1406
  10   0.0000       0.111597         3.0367
  11   0.0000       0.156186         4.2500
  12   0.0000       0.157392         4.2829
  13   0.0000       0.187364         5.0984

MULLIKEN ATOMIC CHARGES
-----------------------
   0 C :    0.002215
   1 O :    0.000019
   2 H :   -0.000092
   3 H :   -0.004807
   4 H :   -0.000130
   5 H :   -0.000146
   6 C :   -0.169932
   7 O :   -0.458986
   8 H :    0.320273
   9 H :    0.097236
  10 H :    0.089556
  11 H :    0.124794
Sum of atomic charges:    0.0000000

LOEWDIN ATOMIC CHARGES
----------------------
   0 C :   -0.001367
   1 O :   -0.000015
   2 H :   -0.000095
   3 H :   -0.003434
   4 H :   -0.000011
   5 H :   -0.000127
   6 C :   -0.427782
   7 O :   -0.048942
   8 H :    0.183738
   9 H :    0.094932
  10 H :    0.096842
  11 H :    0.106262

  Mayer bond orders larger than 0.1
B(  6-C ,  7-O ) :   1.0080 B(  6-C ,  9-H ) :   0.9978 B(  6-C , 10-H ) :   0.9713
B(  6-C , 11-H ) :   0.9646 B(  7-O ,  8-H ) :   0.8951

Dispersion correction           -0.000218295
FINAL SINGLE POINT ENERGY      -115.726652032004

DIPOLE MOMENT
-------------
                                X             Y             Z
Electronic contribution:     -0.11647       1.69000       0.98543
Nuclear contribution   :      0.45399      -1.83491      -1.56584
                        -----------------------------------------
Total Dipole Moment    :      0.33752      -0.14491      -0.58042
                        -----------------------------------------
Magnitude (a.u.)       :      0.68687
Magnitude (Debye)      :      1.74590

Rotational constants in cm-1:     4.319980     0.878563     0.828366
Rotational constants in MHz : 129509.740771 26338.664179 24833.791624

                             ****ORCA TERMINATED NORMALLY****
TOTAL RUN TIME: 0 days 0 hours 1 minutes 1 seconds 415 msec
