                         Program Version 4.1.2  - RELEASE  -
|  1> #Run DFT-D3 single point of the dimer
|  2> ! wB97X-D3 def2-TZVP TIGHTSCF CHELPG PMODEL PAL8
|  3>
|  4> %base "16-167_DFT_AB"
|  5>
|  6> %scf
|  7> MaxIter 1000
|  8> end
|  9>
| 10> * xyz 0 1
| 11>   C                      6.927127             -4.964074            -3.543295
| 12>   O                      7.098830             -4.110192            -4.645305
| 13>   H                      6.671527             -4.533860            -5.377378
| 14>   H                      7.355301             -5.940963            -3.781098
| 15>   H                      7.411281             -4.637179            -2.614870
| 16>   H                      5.821214             -5.071691            -3.295689
| 17>   C                      6.813464             -0.359870            -2.907765
| 18>   O                      7.479864             -1.352978            -3.684879
| 19>   H                      6.935832             -2.148300            -3.917883
| 20>   H                      5.925174             -0.000619            -3.410720
| 21>   H                      6.432959             -0.650493            -1.913250
| 22>   H                      7.485737             0.463291             -2.578614
| 23> *
| 24>
| 25> #Run DFT-D3 single point of the molecule with dimer basis set
| 26> $new_job
| 27> %base "16-167_DFT_A"
| 28> ! wB97X-D3 def2-TZVP TIGHTSCF CHELPG PMODEL
| 29>
| 30> %scf
| 31> MaxIter 1000
| 32> end
| 33>
| 34> * xyz 0 1
| 35>   C                      6.927127             -4.964074            -3.543295
| 36>   O                      7.098830             -4.110192            -4.645305
| 37>   H                      6.671527             -4.533860            -5.377378
| 38>   H                      7.355301             -5.940963            -3.781098
| 39>   H                      7.411281             -4.637179            -2.614870
| 40>   H                      5.821214             -5.071691            -3.295689
| 41>   C                    : 6.813464             -0.359870            -2.907765
| 42>   O                    : 7.479864             -1.352978            -3.684879
| 43>   H                    : 6.935832             -2.148300            -3.917883
| 44>   H                    : 5.925174             -0.000619            -3.410720
| 45>   H                    : 6.432959             -0.650493            -1.913250
| 46>   H                    : 7.485737             0.463291             -2.578614
| 47> *
| 48>
| 49> #Run DFT-D3 single point of the particle with dimer basis set
| 50> $new_job
| 51> %base "16-167_DFT_B"
| 52> ! wB97X-D3 def2-TZVP TIGHTSCF CHELPG PMODEL
| 53>
| 54> %scf
| 55> MaxIter 1000
| 56> end
| 57>
| 58> * xyz 0 1
| 59>   C                    : 6.927127             -4.964074            -3.543295
| 60>   O                    : 7.098830             -4.110192            -4.645305
| 61>   H                    : 6.671527             -4.533860            -5.377378
| 62>   H                    : 7.355301             -5.940963            -3.781098
| 63>   H                    : 7.411281             -4.637179            -2.614870
| 64>   H                    : 5.821214             -5.071691            -3.295689
| 65>   C                      6.813464             -0.359870            -2.907765
| 66>   O                      7.479864             -1.352978            -3.684879
| 67>   H                      6.935832             -2.148300            -3.917883
| 68>   H                      5.925174             -0.000619            -3.410720
| 69>   H                      6.432959             -0.650493            -1.913250
| 70>   H                      7.485737             0.463291             -2.578614
| 71> *
| 72>
| 73>                          ****END OF INPUT****
 Total Charge           Charge          ....    0
 Multiplicity           Mult            ....    1
 Number of Electrons    NEL             ....   36
Dispersion correction           -0.001550485
FINAL SINGLE POINT ENERGY      -231.469613347070
Dispersion correction           -0.000232081
FINAL SINGLE POINT ENERGY      -115.734258164485

CARTESIAN COORDINATES (ANGSTROEM)
---------------------------------
  C      6.927127   -4.964074   -3.543295
  O      7.098830   -4.110192   -4.645305
  H      6.671527   -4.533860   -5.377378
  H      7.355301   -5.940963   -3.781098
  H      7.411281   -4.637179   -2.614870
  H      5.821214   -5.071691   -3.295689
  C      6.813464   -0.359870   -2.907765
  O      7.479864   -1.352978   -3.684879
  H      6.935832   -2.148300   -3.917883
  H      5.925174   -0.000619   -3.410720
  H      6.432959   -0.650493   -1.913250
  H      7.485737    0.463291   -2.578614

 Multiplicity           Mult            ....    1
 Number of Electrons    NEL             ....   18
 Basis Dimension        Dim             ....  172

ORBITAL ENERGIES
----------------

  NO   OCC          E(Eh)            E(eV)
   0   2.0000     -19.234650      -523.4014
   1   2.0000     -10.317331      -280.7489
   2   2.0000      -1.123754       -30.5789
   3   2.0000      -0.798078       -21.7168
   4   2.0000      -0.611918       -16.6511
   5   2.0000      -0.543686       -14.7944
   6   2.0000      -0.514434       -13.9985
   7   2.0000      -0.426190       -11.5972
   8   2.0000      -0.372874       -10.1464
   9   0.0000       0.071432         1.9438
  10   0.0000       0.132577         3.6076
  11   0.0000       0.145160         3.9500
  12   0.0000       0.165062         4.4916
  13   0.0000       0.194646         5.2966

MULLIKEN ATOMIC CHARGES
-----------------------
   0 C :   -0.004016
   1 O :    0.001011
   2 H :    0.000046
   3 H :   -0.000318
   4 H :   -0.001189
   5 H :    0.000379
   6 C :   -0.155932
   7 O :   -0.485135
   8 H :    0.318713
   9 H :    0.106591
  10 H :    0.093626
  11 H :    0.126225
Sum of atomic charges:   -0.0000000

LOEWDIN ATOMIC CHARGES
----------------------
   0 C :   -0.006041
   1 O :   -0.011350
   2 H :   -0.000579
   3 H :   -0.000136
   4 H :   -0.001313
   5 H :   -0.000155
   6 C :   -0.384628
   7 O :   -0.090730
   8 H :    0.192747
   9 H :    0.092687
  10 H :    0.093851
  11 H :    0.115648

  Mayer bond orders larger than 0.1
B(  6-C ,  7-O ) :   0.9985 B(  6-C ,  9-H ) :   0.9826 B(  6-C , 10-H ) :   0.9677
B(  6-C , 11-H ) :   0.9698 B(  7-O ,  8-H ) :   0.8886

Dispersion correction           -0.000287054
FINAL SINGLE POINT ENERGY      -115.729290571477

DIPOLE MOMENT
-------------
                                X             Y             Z
Electronic contribution:      1.00710      -1.20917      -1.10540
Nuclear contribution   :     -1.63239       1.11857       1.29513
                        -----------------------------------------
Total Dipole Moment    :     -0.62529      -0.09060       0.18973
                        -----------------------------------------
Magnitude (a.u.)       :      0.65969
Magnitude (Debye)      :      1.67681

Rotational constants in cm-1:     4.484637     0.797292     0.765711
Rotational constants in MHz : 134446.020260 23902.210576 22955.429826

                             ****ORCA TERMINATED NORMALLY****
TOTAL RUN TIME: 0 days 0 hours 1 minutes 4 seconds 812 msec
