                         Program Version 4.1.2  - RELEASE  -
|  1> #Run DFT-D3 single point of the dimer
|  2> ! wB97X-D3 def2-TZVP TIGHTSCF CHELPG PMODEL PAL8
|  3>
|  4> %base "22-58_DFT_AB"
|  5>
|  6> %scf
|  7> MaxIter 1000
|  8> end
|  9>
| 10> * xyz 0 1
| 11>   C                      5.509219             -5.286384            -2.629828
| 12>   O                      6.356411             -4.322206            -3.312786
| 13>   H                      5.806492             -3.659072            -3.753185
| 14>   H                      4.710320             -5.785805            -3.279945
| 15>   H                      6.199272             -6.152955            -2.356879
| 16>   H                      4.910016             -4.863904            -1.771712
| 17>   C                      6.876349             -0.965767            -0.600827
| 18>   O                      6.418567             -1.609504            0.569782
| 19>   H                      6.191820             -1.056474            1.278961
| 20>   H                      7.664219             -0.300239            -0.340674
| 21>   H                      7.239622             -1.624826            -1.357148
| 22>   H                      6.163370             -0.292304            -1.059410
| 23> *
| 24>
| 25> #Run DFT-D3 single point of the molecule with dimer basis set
| 26> $new_job
| 27> %base "22-58_DFT_A"
| 28> ! wB97X-D3 def2-TZVP TIGHTSCF CHELPG PMODEL
| 29>
| 30> %scf
| 31> MaxIter 1000
| 32> end
| 33>
| 34> * xyz 0 1
| 35>   C                      5.509219             -5.286384            -2.629828
| 36>   O                      6.356411             -4.322206            -3.312786
| 37>   H                      5.806492             -3.659072            -3.753185
| 38>   H                      4.710320             -5.785805            -3.279945
| 39>   H                      6.199272             -6.152955            -2.356879
| 40>   H                      4.910016             -4.863904            -1.771712
| 41>   C                    : 6.876349             -0.965767            -0.600827
| 42>   O                    : 6.418567             -1.609504            0.569782
| 43>   H                    : 6.191820             -1.056474            1.278961
| 44>   H                    : 7.664219             -0.300239            -0.340674
| 45>   H                    : 7.239622             -1.624826            -1.357148
| 46>   H                    : 6.163370             -0.292304            -1.059410
| 47> *
| 48>
| 49> #Run DFT-D3 single point of the particle with dimer basis set
| 50> $new_job
| 51> %base "22-58_DFT_B"
| 52> ! wB97X-D3 def2-TZVP TIGHTSCF CHELPG PMODEL
| 53>
| 54> %scf
| 55> MaxIter 1000
| 56> end
| 57>
| 58> * xyz 0 1
| 59>   C                    : 5.509219             -5.286384            -2.629828
| 60>   O                    : 6.356411             -4.322206            -3.312786
| 61>   H                    : 5.806492             -3.659072            -3.753185
| 62>   H                    : 4.710320             -5.785805            -3.279945
| 63>   H                    : 6.199272             -6.152955            -2.356879
| 64>   H                    : 4.910016             -4.863904            -1.771712
| 65>   C                      6.876349             -0.965767            -0.600827
| 66>   O                      6.418567             -1.609504            0.569782
| 67>   H                      6.191820             -1.056474            1.278961
| 68>   H                      7.664219             -0.300239            -0.340674
| 69>   H                      7.239622             -1.624826            -1.357148
| 70>   H                      6.163370             -0.292304            -1.059410
| 71> *
| 72>
| 73>                          ****END OF INPUT****
 Total Charge           Charge          ....    0
 Multiplicity           Mult            ....    1
 Number of Electrons    NEL             ....   36
Dispersion correction           -0.001065979
FINAL SINGLE POINT ENERGY      -231.461569567570
Dispersion correction           -0.000300120
FINAL SINGLE POINT ENERGY      -115.730257440391

CARTESIAN COORDINATES (ANGSTROEM)
---------------------------------
  C      5.509219   -5.286384   -2.629828
  O      6.356411   -4.322206   -3.312786
  H      5.806492   -3.659072   -3.753185
  H      4.710320   -5.785805   -3.279945
  H      6.199272   -6.152955   -2.356879
  H      4.910016   -4.863904   -1.771712
  C      6.876349   -0.965767   -0.600827
  O      6.418567   -1.609504    0.569782
  H      6.191820   -1.056474    1.278961
  H      7.664219   -0.300239   -0.340674
  H      7.239622   -1.624826   -1.357148
  H      6.163370   -0.292304   -1.059410

 Multiplicity           Mult            ....    1
 Number of Electrons    NEL             ....   18
 Basis Dimension        Dim             ....  172

ORBITAL ENERGIES
----------------

  NO   OCC          E(Eh)            E(eV)
   0   2.0000     -19.223584      -523.1003
   1   2.0000     -10.306764      -280.4613
   2   2.0000      -1.137083       -30.9416
   3   2.0000      -0.808676       -22.0052
   4   2.0000      -0.621555       -16.9134
   5   2.0000      -0.539863       -14.6904
   6   2.0000      -0.534433       -14.5427
   7   2.0000      -0.428213       -11.6523
   8   2.0000      -0.370911       -10.0930
   9   0.0000       0.088565         2.4100
  10   0.0000       0.121912         3.3174
  11   0.0000       0.147304         4.0083
  12   0.0000       0.175130         4.7655
  13   0.0000       0.193077         5.2539

MULLIKEN ATOMIC CHARGES
-----------------------
   0 C :    0.000190
   1 O :   -0.000006
   2 H :   -0.000095
   3 H :   -0.000002
   4 H :   -0.000004
   5 H :   -0.000434
   6 C :   -0.154014
   7 O :   -0.489294
   8 H :    0.313012
   9 H :    0.104123
  10 H :    0.128433
  11 H :    0.098092
Sum of atomic charges:    0.0000000

LOEWDIN ATOMIC CHARGES
----------------------
   0 C :   -0.000094
   1 O :   -0.000216
   2 H :   -0.000182
   3 H :   -0.000001
   4 H :   -0.000002
   5 H :   -0.000159
   6 C :   -0.372711
   7 O :   -0.060875
   8 H :    0.145852
   9 H :    0.090846
  10 H :    0.104914
  11 H :    0.092627

  Mayer bond orders larger than 0.1
B(  6-C ,  7-O ) :   0.9886 B(  6-C ,  9-H ) :   0.9861 B(  6-C , 10-H ) :   0.9707
B(  6-C , 11-H ) :   0.9746 B(  7-O ,  8-H ) :   0.9004

Dispersion correction           -0.000247716
FINAL SINGLE POINT ENERGY      -115.730458516972

DIPOLE MOMENT
-------------
                                X             Y             Z
Electronic contribution:     -0.59283      -1.02861       1.40779
Nuclear contribution   :      0.65246       1.68441      -1.42658
                        -----------------------------------------
Total Dipole Moment    :      0.05963       0.65580      -0.01879
                        -----------------------------------------
Magnitude (a.u.)       :      0.65877
Magnitude (Debye)      :      1.67447

Rotational constants in cm-1:     4.721431     0.824403     0.793978
Rotational constants in MHz : 141544.932990 24714.990551 23802.853916

                             ****ORCA TERMINATED NORMALLY****
TOTAL RUN TIME: 0 days 0 hours 0 minutes 57 seconds 73 msec
