                         Program Version 4.1.2  - RELEASE  -
|  1> #Run DFT-D3 single point of the dimer
|  2> ! wB97X-D3 def2-TZVP TIGHTSCF CHELPG PMODEL PAL8
|  3>
|  4> %base "6-91_DFT_AB"
|  5>
|  6> %scf
|  7> MaxIter 1000
|  8> end
|  9>
| 10> * xyz 0 1
| 11>   C                      6.664978             3.067073             1.226311
| 12>   O                      8.059023             2.989451             1.564592
| 13>   H                      8.160365             2.945944             2.478638
| 14>   H                      6.091341             2.145018             1.217380
| 15>   H                      6.072127             3.731938             1.852075
| 16>   H                      6.459341             3.559162             0.310594
| 17>   C                      7.313492             5.352219             -3.875000
| 18>   O                      8.583517             5.934951             -3.688472
| 19>   H                      8.912932             5.914960             -4.629453
| 20>   H                      6.701947             5.408958             -2.954834
| 21>   H                      6.815108             5.840686             -4.748789
| 22>   H                      7.336305             4.377788             -4.229219
| 23> *
| 24>
| 25> #Run DFT-D3 single point of the molecule with dimer basis set
| 26> $new_job
| 27> %base "6-91_DFT_A"
| 28> ! wB97X-D3 def2-TZVP TIGHTSCF CHELPG PMODEL
| 29>
| 30> %scf
| 31> MaxIter 1000
| 32> end
| 33>
| 34> * xyz 0 1
| 35>   C                      6.664978             3.067073             1.226311
| 36>   O                      8.059023             2.989451             1.564592
| 37>   H                      8.160365             2.945944             2.478638
| 38>   H                      6.091341             2.145018             1.217380
| 39>   H                      6.072127             3.731938             1.852075
| 40>   H                      6.459341             3.559162             0.310594
| 41>   C                    : 7.313492             5.352219             -3.875000
| 42>   O                    : 8.583517             5.934951             -3.688472
| 43>   H                    : 8.912932             5.914960             -4.629453
| 44>   H                    : 6.701947             5.408958             -2.954834
| 45>   H                    : 6.815108             5.840686             -4.748789
| 46>   H                    : 7.336305             4.377788             -4.229219
| 47> *
| 48>
| 49> #Run DFT-D3 single point of the particle with dimer basis set
| 50> $new_job
| 51> %base "6-91_DFT_B"
| 52> ! wB97X-D3 def2-TZVP TIGHTSCF CHELPG PMODEL
| 53>
| 54> %scf
| 55> MaxIter 1000
| 56> end
| 57>
| 58> * xyz 0 1
| 59>   C                    : 6.664978             3.067073             1.226311
| 60>   O                    : 8.059023             2.989451             1.564592
| 61>   H                    : 8.160365             2.945944             2.478638
| 62>   H                    : 6.091341             2.145018             1.217380
| 63>   H                    : 6.072127             3.731938             1.852075
| 64>   H                    : 6.459341             3.559162             0.310594
| 65>   C                      7.313492             5.352219             -3.875000
| 66>   O                      8.583517             5.934951             -3.688472
| 67>   H                      8.912932             5.914960             -4.629453
| 68>   H                      6.701947             5.408958             -2.954834
| 69>   H                      6.815108             5.840686             -4.748789
| 70>   H                      7.336305             4.377788             -4.229219
| 71> *
| 72>
| 73>                          ****END OF INPUT****
 Total Charge           Charge          ....    0
 Multiplicity           Mult            ....    1
 Number of Electrons    NEL             ....   36
Dispersion correction           -0.000658608
FINAL SINGLE POINT ENERGY      -231.454755611088
Dispersion correction           -0.000278732
FINAL SINGLE POINT ENERGY      -115.727797832764

CARTESIAN COORDINATES (ANGSTROEM)
---------------------------------
  C      6.664978    3.067073    1.226311
  O      8.059023    2.989451    1.564592
  H      8.160365    2.945944    2.478638
  H      6.091341    2.145018    1.217380
  H      6.072127    3.731938    1.852075
  H      6.459341    3.559162    0.310594
  C      7.313492    5.352219   -3.875000
  O      8.583517    5.934951   -3.688472
  H      8.912932    5.914960   -4.629453
  H      6.701947    5.408958   -2.954834
  H      6.815108    5.840686   -4.748789
  H      7.336305    4.377788   -4.229219

 Multiplicity           Mult            ....    1
 Number of Electrons    NEL             ....   18
 Basis Dimension        Dim             ....  172

ORBITAL ENERGIES
----------------

  NO   OCC          E(Eh)            E(eV)
   0   2.0000     -19.236145      -523.4421
   1   2.0000     -10.310471      -280.5622
   2   2.0000      -1.137176       -30.9441
   3   2.0000      -0.791893       -21.5485
   4   2.0000      -0.614763       -16.7285
   5   2.0000      -0.535471       -14.5709
   6   2.0000      -0.525918       -14.3110
   7   2.0000      -0.447697       -12.1825
   8   2.0000      -0.369249       -10.0478
   9   0.0000       0.086782         2.3614
  10   0.0000       0.106762         2.9051
  11   0.0000       0.146943         3.9985
  12   0.0000       0.168806         4.5935
  13   0.0000       0.186143         5.0652

MULLIKEN ATOMIC CHARGES
-----------------------
   0 C :    0.000014
   1 O :   -0.000001
   2 H :   -0.000000
   3 H :    0.000001
   4 H :   -0.000000
   5 H :   -0.000085
   6 C :   -0.182882
   7 O :   -0.460043
   8 H :    0.316174
   9 H :    0.122843
  10 H :    0.094177
  11 H :    0.109803
Sum of atomic charges:   -0.0000000

LOEWDIN ATOMIC CHARGES
----------------------
   0 C :   -0.000020
   1 O :   -0.000001
   2 H :   -0.000000
   3 H :   -0.000000
   4 H :   -0.000000
   5 H :   -0.000086
   6 C :   -0.398384
   7 O :   -0.087938
   8 H :    0.196483
   9 H :    0.111683
  10 H :    0.098276
  11 H :    0.079988

  Mayer bond orders larger than 0.1
B(  6-C ,  7-O ) :   1.0012 B(  6-C ,  9-H ) :   0.9730 B(  6-C , 10-H ) :   0.9872
B(  6-C , 11-H ) :   0.9682 B(  7-O ,  8-H ) :   0.8973

Dispersion correction           -0.000210276
FINAL SINGLE POINT ENERGY      -115.727201910907

DIPOLE MOMENT
-------------
                                X             Y             Z
Electronic contribution:      1.67119       0.72087       0.57445
Nuclear contribution   :     -1.95041      -0.97816      -1.21885
                        -----------------------------------------
Total Dipole Moment    :     -0.27922      -0.25728      -0.64439
                        -----------------------------------------
Magnitude (a.u.)       :      0.74793
Magnitude (Debye)      :      1.90109

Rotational constants in cm-1:     4.218058     0.854593     0.800480
Rotational constants in MHz : 126454.202737 25620.052762 23997.787893

                             ****ORCA TERMINATED NORMALLY****
TOTAL RUN TIME: 0 days 0 hours 1 minutes 2 seconds 468 msec
