                         Program Version 4.1.2  - RELEASE  -
|  1> #Run DFT-D3 single point of the dimer
|  2> ! wB97X-D3 def2-TZVP TIGHTSCF CHELPG PMODEL PAL8
|  3>
|  4> %base "15-149_DFT_AB"
|  5>
|  6> %scf
|  7> MaxIter 1000
|  8> end
|  9>
| 10> * xyz 0 1
| 11>   C                      -10.695807           -6.649651            4.959832
| 12>   O                      -11.428309           -5.754532            5.794819
| 13>   H                      -12.313601           -5.589736            5.453743
| 14>   H                      -11.365032           -7.374430            4.521126
| 15>   H                      -10.312134           -6.161509            4.072612
| 16>   H                      -9.801205            -7.105240            5.391306
| 17>   C                      -11.181573           -6.523769            8.983289
| 18>   O                      -10.070327           -5.877747            9.523657
| 19>   H                      -9.469174            -5.712060            8.772213
| 20>   H                      -12.071394           -5.910952            8.875676
| 21>   H                      -11.053050           -6.945512            7.970016
| 22>   H                      -11.536426           -7.355774            9.579766
| 23> *
| 24>
| 25> #Run DFT-D3 single point of the molecule with dimer basis set
| 26> $new_job
| 27> %base "15-149_DFT_A"
| 28> ! wB97X-D3 def2-TZVP TIGHTSCF CHELPG PMODEL
| 29>
| 30> %scf
| 31> MaxIter 1000
| 32> end
| 33>
| 34> * xyz 0 1
| 35>   C                      -10.695807           -6.649651            4.959832
| 36>   O                      -11.428309           -5.754532            5.794819
| 37>   H                      -12.313601           -5.589736            5.453743
| 38>   H                      -11.365032           -7.374430            4.521126
| 39>   H                      -10.312134           -6.161509            4.072612
| 40>   H                      -9.801205            -7.105240            5.391306
| 41>   C                    : -11.181573           -6.523769            8.983289
| 42>   O                    : -10.070327           -5.877747            9.523657
| 43>   H                    : -9.469174            -5.712060            8.772213
| 44>   H                    : -12.071394           -5.910952            8.875676
| 45>   H                    : -11.053050           -6.945512            7.970016
| 46>   H                    : -11.536426           -7.355774            9.579766
| 47> *
| 48>
| 49> #Run DFT-D3 single point of the particle with dimer basis set
| 50> $new_job
| 51> %base "15-149_DFT_B"
| 52> ! wB97X-D3 def2-TZVP TIGHTSCF CHELPG PMODEL
| 53>
| 54> %scf
| 55> MaxIter 1000
| 56> end
| 57>
| 58> * xyz 0 1
| 59>   C                    : -10.695807           -6.649651            4.959832
| 60>   O                    : -11.428309           -5.754532            5.794819
| 61>   H                    : -12.313601           -5.589736            5.453743
| 62>   H                    : -11.365032           -7.374430            4.521126
| 63>   H                    : -10.312134           -6.161509            4.072612
| 64>   H                    : -9.801205            -7.105240            5.391306
| 65>   C                      -11.181573           -6.523769            8.983289
| 66>   O                      -10.070327           -5.877747            9.523657
| 67>   H                      -9.469174            -5.712060            8.772213
| 68>   H                      -12.071394           -5.910952            8.875676
| 69>   H                      -11.053050           -6.945512            7.970016
| 70>   H                      -11.536426           -7.355774            9.579766
| 71> *
| 72>
| 73>                          ****END OF INPUT****
 Total Charge           Charge          ....    0
 Multiplicity           Mult            ....    1
 Number of Electrons    NEL             ....   36
Dispersion correction           -0.001825173
FINAL SINGLE POINT ENERGY      -231.465363430967
Dispersion correction           -0.000253515
FINAL SINGLE POINT ENERGY      -115.731093954772

CARTESIAN COORDINATES (ANGSTROEM)
---------------------------------
  C    -10.695807   -6.649651    4.959832
  O    -11.428309   -5.754532    5.794819
  H    -12.313601   -5.589736    5.453743
  H    -11.365032   -7.374430    4.521126
  H    -10.312134   -6.161509    4.072612
  H     -9.801205   -7.105240    5.391306
  C    -11.181573   -6.523769    8.983289
  O    -10.070327   -5.877747    9.523657
  H     -9.469174   -5.712060    8.772213
  H    -12.071394   -5.910952    8.875676
  H    -11.053050   -6.945512    7.970016
  H    -11.536426   -7.355774    9.579766

 Multiplicity           Mult            ....    1
 Number of Electrons    NEL             ....   18
 Basis Dimension        Dim             ....  172

ORBITAL ENERGIES
----------------

  NO   OCC          E(Eh)            E(eV)
   0   2.0000     -19.237294      -523.4734
   1   2.0000     -10.309836      -280.5449
   2   2.0000      -1.142918       -31.1004
   3   2.0000      -0.796242       -21.6669
   4   2.0000      -0.617600       -16.8057
   5   2.0000      -0.535741       -14.5783
   6   2.0000      -0.532797       -14.4982
   7   2.0000      -0.435455       -11.8493
   8   2.0000      -0.373734       -10.1698
   9   0.0000       0.073377         1.9967
  10   0.0000       0.118481         3.2240
  11   0.0000       0.146087         3.9752
  12   0.0000       0.166351         4.5266
  13   0.0000       0.189888         5.1671

MULLIKEN ATOMIC CHARGES
-----------------------
   0 C :    0.000814
   1 O :   -0.000162
   2 H :   -0.000263
   3 H :   -0.000195
   4 H :    0.000029
   5 H :    0.000144
   6 C :   -0.169715
   7 O :   -0.461796
   8 H :    0.322409
   9 H :    0.098851
  10 H :    0.096611
  11 H :    0.113274
Sum of atomic charges:    0.0000000

LOEWDIN ATOMIC CHARGES
----------------------
   0 C :   -0.004956
   1 O :   -0.005725
   2 H :   -0.000608
   3 H :   -0.000117
   4 H :   -0.000075
   5 H :   -0.000797
   6 C :   -0.408529
   7 O :   -0.062859
   8 H :    0.185721
   9 H :    0.094584
  10 H :    0.102574
  11 H :    0.100789

  Mayer bond orders larger than 0.1
B(  6-C ,  7-O ) :   1.0235 B(  6-C ,  9-H ) :   0.9759 B(  6-C , 10-H ) :   0.9840
B(  6-C , 11-H ) :   0.9758 B(  7-O ,  8-H ) :   0.8955

Dispersion correction           -0.000255966
FINAL SINGLE POINT ENERGY      -115.732535388051

DIPOLE MOMENT
-------------
                                X             Y             Z
Electronic contribution:      1.55573       0.91783       0.92202
Nuclear contribution   :     -1.58528      -1.06574      -1.61137
                        -----------------------------------------
Total Dipole Moment    :     -0.02955      -0.14791      -0.68936
                        -----------------------------------------
Magnitude (a.u.)       :      0.70566
Magnitude (Debye)      :      1.79366

Rotational constants in cm-1:     4.473948     0.838409     0.802990
Rotational constants in MHz : 134125.594319 25134.881129 24073.046564

                             ****ORCA TERMINATED NORMALLY****
TOTAL RUN TIME: 0 days 0 hours 1 minutes 7 seconds 262 msec
