                         Program Version 4.1.2  - RELEASE  -
|  1> #Run DFT-D3 single point of the dimer
|  2> ! wB97X-D3 def2-TZVP TIGHTSCF CHELPG PMODEL PAL8
|  3>
|  4> %base "17-89_DFT_AB"
|  5>
|  6> %scf
|  7> MaxIter 1000
|  8> end
|  9>
| 10> * xyz 0 1
| 11>   C                      6.352193             4.195746             -4.190666
| 12>   O                      5.100575             4.500113             -4.616961
| 13>   H                      4.495087             4.304367             -3.860152
| 14>   H                      7.093230             4.700914             -4.815245
| 15>   H                      6.551793             4.589563             -3.174605
| 16>   H                      6.623159             3.143777             -4.209572
| 17>   C                      3.328778             5.216020             -0.430047
| 18>   O                      4.347338             5.363856             -1.385771
| 19>   H                      4.637568             6.277139             -1.392109
| 20>   H                      2.449465             5.800747             -0.724251
| 21>   H                      2.975368             4.180181             -0.373804
| 22>   H                      3.548815             5.555895             0.596199
| 23> *
| 24>
| 25> #Run DFT-D3 single point of the molecule with dimer basis set
| 26> $new_job
| 27> %base "17-89_DFT_A"
| 28> ! wB97X-D3 def2-TZVP TIGHTSCF CHELPG PMODEL
| 29>
| 30> %scf
| 31> MaxIter 1000
| 32> end
| 33>
| 34> * xyz 0 1
| 35>   C                      6.352193             4.195746             -4.190666
| 36>   O                      5.100575             4.500113             -4.616961
| 37>   H                      4.495087             4.304367             -3.860152
| 38>   H                      7.093230             4.700914             -4.815245
| 39>   H                      6.551793             4.589563             -3.174605
| 40>   H                      6.623159             3.143777             -4.209572
| 41>   C                    : 3.328778             5.216020             -0.430047
| 42>   O                    : 4.347338             5.363856             -1.385771
| 43>   H                    : 4.637568             6.277139             -1.392109
| 44>   H                    : 2.449465             5.800747             -0.724251
| 45>   H                    : 2.975368             4.180181             -0.373804
| 46>   H                    : 3.548815             5.555895             0.596199
| 47> *
| 48>
| 49> #Run DFT-D3 single point of the particle with dimer basis set
| 50> $new_job
| 51> %base "17-89_DFT_B"
| 52> ! wB97X-D3 def2-TZVP TIGHTSCF CHELPG PMODEL
| 53>
| 54> %scf
| 55> MaxIter 1000
| 56> end
| 57>
| 58> * xyz 0 1
| 59>   C                    : 6.352193             4.195746             -4.190666
| 60>   O                    : 5.100575             4.500113             -4.616961
| 61>   H                    : 4.495087             4.304367             -3.860152
| 62>   H                    : 7.093230             4.700914             -4.815245
| 63>   H                    : 6.551793             4.589563             -3.174605
| 64>   H                    : 6.623159             3.143777             -4.209572
| 65>   C                      3.328778             5.216020             -0.430047
| 66>   O                      4.347338             5.363856             -1.385771
| 67>   H                      4.637568             6.277139             -1.392109
| 68>   H                      2.449465             5.800747             -0.724251
| 69>   H                      2.975368             4.180181             -0.373804
| 70>   H                      3.548815             5.555895             0.596199
| 71> *
| 72>
| 73>                          ****END OF INPUT****
 Total Charge           Charge          ....    0
 Multiplicity           Mult            ....    1
 Number of Electrons    NEL             ....   36
Dispersion correction           -0.001540551
FINAL SINGLE POINT ENERGY      -231.474377828227
Dispersion correction           -0.000226117
FINAL SINGLE POINT ENERGY      -115.733352623796

CARTESIAN COORDINATES (ANGSTROEM)
---------------------------------
  C      6.352193    4.195746   -4.190666
  O      5.100575    4.500113   -4.616961
  H      4.495087    4.304367   -3.860152
  H      7.093230    4.700914   -4.815245
  H      6.551793    4.589563   -3.174605
  H      6.623159    3.143777   -4.209572
  C      3.328778    5.216020   -0.430047
  O      4.347338    5.363856   -1.385771
  H      4.637568    6.277139   -1.392109
  H      2.449465    5.800747   -0.724251
  H      2.975368    4.180181   -0.373804
  H      3.548815    5.555895    0.596199

 Multiplicity           Mult            ....    1
 Number of Electrons    NEL             ....   18
 Basis Dimension        Dim             ....  172

ORBITAL ENERGIES
----------------

  NO   OCC          E(Eh)            E(eV)
   0   2.0000     -19.233335      -523.3656
   1   2.0000     -10.313969      -280.6574
   2   2.0000      -1.140625       -31.0380
   3   2.0000      -0.796547       -21.6752
   4   2.0000      -0.616786       -16.7836
   5   2.0000      -0.536442       -14.5973
   6   2.0000      -0.530394       -14.4328
   7   2.0000      -0.435414       -11.8482
   8   2.0000      -0.373119       -10.1531
   9   0.0000       0.098401         2.6776
  10   0.0000       0.123644         3.3645
  11   0.0000       0.152367         4.1461
  12   0.0000       0.183684         4.9983
  13   0.0000       0.203080         5.5261

MULLIKEN ATOMIC CHARGES
-----------------------
   0 C :    0.003925
   1 O :    0.000279
   2 H :   -0.005873
   3 H :   -0.000141
   4 H :   -0.006409
   5 H :   -0.000242
   6 C :   -0.164078
   7 O :   -0.461055
   8 H :    0.315697
   9 H :    0.098193
  10 H :    0.121798
  11 H :    0.097905
Sum of atomic charges:   -0.0000000

LOEWDIN ATOMIC CHARGES
----------------------
   0 C :   -0.003340
   1 O :   -0.001005
   2 H :   -0.008825
   3 H :   -0.000015
   4 H :   -0.003923
   5 H :   -0.000027
   6 C :   -0.397576
   7 O :   -0.053925
   8 H :    0.170179
   9 H :    0.093943
  10 H :    0.110044
  11 H :    0.094469

  Mayer bond orders larger than 0.1
B(  6-C ,  7-O ) :   0.9970 B(  6-C ,  9-H ) :   0.9797 B(  6-C , 10-H ) :   0.9748
B(  6-C , 11-H ) :   0.9676 B(  7-O ,  8-H ) :   0.8957

Dispersion correction           -0.000248804
FINAL SINGLE POINT ENERGY      -115.735871386094

DIPOLE MOMENT
-------------
                                X             Y             Z
Electronic contribution:      1.43065       0.02426      -1.26521
Nuclear contribution   :     -1.65831       0.50266       1.64130
                        -----------------------------------------
Total Dipole Moment    :     -0.22766       0.52692       0.37608
                        -----------------------------------------
Magnitude (a.u.)       :      0.68623
Magnitude (Debye)      :      1.74425

Rotational constants in cm-1:     4.387021     0.831784     0.799196
Rotational constants in MHz : 131519.572039 24936.263509 23959.294601

                             ****ORCA TERMINATED NORMALLY****
TOTAL RUN TIME: 0 days 0 hours 1 minutes 8 seconds 815 msec
