                         Program Version 4.1.2  - RELEASE  -
|  1> #Run DFT-D3 single point of the dimer
|  2> ! wB97X-D3 def2-TZVP TIGHTSCF CHELPG PMODEL PAL8
|  3>
|  4> %base "20-28_DFT_AB"
|  5>
|  6> %scf
|  7> MaxIter 1000
|  8> end
|  9>
| 10> * xyz 0 1
| 11>   C                      -1.641794            5.307331             1.637861
| 12>   O                      -2.575965            4.229584             1.491744
| 13>   H                      -2.767324            3.875175             2.374490
| 14>   H                      -1.946451            5.984514             2.464272
| 15>   H                      -0.555480            5.066071             1.793109
| 16>   H                      -1.550788            5.846078             0.708489
| 17>   C                      -4.286633            7.826120             1.492004
| 18>   O                      -5.094304            8.659068             2.319935
| 19>   H                      -6.047964            8.445136             2.344196
| 20>   H                      -4.777304            7.440605             0.628035
| 21>   H                      -3.385954            8.291319             1.218376
| 22>   H                      -3.951033            6.945951             1.997395
| 23> *
| 24>
| 25> #Run DFT-D3 single point of the molecule with dimer basis set
| 26> $new_job
| 27> %base "20-28_DFT_A"
| 28> ! wB97X-D3 def2-TZVP TIGHTSCF CHELPG PMODEL
| 29>
| 30> %scf
| 31> MaxIter 1000
| 32> end
| 33>
| 34> * xyz 0 1
| 35>   C                      -1.641794            5.307331             1.637861
| 36>   O                      -2.575965            4.229584             1.491744
| 37>   H                      -2.767324            3.875175             2.374490
| 38>   H                      -1.946451            5.984514             2.464272
| 39>   H                      -0.555480            5.066071             1.793109
| 40>   H                      -1.550788            5.846078             0.708489
| 41>   C                    : -4.286633            7.826120             1.492004
| 42>   O                    : -5.094304            8.659068             2.319935
| 43>   H                    : -6.047964            8.445136             2.344196
| 44>   H                    : -4.777304            7.440605             0.628035
| 45>   H                    : -3.385954            8.291319             1.218376
| 46>   H                    : -3.951033            6.945951             1.997395
| 47> *
| 48>
| 49> #Run DFT-D3 single point of the particle with dimer basis set
| 50> $new_job
| 51> %base "20-28_DFT_B"
| 52> ! wB97X-D3 def2-TZVP TIGHTSCF CHELPG PMODEL
| 53>
| 54> %scf
| 55> MaxIter 1000
| 56> end
| 57>
| 58> * xyz 0 1
| 59>   C                    : -1.641794            5.307331             1.637861
| 60>   O                    : -2.575965            4.229584             1.491744
| 61>   H                    : -2.767324            3.875175             2.374490
| 62>   H                    : -1.946451            5.984514             2.464272
| 63>   H                    : -0.555480            5.066071             1.793109
| 64>   H                    : -1.550788            5.846078             0.708489
| 65>   C                      -4.286633            7.826120             1.492004
| 66>   O                      -5.094304            8.659068             2.319935
| 67>   H                      -6.047964            8.445136             2.344196
| 68>   H                      -4.777304            7.440605             0.628035
| 69>   H                      -3.385954            8.291319             1.218376
| 70>   H                      -3.951033            6.945951             1.997395
| 71> *
| 72>
| 73>                          ****END OF INPUT****
 Total Charge           Charge          ....    0
 Multiplicity           Mult            ....    1
 Number of Electrons    NEL             ....   36
Dispersion correction           -0.001793936
FINAL SINGLE POINT ENERGY      -231.463964334623
Dispersion correction           -0.000275766
FINAL SINGLE POINT ENERGY      -115.732504125570

CARTESIAN COORDINATES (ANGSTROEM)
---------------------------------
  C     -1.641794    5.307331    1.637861
  O     -2.575965    4.229584    1.491744
  H     -2.767324    3.875175    2.374490
  H     -1.946451    5.984514    2.464272
  H     -0.555480    5.066071    1.793109
  H     -1.550788    5.846078    0.708489
  C     -4.286633    7.826120    1.492004
  O     -5.094304    8.659068    2.319935
  H     -6.047964    8.445136    2.344196
  H     -4.777304    7.440605    0.628035
  H     -3.385954    8.291319    1.218376
  H     -3.951033    6.945951    1.997395

 Multiplicity           Mult            ....    1
 Number of Electrons    NEL             ....   18
 Basis Dimension        Dim             ....  172

ORBITAL ENERGIES
----------------

  NO   OCC          E(Eh)            E(eV)
   0   2.0000     -19.228934      -523.2459
   1   2.0000     -10.303181      -280.3638
   2   2.0000      -1.123374       -30.5686
   3   2.0000      -0.807376       -21.9698
   4   2.0000      -0.613465       -16.6932
   5   2.0000      -0.537081       -14.6147
   6   2.0000      -0.530810       -14.4441
   7   2.0000      -0.429616       -11.6904
   8   2.0000      -0.370631       -10.0854
   9   0.0000       0.084795         2.3074
  10   0.0000       0.115817         3.1515
  11   0.0000       0.152971         4.1625
  12   0.0000       0.165572         4.5054
  13   0.0000       0.184908         5.0316

MULLIKEN ATOMIC CHARGES
-----------------------
   0 C :   -0.004800
   1 O :    0.000407
   2 H :   -0.000069
   3 H :    0.001560
   4 H :   -0.000010
   5 H :    0.000754
   6 C :   -0.152015
   7 O :   -0.494260
   8 H :    0.321049
   9 H :    0.104991
  10 H :    0.120635
  11 H :    0.101758
Sum of atomic charges:   -0.0000000

LOEWDIN ATOMIC CHARGES
----------------------
   0 C :   -0.008943
   1 O :   -0.000527
   2 H :   -0.000254
   3 H :   -0.005074
   4 H :   -0.000084
   5 H :   -0.000541
   6 C :   -0.361504
   7 O :   -0.091576
   8 H :    0.177233
   9 H :    0.092566
  10 H :    0.101044
  11 H :    0.097660

  Mayer bond orders larger than 0.1
B(  6-C ,  7-O ) :   0.9993 B(  6-C ,  9-H ) :   0.9773 B(  6-C , 10-H ) :   0.9739
B(  6-C , 11-H ) :   0.9769 B(  7-O ,  8-H ) :   0.8895

Dispersion correction           -0.000266828
FINAL SINGLE POINT ENERGY      -115.730304503465

DIPOLE MOMENT
-------------
                                X             Y             Z
Electronic contribution:     -0.95294       1.20287       1.02334
Nuclear contribution   :      0.67487      -1.70333      -1.36491
                        -----------------------------------------
Total Dipole Moment    :     -0.27807      -0.50046      -0.34158
                        -----------------------------------------
Magnitude (a.u.)       :      0.66668
Magnitude (Debye)      :      1.69457

Rotational constants in cm-1:     4.717834     0.809509     0.777816
Rotational constants in MHz : 141437.105590 24268.470088 23318.340984

                             ****ORCA TERMINATED NORMALLY****
TOTAL RUN TIME: 0 days 0 hours 1 minutes 3 seconds 208 msec
