                         Program Version 4.1.2  - RELEASE  -
|  1> #Run DFT-D3 single point of the dimer
|  2> ! wB97X-D3 def2-TZVP TIGHTSCF CHELPG PMODEL PAL8
|  3>
|  4> %base "22-165_DFT_AB"
|  5>
|  6> %scf
|  7> MaxIter 1000
|  8> end
|  9>
| 10> * xyz 0 1
| 11>   C                      -6.372342            -1.014732            6.938762
| 12>   O                      -5.634204            -1.266209            8.100461
| 13>   H                      -5.812488            -2.188515            8.332082
| 14>   H                      -7.397570            -0.775769            7.160779
| 15>   H                      -5.957204            -0.257292            6.274746
| 16>   H                      -6.374269            -1.879775            6.204587
| 17>   C                      -5.704143            -4.582436            9.340201
| 18>   O                      -6.258970            -4.143728            8.110816
| 19>   H                      -6.607318            -4.873166            7.598088
| 20>   H                      -5.487212            -3.772024            10.044190
| 21>   H                      -6.435321            -5.206368            9.937870
| 22>   H                      -4.824860            -5.154785            9.351215
| 23> *
| 24>
| 25> #Run DFT-D3 single point of the molecule with dimer basis set
| 26> $new_job
| 27> %base "22-165_DFT_A"
| 28> ! wB97X-D3 def2-TZVP TIGHTSCF CHELPG PMODEL
| 29>
| 30> %scf
| 31> MaxIter 1000
| 32> end
| 33>
| 34> * xyz 0 1
| 35>   C                      -6.372342            -1.014732            6.938762
| 36>   O                      -5.634204            -1.266209            8.100461
| 37>   H                      -5.812488            -2.188515            8.332082
| 38>   H                      -7.397570            -0.775769            7.160779
| 39>   H                      -5.957204            -0.257292            6.274746
| 40>   H                      -6.374269            -1.879775            6.204587
| 41>   C                    : -5.704143            -4.582436            9.340201
| 42>   O                    : -6.258970            -4.143728            8.110816
| 43>   H                    : -6.607318            -4.873166            7.598088
| 44>   H                    : -5.487212            -3.772024            10.044190
| 45>   H                    : -6.435321            -5.206368            9.937870
| 46>   H                    : -4.824860            -5.154785            9.351215
| 47> *
| 48>
| 49> #Run DFT-D3 single point of the particle with dimer basis set
| 50> $new_job
| 51> %base "22-165_DFT_B"
| 52> ! wB97X-D3 def2-TZVP TIGHTSCF CHELPG PMODEL
| 53>
| 54> %scf
| 55> MaxIter 1000
| 56> end
| 57>
| 58> * xyz 0 1
| 59>   C                    : -6.372342            -1.014732            6.938762
| 60>   O                    : -5.634204            -1.266209            8.100461
| 61>   H                    : -5.812488            -2.188515            8.332082
| 62>   H                    : -7.397570            -0.775769            7.160779
| 63>   H                    : -5.957204            -0.257292            6.274746
| 64>   H                    : -6.374269            -1.879775            6.204587
| 65>   C                      -5.704143            -4.582436            9.340201
| 66>   O                      -6.258970            -4.143728            8.110816
| 67>   H                      -6.607318            -4.873166            7.598088
| 68>   H                      -5.487212            -3.772024            10.044190
| 69>   H                      -6.435321            -5.206368            9.937870
| 70>   H                      -4.824860            -5.154785            9.351215
| 71> *
| 72>
| 73>                          ****END OF INPUT****
 Total Charge           Charge          ....    0
 Multiplicity           Mult            ....    1
 Number of Electrons    NEL             ....   36
Dispersion correction           -0.001886039
FINAL SINGLE POINT ENERGY      -231.469687870584
Dispersion correction           -0.000244597
FINAL SINGLE POINT ENERGY      -115.732500270504

CARTESIAN COORDINATES (ANGSTROEM)
---------------------------------
  C     -6.372342   -1.014732    6.938762
  O     -5.634204   -1.266209    8.100461
  H     -5.812488   -2.188515    8.332082
  H     -7.397570   -0.775769    7.160779
  H     -5.957204   -0.257292    6.274746
  H     -6.374269   -1.879775    6.204587
  C     -5.704143   -4.582436    9.340201
  O     -6.258970   -4.143728    8.110816
  H     -6.607318   -4.873166    7.598088
  H     -5.487212   -3.772024   10.044190
  H     -6.435321   -5.206368    9.937870
  H     -4.824860   -5.154785    9.351215

 Multiplicity           Mult            ....    1
 Number of Electrons    NEL             ....   18
 Basis Dimension        Dim             ....  172

ORBITAL ENERGIES
----------------

  NO   OCC          E(Eh)            E(eV)
   0   2.0000     -19.235625      -523.4280
   1   2.0000     -10.313798      -280.6527
   2   2.0000      -1.135853       -30.9081
   3   2.0000      -0.803135       -21.8544
   4   2.0000      -0.618635       -16.8339
   5   2.0000      -0.535751       -14.5785
   6   2.0000      -0.528159       -14.3719
   7   2.0000      -0.429551       -11.6887
   8   2.0000      -0.377354       -10.2683
   9   0.0000       0.101258         2.7554
  10   0.0000       0.127015         3.4563
  11   0.0000       0.145238         3.9521
  12   0.0000       0.184803         5.0288
  13   0.0000       0.205709         5.5976

MULLIKEN ATOMIC CHARGES
-----------------------
   0 C :    0.005161
   1 O :   -0.000727
   2 H :   -0.002267
   3 H :   -0.001059
   4 H :   -0.000224
   5 H :   -0.005369
   6 C :   -0.174050
   7 O :   -0.469641
   8 H :    0.315918
   9 H :    0.122955
  10 H :    0.097197
  11 H :    0.112105
Sum of atomic charges:   -0.0000000

LOEWDIN ATOMIC CHARGES
----------------------
   0 C :   -0.007609
   1 O :   -0.003240
   2 H :   -0.026195
   3 H :   -0.000291
   4 H :   -0.000066
   5 H :   -0.003246
   6 C :   -0.383044
   7 O :   -0.042917
   8 H :    0.167983
   9 H :    0.112464
  10 H :    0.101813
  11 H :    0.084349

  Mayer bond orders larger than 0.1
B(  6-C ,  7-O ) :   1.0020 B(  6-C ,  9-H ) :   0.9773 B(  6-C , 10-H ) :   0.9812
B(  6-C , 11-H ) :   0.9650 B(  7-O ,  8-H ) :   0.8937

Dispersion correction           -0.000276247
FINAL SINGLE POINT ENERGY      -115.730344651785

DIPOLE MOMENT
-------------
                                X             Y             Z
Electronic contribution:     -0.58597       0.72343      -1.76919
Nuclear contribution   :      0.59442      -1.37337       1.94250
                        -----------------------------------------
Total Dipole Moment    :      0.00845      -0.64994       0.17330
                        -----------------------------------------
Magnitude (a.u.)       :      0.67270
Magnitude (Debye)      :      1.70988

Rotational constants in cm-1:     4.603162     0.805095     0.778420
Rotational constants in MHz : 137999.310145 24136.146802 23336.444868

                             ****ORCA TERMINATED NORMALLY****
TOTAL RUN TIME: 0 days 0 hours 1 minutes 9 seconds 371 msec
