                         Program Version 4.1.2  - RELEASE  -
|  1> #Run DFT-D3 single point of the dimer
|  2> ! wB97X-D3 def2-TZVP TIGHTSCF CHELPG PMODEL PAL8
|  3>
|  4> %base "5-25_DFT_AB"
|  5>
|  6> %scf
|  7> MaxIter 1000
|  8> end
|  9>
| 10> * xyz 0 1
| 11>   C                      2.739132             -3.942480            -1.008213
| 12>   O                      1.753076             -3.898102            -0.067553
| 13>   H                      2.322324             -4.076974            0.640020
| 14>   H                      3.466281             -4.735064            -0.636827
| 15>   H                      2.402265             -4.144417            -2.020121
| 16>   H                      3.256188             -3.012980            -0.955926
| 17>   C                      -1.049376            -6.741063            -1.692879
| 18>   O                      -1.129249            -7.289579            -2.969097
| 19>   H                      -0.229527            -7.260778            -3.337332
| 20>   H                      -1.107026            -5.652595            -1.728562
| 21>   H                      -1.851212            -7.119840            -1.114587
| 22>   H                      -0.121948            -7.036954            -1.131693
| 23> *
| 24>
| 25> #Run DFT-D3 single point of the molecule with dimer basis set
| 26> $new_job
| 27> %base "5-25_DFT_A"
| 28> ! wB97X-D3 def2-TZVP TIGHTSCF CHELPG PMODEL
| 29>
| 30> %scf
| 31> MaxIter 1000
| 32> end
| 33>
| 34> * xyz 0 1
| 35>   C                      2.739132             -3.942480            -1.008213
| 36>   O                      1.753076             -3.898102            -0.067553
| 37>   H                      2.322324             -4.076974            0.640020
| 38>   H                      3.466281             -4.735064            -0.636827
| 39>   H                      2.402265             -4.144417            -2.020121
| 40>   H                      3.256188             -3.012980            -0.955926
| 41>   C                    : -1.049376            -6.741063            -1.692879
| 42>   O                    : -1.129249            -7.289579            -2.969097
| 43>   H                    : -0.229527            -7.260778            -3.337332
| 44>   H                    : -1.107026            -5.652595            -1.728562
| 45>   H                    : -1.851212            -7.119840            -1.114587
| 46>   H                    : -0.121948            -7.036954            -1.131693
| 47> *
| 48>
| 49> #Run DFT-D3 single point of the particle with dimer basis set
| 50> $new_job
| 51> %base "5-25_DFT_B"
| 52> ! wB97X-D3 def2-TZVP TIGHTSCF CHELPG PMODEL
| 53>
| 54> %scf
| 55> MaxIter 1000
| 56> end
| 57>
| 58> * xyz 0 1
| 59>   C                    : 2.739132             -3.942480            -1.008213
| 60>   O                    : 1.753076             -3.898102            -0.067553
| 61>   H                    : 2.322324             -4.076974            0.640020
| 62>   H                    : 3.466281             -4.735064            -0.636827
| 63>   H                    : 2.402265             -4.144417            -2.020121
| 64>   H                    : 3.256188             -3.012980            -0.955926
| 65>   C                      -1.049376            -6.741063            -1.692879
| 66>   O                      -1.129249            -7.289579            -2.969097
| 67>   H                      -0.229527            -7.260778            -3.337332
| 68>   H                      -1.107026            -5.652595            -1.728562
| 69>   H                      -1.851212            -7.119840            -1.114587
| 70>   H                      -0.121948            -7.036954            -1.131693
| 71> *
| 72>
| 73>                          ****END OF INPUT****
 Total Charge           Charge          ....    0
 Multiplicity           Mult            ....    1
 Number of Electrons    NEL             ....   36
Dispersion correction           -0.000939537
FINAL SINGLE POINT ENERGY      -231.455794352137
Dispersion correction           -0.000170215
FINAL SINGLE POINT ENERGY      -115.719992901456

CARTESIAN COORDINATES (ANGSTROEM)
---------------------------------
  C      2.739132   -3.942480   -1.008213
  O      1.753076   -3.898102   -0.067553
  H      2.322324   -4.076974    0.640020
  H      3.466281   -4.735064   -0.636827
  H      2.402265   -4.144417   -2.020121
  H      3.256188   -3.012980   -0.955926
  C     -1.049376   -6.741063   -1.692879
  O     -1.129249   -7.289579   -2.969097
  H     -0.229527   -7.260778   -3.337332
  H     -1.107026   -5.652595   -1.728562
  H     -1.851212   -7.119840   -1.114587
  H     -0.121948   -7.036954   -1.131693

 Multiplicity           Mult            ....    1
 Number of Electrons    NEL             ....   18
 Basis Dimension        Dim             ....  172

ORBITAL ENERGIES
----------------

  NO   OCC          E(Eh)            E(eV)
   0   2.0000     -19.231455      -523.3145
   1   2.0000     -10.309280      -280.5298
   2   2.0000      -1.142145       -31.0793
   3   2.0000      -0.793845       -21.6016
   4   2.0000      -0.612227       -16.6595
   5   2.0000      -0.547261       -14.8917
   6   2.0000      -0.528641       -14.3850
   7   2.0000      -0.432974       -11.7818
   8   2.0000      -0.373126       -10.1533
   9   0.0000       0.078037         2.1235
  10   0.0000       0.114567         3.1175
  11   0.0000       0.150389         4.0923
  12   0.0000       0.168583         4.5874
  13   0.0000       0.183474         4.9926

MULLIKEN ATOMIC CHARGES
-----------------------
   0 C :   -0.000465
   1 O :    0.000058
   2 H :   -0.000022
   3 H :   -0.000010
   4 H :    0.000208
   5 H :    0.000012
   6 C :   -0.165995
   7 O :   -0.469772
   8 H :    0.317891
   9 H :    0.099842
  10 H :    0.120752
  11 H :    0.097502
Sum of atomic charges:   -0.0000000

LOEWDIN ATOMIC CHARGES
----------------------
   0 C :   -0.000323
   1 O :   -0.000181
   2 H :   -0.000029
   3 H :   -0.000018
   4 H :   -0.000051
   5 H :   -0.000003
   6 C :   -0.404767
   7 O :   -0.065996
   8 H :    0.179441
   9 H :    0.092900
  10 H :    0.099484
  11 H :    0.099542

  Mayer bond orders larger than 0.1
B(  6-C ,  7-O ) :   1.0060 B(  6-C ,  9-H ) :   0.9751 B(  6-C , 10-H ) :   0.9744
B(  6-C , 11-H ) :   0.9795 B(  7-O ,  8-H ) :   0.8975

Dispersion correction           -0.000231423
FINAL SINGLE POINT ENERGY      -115.735027531038

DIPOLE MOMENT
-------------
                                X             Y             Z
Electronic contribution:     -0.29180      -0.73173      -1.68015
Nuclear contribution   :      0.87676       0.93692       1.93874
                        -----------------------------------------
Total Dipole Moment    :      0.58496       0.20519       0.25860
                        -----------------------------------------
Magnitude (a.u.)       :      0.67168
Magnitude (Debye)      :      1.70727

Rotational constants in cm-1:     4.283413     0.852948     0.824808
Rotational constants in MHz : 128413.500021 25570.734384 24727.117719

                             ****ORCA TERMINATED NORMALLY****
TOTAL RUN TIME: 0 days 0 hours 0 minutes 57 seconds 704 msec
