                         Program Version 4.1.2  - RELEASE  -
|  1> #Run DFT-D3 single point of the dimer
|  2> ! wB97X-D3 def2-TZVP TIGHTSCF CHELPG PMODEL PAL8
|  3>
|  4> %base "7-102_DFT_AB"
|  5>
|  6> %scf
|  7> MaxIter 1000
|  8> end
|  9>
| 10> * xyz 0 1
| 11>   C                      9.977652             -2.198286            -7.359169
| 12>   O                      11.412398            -2.219645            -7.354476
| 13>   H                      11.773627            -1.911416            -6.524812
| 14>   H                      9.486885             -2.938841            -6.747138
| 15>   H                      9.553607             -1.262547            -7.091710
| 16>   H                      9.519030             -2.212074            -8.322583
| 17>   C                      7.325331             2.009467             -5.670389
| 18>   O                      8.123914             3.177363             -5.456329
| 19>   H                      8.504712             3.416685             -6.307594
| 20>   H                      7.783440             1.398973             -6.538827
| 21>   H                      7.272963             1.471149             -4.685019
| 22>   H                      6.357954             2.178051             -6.023412
| 23> *
| 24>
| 25> #Run DFT-D3 single point of the molecule with dimer basis set
| 26> $new_job
| 27> %base "7-102_DFT_A"
| 28> ! wB97X-D3 def2-TZVP TIGHTSCF CHELPG PMODEL
| 29>
| 30> %scf
| 31> MaxIter 1000
| 32> end
| 33>
| 34> * xyz 0 1
| 35>   C                      9.977652             -2.198286            -7.359169
| 36>   O                      11.412398            -2.219645            -7.354476
| 37>   H                      11.773627            -1.911416            -6.524812
| 38>   H                      9.486885             -2.938841            -6.747138
| 39>   H                      9.553607             -1.262547            -7.091710
| 40>   H                      9.519030             -2.212074            -8.322583
| 41>   C                    : 7.325331             2.009467             -5.670389
| 42>   O                    : 8.123914             3.177363             -5.456329
| 43>   H                    : 8.504712             3.416685             -6.307594
| 44>   H                    : 7.783440             1.398973             -6.538827
| 45>   H                    : 7.272963             1.471149             -4.685019
| 46>   H                    : 6.357954             2.178051             -6.023412
| 47> *
| 48>
| 49> #Run DFT-D3 single point of the particle with dimer basis set
| 50> $new_job
| 51> %base "7-102_DFT_B"
| 52> ! wB97X-D3 def2-TZVP TIGHTSCF CHELPG PMODEL
| 53>
| 54> %scf
| 55> MaxIter 1000
| 56> end
| 57>
| 58> * xyz 0 1
| 59>   C                    : 9.977652             -2.198286            -7.359169
| 60>   O                    : 11.412398            -2.219645            -7.354476
| 61>   H                    : 11.773627            -1.911416            -6.524812
| 62>   H                    : 9.486885             -2.938841            -6.747138
| 63>   H                    : 9.553607             -1.262547            -7.091710
| 64>   H                    : 9.519030             -2.212074            -8.322583
| 65>   C                      7.325331             2.009467             -5.670389
| 66>   O                      8.123914             3.177363             -5.456329
| 67>   H                      8.504712             3.416685             -6.307594
| 68>   H                      7.783440             1.398973             -6.538827
| 69>   H                      7.272963             1.471149             -4.685019
| 70>   H                      6.357954             2.178051             -6.023412
| 71> *
| 72>
| 73>                          ****END OF INPUT****
 Total Charge           Charge          ....    0
 Multiplicity           Mult            ....    1
 Number of Electrons    NEL             ....   36
Dispersion correction           -0.000812038
FINAL SINGLE POINT ENERGY      -231.456985636091
Dispersion correction           -0.000275830
FINAL SINGLE POINT ENERGY      -115.727470247818

CARTESIAN COORDINATES (ANGSTROEM)
---------------------------------
  C      9.977652   -2.198286   -7.359169
  O     11.412398   -2.219645   -7.354476
  H     11.773627   -1.911416   -6.524812
  H      9.486885   -2.938841   -6.747138
  H      9.553607   -1.262547   -7.091710
  H      9.519030   -2.212074   -8.322583
  C      7.325331    2.009467   -5.670389
  O      8.123914    3.177363   -5.456329
  H      8.504712    3.416685   -6.307594
  H      7.783440    1.398973   -6.538827
  H      7.272963    1.471149   -4.685019
  H      6.357954    2.178051   -6.023412

 Multiplicity           Mult            ....    1
 Number of Electrons    NEL             ....   18
 Basis Dimension        Dim             ....  172

ORBITAL ENERGIES
----------------

  NO   OCC          E(Eh)            E(eV)
   0   2.0000     -19.230749      -523.2953
   1   2.0000     -10.319533      -280.8088
   2   2.0000      -1.131521       -30.7903
   3   2.0000      -0.793469       -21.5914
   4   2.0000      -0.611688       -16.6449
   5   2.0000      -0.533715       -14.5231
   6   2.0000      -0.523355       -14.2412
   7   2.0000      -0.437234       -11.8977
   8   2.0000      -0.372469       -10.1354
   9   0.0000       0.083184         2.2635
  10   0.0000       0.111634         3.0377
  11   0.0000       0.148166         4.0318
  12   0.0000       0.164516         4.4767
  13   0.0000       0.183747         5.0000

MULLIKEN ATOMIC CHARGES
-----------------------
   0 C :   -0.000052
   1 O :   -0.000004
   2 H :   -0.000003
   3 H :   -0.000009
   4 H :   -0.000087
   5 H :   -0.000012
   6 C :   -0.172192
   7 O :   -0.471731
   8 H :    0.314407
   9 H :    0.096091
  10 H :    0.122551
  11 H :    0.111042
Sum of atomic charges:    0.0000000

LOEWDIN ATOMIC CHARGES
----------------------
   0 C :   -0.000186
   1 O :   -0.000002
   2 H :   -0.000000
   3 H :   -0.000003
   4 H :   -0.000728
   5 H :   -0.000008
   6 C :   -0.376468
   7 O :   -0.092465
   8 H :    0.168554
   9 H :    0.105917
  10 H :    0.115291
  11 H :    0.080098

  Mayer bond orders larger than 0.1
B(  6-C ,  7-O ) :   1.0021 B(  6-C ,  9-H ) :   0.9871 B(  6-C , 10-H ) :   0.9759
B(  6-C , 11-H ) :   0.9615 B(  7-O ,  8-H ) :   0.9007

Dispersion correction           -0.000248396
FINAL SINGLE POINT ENERGY      -115.729182557745

DIPOLE MOMENT
-------------
                                X             Y             Z
Electronic contribution:      0.88520       1.53504       0.48529
Nuclear contribution   :     -0.98411      -1.82974      -1.11532
                        -----------------------------------------
Total Dipole Moment    :     -0.09892      -0.29470      -0.63003
                        -----------------------------------------
Magnitude (a.u.)       :      0.70254
Magnitude (Debye)      :      1.78572

Rotational constants in cm-1:     4.158629     0.825798     0.777447
Rotational constants in MHz : 124672.563100 24756.804881 23307.276926

                             ****ORCA TERMINATED NORMALLY****
TOTAL RUN TIME: 0 days 0 hours 1 minutes 4 seconds 800 msec
