                         Program Version 4.1.2  - RELEASE  -
|  1> #Run DFT-D3 single point of the dimer
|  2> ! wB97X-D3 def2-TZVP TIGHTSCF CHELPG PMODEL PAL8
|  3>
|  4> %base "2-88_DFT_AB"
|  5>
|  6> %scf
|  7> MaxIter 1000
|  8> end
|  9>
| 10> * xyz 0 1
| 11>   C                      5.076919             -10.100200           -4.491884
| 12>   O                      4.875564             -8.751591            -4.271763
| 13>   H                      5.776038             -8.429535            -4.025102
| 14>   H                      4.079127             -10.597135           -4.605720
| 15>   H                      5.674618             -10.291725           -5.409982
| 16>   H                      5.579315             -10.598143           -3.609433
| 17>   C                      4.859800             -5.892297            -4.253619
| 18>   O                      4.321151             -4.666534            -4.741819
| 19>   H                      4.981520             -3.996794            -4.816819
| 20>   H                      5.316835             -5.818093            -3.271815
| 21>   H                      4.069458             -6.661182            -4.133229
| 22>   H                      5.564534             -6.266359            -4.983089
| 23> *
| 24>
| 25> #Run DFT-D3 single point of the molecule with dimer basis set
| 26> $new_job
| 27> %base "2-88_DFT_A"
| 28> ! wB97X-D3 def2-TZVP TIGHTSCF CHELPG PMODEL
| 29>
| 30> %scf
| 31> MaxIter 1000
| 32> end
| 33>
| 34> * xyz 0 1
| 35>   C                      5.076919             -10.100200           -4.491884
| 36>   O                      4.875564             -8.751591            -4.271763
| 37>   H                      5.776038             -8.429535            -4.025102
| 38>   H                      4.079127             -10.597135           -4.605720
| 39>   H                      5.674618             -10.291725           -5.409982
| 40>   H                      5.579315             -10.598143           -3.609433
| 41>   C                    : 4.859800             -5.892297            -4.253619
| 42>   O                    : 4.321151             -4.666534            -4.741819
| 43>   H                    : 4.981520             -3.996794            -4.816819
| 44>   H                    : 5.316835             -5.818093            -3.271815
| 45>   H                    : 4.069458             -6.661182            -4.133229
| 46>   H                    : 5.564534             -6.266359            -4.983089
| 47> *
| 48>
| 49> #Run DFT-D3 single point of the particle with dimer basis set
| 50> $new_job
| 51> %base "2-88_DFT_B"
| 52> ! wB97X-D3 def2-TZVP TIGHTSCF CHELPG PMODEL
| 53>
| 54> %scf
| 55> MaxIter 1000
| 56> end
| 57>
| 58> * xyz 0 1
| 59>   C                    : 5.076919             -10.100200           -4.491884
| 60>   O                    : 4.875564             -8.751591            -4.271763
| 61>   H                    : 5.776038             -8.429535            -4.025102
| 62>   H                    : 4.079127             -10.597135           -4.605720
| 63>   H                    : 5.674618             -10.291725           -5.409982
| 64>   H                    : 5.579315             -10.598143           -3.609433
| 65>   C                      4.859800             -5.892297            -4.253619
| 66>   O                      4.321151             -4.666534            -4.741819
| 67>   H                      4.981520             -3.996794            -4.816819
| 68>   H                      5.316835             -5.818093            -3.271815
| 69>   H                      4.069458             -6.661182            -4.133229
| 70>   H                      5.564534             -6.266359            -4.983089
| 71> *
| 72>
| 73>                          ****END OF INPUT****
 Total Charge           Charge          ....    0
 Multiplicity           Mult            ....    1
 Number of Electrons    NEL             ....   36
Dispersion correction           -0.001568530
FINAL SINGLE POINT ENERGY      -231.467549955458
Dispersion correction           -0.000225950
FINAL SINGLE POINT ENERGY      -115.734167484594

CARTESIAN COORDINATES (ANGSTROEM)
---------------------------------
  C      5.076919  -10.100200   -4.491884
  O      4.875564   -8.751591   -4.271763
  H      5.776038   -8.429535   -4.025102
  H      4.079127  -10.597135   -4.605720
  H      5.674618  -10.291725   -5.409982
  H      5.579315  -10.598143   -3.609433
  C      4.859800   -5.892297   -4.253619
  O      4.321151   -4.666534   -4.741819
  H      4.981520   -3.996794   -4.816819
  H      5.316835   -5.818093   -3.271815
  H      4.069458   -6.661182   -4.133229
  H      5.564534   -6.266359   -4.983089

 Multiplicity           Mult            ....    1
 Number of Electrons    NEL             ....   18
 Basis Dimension        Dim             ....  172

ORBITAL ENERGIES
----------------

  NO   OCC          E(Eh)            E(eV)
   0   2.0000     -19.226603      -523.1825
   1   2.0000     -10.313505      -280.6447
   2   2.0000      -1.132923       -30.8284
   3   2.0000      -0.799598       -21.7582
   4   2.0000      -0.609896       -16.5961
   5   2.0000      -0.546240       -14.8639
   6   2.0000      -0.525055       -14.2875
   7   2.0000      -0.427028       -11.6200
   8   2.0000      -0.375135       -10.2079
   9   0.0000       0.083825         2.2810
  10   0.0000       0.119733         3.2581
  11   0.0000       0.146482         3.9860
  12   0.0000       0.176184         4.7942
  13   0.0000       0.189616         5.1597

MULLIKEN ATOMIC CHARGES
-----------------------
   0 C :   -0.001150
   1 O :   -0.001684
   2 H :    0.000446
   3 H :   -0.000007
   4 H :   -0.000066
   5 H :    0.000035
   6 C :   -0.157755
   7 O :   -0.482291
   8 H :    0.313448
   9 H :    0.104265
  10 H :    0.119533
  11 H :    0.105226
Sum of atomic charges:   -0.0000000

LOEWDIN ATOMIC CHARGES
----------------------
   0 C :   -0.000965
   1 O :   -0.016351
   2 H :   -0.005886
   3 H :   -0.000042
   4 H :   -0.000039
   5 H :   -0.000020
   6 C :   -0.366047
   7 O :   -0.077431
   8 H :    0.155478
   9 H :    0.094278
  10 H :    0.119968
  11 H :    0.097057

  Mayer bond orders larger than 0.1
B(  6-C ,  7-O ) :   0.9993 B(  6-C ,  9-H ) :   0.9699 B(  6-C , 10-H ) :   0.9705
B(  6-C , 11-H ) :   0.9806 B(  7-O ,  8-H ) :   0.8999

Dispersion correction           -0.000251369
FINAL SINGLE POINT ENERGY      -115.735161466294

DIPOLE MOMENT
-------------
                                X             Y             Z
Electronic contribution:     -0.76126       1.53515      -0.59859
Nuclear contribution   :      1.40953      -1.61007       0.75504
                        -----------------------------------------
Total Dipole Moment    :      0.64827      -0.07492       0.15645
                        -----------------------------------------
Magnitude (a.u.)       :      0.67107
Magnitude (Debye)      :      1.70573

Rotational constants in cm-1:     4.418474     0.812684     0.789561
Rotational constants in MHz : 132462.518504 24363.645264 23670.454667

                             ****ORCA TERMINATED NORMALLY****
TOTAL RUN TIME: 0 days 0 hours 6 minutes 24 seconds 757 msec
