                         Program Version 4.1.2  - RELEASE  -
|  1> #Run DFT-D3 single point of the dimer
|  2> ! wB97X-D3 def2-TZVP TIGHTSCF CHELPG PMODEL PAL8
|  3>
|  4> %base "7-127_DFT_AB"
|  5>
|  6> %scf
|  7> MaxIter 1000
|  8> end
|  9>
| 10> * xyz 0 1
| 11>   C                      -4.463582            -1.354472            0.559463
| 12>   O                      -5.340438            -2.213762            -0.128602
| 13>   H                      -6.211150            -1.951602            -0.000589
| 14>   H                      -4.627158            -1.465617            1.596524
| 15>   H                      -3.468846            -1.728514            0.454134
| 16>   H                      -4.436178            -0.307758            0.291256
| 17>   C                      -7.453673            0.976965             -3.183366
| 18>   O                      -6.451320            0.013297             -2.656674
| 19>   H                      -6.002456            0.400927             -1.913924
| 20>   H                      -8.187112            1.278718             -2.413254
| 21>   H                      -6.985537            1.868707             -3.547055
| 22>   H                      -8.053818            0.574105             -4.026436
| 23> *
| 24>
| 25> #Run DFT-D3 single point of the molecule with dimer basis set
| 26> $new_job
| 27> %base "7-127_DFT_A"
| 28> ! wB97X-D3 def2-TZVP TIGHTSCF CHELPG PMODEL
| 29>
| 30> %scf
| 31> MaxIter 1000
| 32> end
| 33>
| 34> * xyz 0 1
| 35>   C                      -4.463582            -1.354472            0.559463
| 36>   O                      -5.340438            -2.213762            -0.128602
| 37>   H                      -6.211150            -1.951602            -0.000589
| 38>   H                      -4.627158            -1.465617            1.596524
| 39>   H                      -3.468846            -1.728514            0.454134
| 40>   H                      -4.436178            -0.307758            0.291256
| 41>   C                    : -7.453673            0.976965             -3.183366
| 42>   O                    : -6.451320            0.013297             -2.656674
| 43>   H                    : -6.002456            0.400927             -1.913924
| 44>   H                    : -8.187112            1.278718             -2.413254
| 45>   H                    : -6.985537            1.868707             -3.547055
| 46>   H                    : -8.053818            0.574105             -4.026436
| 47> *
| 48>
| 49> #Run DFT-D3 single point of the particle with dimer basis set
| 50> $new_job
| 51> %base "7-127_DFT_B"
| 52> ! wB97X-D3 def2-TZVP TIGHTSCF CHELPG PMODEL
| 53>
| 54> %scf
| 55> MaxIter 1000
| 56> end
| 57>
| 58> * xyz 0 1
| 59>   C                    : -4.463582            -1.354472            0.559463
| 60>   O                    : -5.340438            -2.213762            -0.128602
| 61>   H                    : -6.211150            -1.951602            -0.000589
| 62>   H                    : -4.627158            -1.465617            1.596524
| 63>   H                    : -3.468846            -1.728514            0.454134
| 64>   H                    : -4.436178            -0.307758            0.291256
| 65>   C                      -7.453673            0.976965             -3.183366
| 66>   O                      -6.451320            0.013297             -2.656674
| 67>   H                      -6.002456            0.400927             -1.913924
| 68>   H                      -8.187112            1.278718             -2.413254
| 69>   H                      -6.985537            1.868707             -3.547055
| 70>   H                      -8.053818            0.574105             -4.026436
| 71> *
| 72>
| 73>                          ****END OF INPUT****
 Total Charge           Charge          ....    0
 Multiplicity           Mult            ....    1
 Number of Electrons    NEL             ....   36
Dispersion correction           -0.001386069
FINAL SINGLE POINT ENERGY      -231.463204929189
Dispersion correction           -0.000239403
FINAL SINGLE POINT ENERGY      -115.731848841823

CARTESIAN COORDINATES (ANGSTROEM)
---------------------------------
  C     -4.463582   -1.354472    0.559463
  O     -5.340438   -2.213762   -0.128602
  H     -6.211150   -1.951602   -0.000589
  H     -4.627158   -1.465617    1.596524
  H     -3.468846   -1.728514    0.454134
  H     -4.436178   -0.307758    0.291256
  C     -7.453673    0.976965   -3.183366
  O     -6.451320    0.013297   -2.656674
  H     -6.002456    0.400927   -1.913924
  H     -8.187112    1.278718   -2.413254
  H     -6.985537    1.868707   -3.547055
  H     -8.053818    0.574105   -4.026436

 Multiplicity           Mult            ....    1
 Number of Electrons    NEL             ....   18
 Basis Dimension        Dim             ....  172

ORBITAL ENERGIES
----------------

  NO   OCC          E(Eh)            E(eV)
   0   2.0000     -19.230315      -523.2835
   1   2.0000     -10.321125      -280.8521
   2   2.0000      -1.117170       -30.3997
   3   2.0000      -0.800978       -21.7957
   4   2.0000      -0.599596       -16.3158
   5   2.0000      -0.535190       -14.5633
   6   2.0000      -0.520879       -14.1738
   7   2.0000      -0.435406       -11.8480
   8   2.0000      -0.377664       -10.2768
   9   0.0000       0.081206         2.2097
  10   0.0000       0.127752         3.4763
  11   0.0000       0.145440         3.9576
  12   0.0000       0.171735         4.6731
  13   0.0000       0.197267         5.3679

MULLIKEN ATOMIC CHARGES
-----------------------
   0 C :   -0.000261
   1 O :   -0.000005
   2 H :   -0.002778
   3 H :    0.000043
   4 H :   -0.000008
   5 H :   -0.000282
   6 C :   -0.181640
   7 O :   -0.485835
   8 H :    0.314508
   9 H :    0.112634
  10 H :    0.115476
  11 H :    0.128147
Sum of atomic charges:   -0.0000000

LOEWDIN ATOMIC CHARGES
----------------------
   0 C :   -0.001256
   1 O :   -0.000924
   2 H :   -0.002372
   3 H :   -0.000007
   4 H :   -0.000012
   5 H :   -0.000773
   6 C :   -0.336366
   7 O :   -0.119465
   8 H :    0.156888
   9 H :    0.099273
  10 H :    0.091308
  11 H :    0.113705

  Mayer bond orders larger than 0.1
B(  6-C ,  7-O ) :   0.9885 B(  6-C ,  9-H ) :   0.9736 B(  6-C , 10-H ) :   0.9743
B(  6-C , 11-H ) :   0.9717 B(  7-O ,  8-H ) :   0.9006

Dispersion correction           -0.000284163
FINAL SINGLE POINT ENERGY      -115.731763437724

DIPOLE MOMENT
-------------
                                X             Y             Z
Electronic contribution:      1.22833      -1.28566       0.52543
Nuclear contribution   :     -1.39063       1.97446      -0.30040
                        -----------------------------------------
Total Dipole Moment    :     -0.16230       0.68880       0.22503
                        -----------------------------------------
Magnitude (a.u.)       :      0.74258
Magnitude (Debye)      :      1.88748

Rotational constants in cm-1:     4.394521     0.756791     0.732464
Rotational constants in MHz : 131744.414245 22688.028741 21958.726584

                             ****ORCA TERMINATED NORMALLY****
TOTAL RUN TIME: 0 days 0 hours 0 minutes 58 seconds 998 msec
