                         Program Version 4.1.2  - RELEASE  -
|  1> #Run DFT-D3 single point of the dimer
|  2> ! wB97X-D3 def2-TZVP TIGHTSCF CHELPG PMODEL PAL8
|  3>
|  4> %base "16-20_DFT_AB"
|  5>
|  6> %scf
|  7> MaxIter 1000
|  8> end
|  9>
| 10> * xyz 0 1
| 11>   C                      4.271779             4.712240             5.343485
| 12>   O                      4.861457             5.690898             4.454410
| 13>   H                      4.587557             5.662843             3.570705
| 14>   H                      4.713760             3.664029             5.121006
| 15>   H                      4.705710             4.923602             6.335144
| 16>   H                      3.190266             4.808637             5.377588
| 17>   C                      1.445543             6.271822             7.864828
| 18>   O                      0.619448             5.105705             7.883585
| 19>   H                      1.042122             4.627553             8.589441
| 20>   H                      1.205711             6.888363             8.726111
| 21>   H                      2.581618             6.086424             7.823544
| 22>   H                      1.035779             6.923905             7.011461
| 23> *
| 24>
| 25> #Run DFT-D3 single point of the molecule with dimer basis set
| 26> $new_job
| 27> %base "16-20_DFT_A"
| 28> ! wB97X-D3 def2-TZVP TIGHTSCF CHELPG PMODEL
| 29>
| 30> %scf
| 31> MaxIter 1000
| 32> end
| 33>
| 34> * xyz 0 1
| 35>   C                      4.271779             4.712240             5.343485
| 36>   O                      4.861457             5.690898             4.454410
| 37>   H                      4.587557             5.662843             3.570705
| 38>   H                      4.713760             3.664029             5.121006
| 39>   H                      4.705710             4.923602             6.335144
| 40>   H                      3.190266             4.808637             5.377588
| 41>   C                    : 1.445543             6.271822             7.864828
| 42>   O                    : 0.619448             5.105705             7.883585
| 43>   H                    : 1.042122             4.627553             8.589441
| 44>   H                    : 1.205711             6.888363             8.726111
| 45>   H                    : 2.581618             6.086424             7.823544
| 46>   H                    : 1.035779             6.923905             7.011461
| 47> *
| 48>
| 49> #Run DFT-D3 single point of the particle with dimer basis set
| 50> $new_job
| 51> %base "16-20_DFT_B"
| 52> ! wB97X-D3 def2-TZVP TIGHTSCF CHELPG PMODEL
| 53>
| 54> %scf
| 55> MaxIter 1000
| 56> end
| 57>
| 58> * xyz 0 1
| 59>   C                    : 4.271779             4.712240             5.343485
| 60>   O                    : 4.861457             5.690898             4.454410
| 61>   H                    : 4.587557             5.662843             3.570705
| 62>   H                    : 4.713760             3.664029             5.121006
| 63>   H                    : 4.705710             4.923602             6.335144
| 64>   H                    : 3.190266             4.808637             5.377588
| 65>   C                      1.445543             6.271822             7.864828
| 66>   O                      0.619448             5.105705             7.883585
| 67>   H                      1.042122             4.627553             8.589441
| 68>   H                      1.205711             6.888363             8.726111
| 69>   H                      2.581618             6.086424             7.823544
| 70>   H                      1.035779             6.923905             7.011461
| 71> *
| 72>
| 73>                          ****END OF INPUT****
 Total Charge           Charge          ....    0
 Multiplicity           Mult            ....    1
 Number of Electrons    NEL             ....   36
Dispersion correction           -0.001403420
FINAL SINGLE POINT ENERGY      -231.458584522228
Dispersion correction           -0.000280228
FINAL SINGLE POINT ENERGY      -115.729131786808

CARTESIAN COORDINATES (ANGSTROEM)
---------------------------------
  C      4.271779    4.712240    5.343485
  O      4.861457    5.690898    4.454410
  H      4.587557    5.662843    3.570705
  H      4.713760    3.664029    5.121006
  H      4.705710    4.923602    6.335144
  H      3.190266    4.808637    5.377588
  C      1.445543    6.271822    7.864828
  O      0.619448    5.105705    7.883585
  H      1.042122    4.627553    8.589441
  H      1.205711    6.888363    8.726111
  H      2.581618    6.086424    7.823544
  H      1.035779    6.923905    7.011461

 Multiplicity           Mult            ....    1
 Number of Electrons    NEL             ....   18
 Basis Dimension        Dim             ....  172

ORBITAL ENERGIES
----------------

  NO   OCC          E(Eh)            E(eV)
   0   2.0000     -19.233985      -523.3834
   1   2.0000     -10.325058      -280.9591
   2   2.0000      -1.140975       -31.0475
   3   2.0000      -0.785664       -21.3790
   4   2.0000      -0.607670       -16.5355
   5   2.0000      -0.540652       -14.7119
   6   2.0000      -0.515019       -14.0144
   7   2.0000      -0.442467       -12.0401
   8   2.0000      -0.375293       -10.2122
   9   0.0000       0.085065         2.3147
  10   0.0000       0.117404         3.1947
  11   0.0000       0.151051         4.1103
  12   0.0000       0.162731         4.4281
  13   0.0000       0.186678         5.0798

MULLIKEN ATOMIC CHARGES
-----------------------
   0 C :   -0.000882
   1 O :    0.000132
   2 H :    0.000022
   3 H :    0.000057
   4 H :   -0.000464
   5 H :    0.001305
   6 C :   -0.206089
   7 O :   -0.455893
   8 H :    0.310737
   9 H :    0.119480
  10 H :    0.111421
  11 H :    0.120174
Sum of atomic charges:   -0.0000000

LOEWDIN ATOMIC CHARGES
----------------------
   0 C :   -0.002589
   1 O :   -0.000009
   2 H :   -0.000002
   3 H :   -0.000015
   4 H :   -0.001208
   5 H :   -0.001093
   6 C :   -0.398109
   7 O :   -0.081842
   8 H :    0.165069
   9 H :    0.092513
  10 H :    0.106676
  11 H :    0.120611

  Mayer bond orders larger than 0.1
B(  6-C ,  7-O ) :   0.9895 B(  6-C ,  9-H ) :   0.9726 B(  6-C , 10-H ) :   0.9639
B(  6-C , 11-H ) :   0.9757 B(  7-O ,  8-H ) :   0.9069

Dispersion correction           -0.000241858
FINAL SINGLE POINT ENERGY      -115.728217528151

DIPOLE MOMENT
-------------
                                X             Y             Z
Electronic contribution:     -1.06346      -1.55553      -0.08510
Nuclear contribution   :      1.60988       1.71655       0.53158
                        -----------------------------------------
Total Dipole Moment    :      0.54642       0.16102       0.44648
                        -----------------------------------------
Magnitude (a.u.)       :      0.72377
Magnitude (Debye)      :      1.83968

Rotational constants in cm-1:     4.009011     0.827013     0.786506
Rotational constants in MHz : 120187.134026 24793.225504 23578.849549

                             ****ORCA TERMINATED NORMALLY****
TOTAL RUN TIME: 0 days 0 hours 0 minutes 53 seconds 886 msec
