                         Program Version 4.1.2  - RELEASE  -
|  1> #Run DFT-D3 single point of the dimer
|  2> ! wB97X-D3 def2-TZVP TIGHTSCF  CHELPG PAL8
|  3>
|  4> %base "53_charges"
|  5>
|  6> %scf
|  7> MaxIter 1000
|  8> end
|  9> %output
| 10>   Print[ P_Mayer ] 1
| 11>   Print[ P_NatPop ] 1
| 12>   Print[ P_Hirshfeld ] 1
| 13>   Print[ P_Mulliken ] 1
| 14>   Print [ P_Loewdin ] 1
| 15> end
| 16>
| 17> * xyz 0 1
| 18>   C                      -9.789892            3.086670             2.979946
| 19>   O                      -9.978692            1.799057             2.662243
| 20>   H                      -10.905751           1.652061             2.752737
| 21>   H                      -9.634860            3.228848             3.985037
| 22>   H                      -8.857139            3.486100             2.651155
| 23>   H                      -10.609717           3.782684             2.693717
| 24> *
| 25>
| 26>                          ****END OF INPUT****

CARTESIAN COORDINATES (ANGSTROEM)
---------------------------------
  C     -9.789892    3.086670    2.979946
  O     -9.978692    1.799057    2.662243
  H    -10.905751    1.652061    2.752737
  H     -9.634860    3.228848    3.985037
  H     -8.857139    3.486100    2.651155
  H    -10.609717    3.782684    2.693717

 Total Charge           Charge          ....    0
 Multiplicity           Mult            ....    1
 Number of Electrons    NEL             ....   18
 Basis Dimension        Dim             ....   86

ORBITAL ENERGIES
----------------

  NO   OCC          E(Eh)            E(eV)
   0   2.0000     -19.231172      -523.3068
   1   2.0000     -10.297204      -280.2012
   2   2.0000      -1.167259       -31.7627
   3   2.0000      -0.803186       -21.8558
   4   2.0000      -0.630161       -17.1476
   5   2.0000      -0.554488       -15.0884
   6   2.0000      -0.539934       -14.6924
   7   2.0000      -0.434127       -11.8132
   8   2.0000      -0.368379       -10.0241
   9   0.0000       0.116728         3.1763
  10   0.0000       0.159295         4.3346
  11   0.0000       0.203871         5.5476
  12   0.0000       0.220168         5.9911
  13   0.0000       0.237305         6.4574

MULLIKEN ATOMIC CHARGES
-----------------------
   0 C :   -0.158575
   1 O :   -0.448947
   2 H :    0.317460
   3 H :    0.095880
   4 H :    0.102415
   5 H :    0.091767
Sum of atomic charges:    0.0000000

LOEWDIN ATOMIC CHARGES
----------------------
   0 C :   -0.444739
   1 O :   -0.005841
   2 H :    0.170135
   3 H :    0.079663
   4 H :    0.102274
   5 H :    0.098508

  Mayer bond orders larger than 0.1
B(  0-C ,  1-O ) :   1.0207 B(  0-C ,  3-H ) :   0.9787 B(  0-C ,  4-H ) :   0.9775
B(  0-C ,  5-H ) :   0.9862 B(  1-O ,  2-H ) :   0.9006

Dispersion correction           -0.000207483
FINAL SINGLE POINT ENERGY      -115.723989103118

DIPOLE MOMENT
-------------
                                X             Y             Z
Electronic contribution:     -0.16592      -1.88547      -0.53415
Nuclear contribution   :     -0.34261       2.24170       0.72644
                        -----------------------------------------
Total Dipole Moment    :     -0.50853       0.35623       0.19230
                        -----------------------------------------
Magnitude (a.u.)       :      0.64999
Magnitude (Debye)      :      1.65214

Rotational constants in cm-1:     4.647460     0.912313     0.862464
Rotational constants in MHz : 139327.345305 27350.460942 25856.027633

                             ****ORCA TERMINATED NORMALLY****
TOTAL RUN TIME: 0 days 0 hours 0 minutes 43 seconds 443 msec
