                         Program Version 4.1.2  - RELEASE  -
|  1> #Run DFT-D3 single point of the dimer
|  2> ! wB97X-D3 def2-TZVP TIGHTSCF CHELPG PMODEL PAL8
|  3>
|  4> %base "11-50_DFT_AB"
|  5>
|  6> %scf
|  7> MaxIter 1000
|  8> end
|  9>
| 10> * xyz 0 1
| 11>   C                      -6.809828            -7.466043            3.576054
| 12>   O                      -7.899568            -7.122431            2.761647
| 13>   H                      -8.485116            -6.571884            3.300043
| 14>   H                      -6.140757            -8.235801            3.211368
| 15>   H                      -6.195975            -6.624707            3.804071
| 16>   H                      -7.153628            -7.872314            4.553636
| 17>   C                      -3.487488            -9.718348            4.337597
| 18>   O                      -4.094662            -8.476582            4.623940
| 19>   H                      -3.743930            -7.939805            3.863321
| 20>   H                      -2.454372            -9.859936            4.853837
| 21>   H                      -4.090409            -10.586912           4.618191
| 22>   H                      -3.275135            -9.845799            3.288352
| 23> *
| 24>
| 25> #Run DFT-D3 single point of the molecule with dimer basis set
| 26> $new_job
| 27> %base "11-50_DFT_A"
| 28> ! wB97X-D3 def2-TZVP TIGHTSCF CHELPG PMODEL
| 29>
| 30> %scf
| 31> MaxIter 1000
| 32> end
| 33>
| 34> * xyz 0 1
| 35>   C                      -6.809828            -7.466043            3.576054
| 36>   O                      -7.899568            -7.122431            2.761647
| 37>   H                      -8.485116            -6.571884            3.300043
| 38>   H                      -6.140757            -8.235801            3.211368
| 39>   H                      -6.195975            -6.624707            3.804071
| 40>   H                      -7.153628            -7.872314            4.553636
| 41>   C                    : -3.487488            -9.718348            4.337597
| 42>   O                    : -4.094662            -8.476582            4.623940
| 43>   H                    : -3.743930            -7.939805            3.863321
| 44>   H                    : -2.454372            -9.859936            4.853837
| 45>   H                    : -4.090409            -10.586912           4.618191
| 46>   H                    : -3.275135            -9.845799            3.288352
| 47> *
| 48>
| 49> #Run DFT-D3 single point of the particle with dimer basis set
| 50> $new_job
| 51> %base "11-50_DFT_B"
| 52> ! wB97X-D3 def2-TZVP TIGHTSCF CHELPG PMODEL
| 53>
| 54> %scf
| 55> MaxIter 1000
| 56> end
| 57>
| 58> * xyz 0 1
| 59>   C                    : -6.809828            -7.466043            3.576054
| 60>   O                    : -7.899568            -7.122431            2.761647
| 61>   H                    : -8.485116            -6.571884            3.300043
| 62>   H                    : -6.140757            -8.235801            3.211368
| 63>   H                    : -6.195975            -6.624707            3.804071
| 64>   H                    : -7.153628            -7.872314            4.553636
| 65>   C                      -3.487488            -9.718348            4.337597
| 66>   O                      -4.094662            -8.476582            4.623940
| 67>   H                      -3.743930            -7.939805            3.863321
| 68>   H                      -2.454372            -9.859936            4.853837
| 69>   H                      -4.090409            -10.586912           4.618191
| 70>   H                      -3.275135            -9.845799            3.288352
| 71> *
| 72>
| 73>                          ****END OF INPUT****
 Total Charge           Charge          ....    0
 Multiplicity           Mult            ....    1
 Number of Electrons    NEL             ....   36
Dispersion correction           -0.001770036
FINAL SINGLE POINT ENERGY      -231.464362860665
Dispersion correction           -0.000234372
FINAL SINGLE POINT ENERGY      -115.733228804295

CARTESIAN COORDINATES (ANGSTROEM)
---------------------------------
  C     -6.809828   -7.466043    3.576054
  O     -7.899568   -7.122431    2.761647
  H     -8.485116   -6.571884    3.300043
  H     -6.140757   -8.235801    3.211368
  H     -6.195975   -6.624707    3.804071
  H     -7.153628   -7.872314    4.553636
  C     -3.487488   -9.718348    4.337597
  O     -4.094662   -8.476582    4.623940
  H     -3.743930   -7.939805    3.863321
  H     -2.454372   -9.859936    4.853837
  H     -4.090409  -10.586912    4.618191
  H     -3.275135   -9.845799    3.288352

 Multiplicity           Mult            ....    1
 Number of Electrons    NEL             ....   18
 Basis Dimension        Dim             ....  172

ORBITAL ENERGIES
----------------

  NO   OCC          E(Eh)            E(eV)
   0   2.0000     -19.241567      -523.5897
   1   2.0000     -10.318843      -280.7900
   2   2.0000      -1.139682       -31.0123
   3   2.0000      -0.787891       -21.4396
   4   2.0000      -0.612327       -16.6623
   5   2.0000      -0.533381       -14.5140
   6   2.0000      -0.527449       -14.3526
   7   2.0000      -0.443178       -12.0595
   8   2.0000      -0.373892       -10.1741
   9   0.0000       0.088594         2.4108
  10   0.0000       0.119722         3.2578
  11   0.0000       0.147021         4.0007
  12   0.0000       0.185955         5.0601
  13   0.0000       0.197180         5.3656

MULLIKEN ATOMIC CHARGES
-----------------------
   0 C :    0.015541
   1 O :   -0.000524
   2 H :   -0.000056
   3 H :   -0.018011
   4 H :   -0.004262
   5 H :   -0.005121
   6 C :   -0.188910
   7 O :   -0.447591
   8 H :    0.322865
   9 H :    0.095157
  10 H :    0.122227
  11 H :    0.108685
Sum of atomic charges:    0.0000000

LOEWDIN ATOMIC CHARGES
----------------------
   0 C :   -0.018362
   1 O :   -0.000058
   2 H :   -0.000040
   3 H :   -0.011711
   4 H :   -0.002595
   5 H :   -0.001951
   6 C :   -0.408246
   7 O :   -0.057926
   8 H :    0.199993
   9 H :    0.105458
  10 H :    0.104320
  11 H :    0.091119

  Mayer bond orders larger than 0.1
B(  6-C ,  7-O ) :   1.0047 B(  6-C ,  9-H ) :   0.9674 B(  6-C , 10-H ) :   0.9758
B(  6-C , 11-H ) :   0.9837 B(  7-O ,  8-H ) :   0.8938

Dispersion correction           -0.000249882
FINAL SINGLE POINT ENERGY      -115.729750328437

DIPOLE MOMENT
-------------
                                X             Y             Z
Electronic contribution:     -1.02361       1.64634       0.52904
Nuclear contribution   :      1.44969      -1.79225      -1.13006
                        -----------------------------------------
Total Dipole Moment    :      0.42608      -0.14591      -0.60101
                        -----------------------------------------
Magnitude (a.u.)       :      0.75103
Magnitude (Debye)      :      1.90897

Rotational constants in cm-1:     4.172404     0.826279     0.797073
Rotational constants in MHz : 125085.513804 24771.233932 23895.651067

                             ****ORCA TERMINATED NORMALLY****
TOTAL RUN TIME: 0 days 0 hours 1 minutes 11 seconds 37 msec
