                         Program Version 4.1.2  - RELEASE  -
|  1> #Run DFT-D3 single point of the dimer
|  2> ! wB97X-D3 def2-TZVP TIGHTSCF CHELPG PMODEL PAL8
|  3>
|  4> %base "13-80_DFT_AB"
|  5>
|  6> %scf
|  7> MaxIter 1000
|  8> end
|  9>
| 10> * xyz 0 1
| 11>   C                      -2.473489            2.754382             -3.587635
| 12>   O                      -2.443331            4.137999             -3.468418
| 13>   H                      -2.406738            4.647574             -4.288539
| 14>   H                      -1.822514            2.438176             -4.417710
| 15>   H                      -2.095098            2.370439             -2.644488
| 16>   H                      -3.458589            2.327411             -3.868728
| 17>   C                      -7.220096            6.994983             -1.251529
| 18>   O                      -5.864312            6.616557             -1.059694
| 19>   H                      -5.438133            6.373003             -1.911575
| 20>   H                      -7.354863            8.098564             -1.220289
| 21>   H                      -7.641321            6.615073             -2.156346
| 22>   H                      -7.859570            6.551375             -0.455189
| 23> *
| 24>
| 25> #Run DFT-D3 single point of the molecule with dimer basis set
| 26> $new_job
| 27> %base "13-80_DFT_A"
| 28> ! wB97X-D3 def2-TZVP TIGHTSCF CHELPG PMODEL
| 29>
| 30> %scf
| 31> MaxIter 1000
| 32> end
| 33>
| 34> * xyz 0 1
| 35>   C                      -2.473489            2.754382             -3.587635
| 36>   O                      -2.443331            4.137999             -3.468418
| 37>   H                      -2.406738            4.647574             -4.288539
| 38>   H                      -1.822514            2.438176             -4.417710
| 39>   H                      -2.095098            2.370439             -2.644488
| 40>   H                      -3.458589            2.327411             -3.868728
| 41>   C                    : -7.220096            6.994983             -1.251529
| 42>   O                    : -5.864312            6.616557             -1.059694
| 43>   H                    : -5.438133            6.373003             -1.911575
| 44>   H                    : -7.354863            8.098564             -1.220289
| 45>   H                    : -7.641321            6.615073             -2.156346
| 46>   H                    : -7.859570            6.551375             -0.455189
| 47> *
| 48>
| 49> #Run DFT-D3 single point of the particle with dimer basis set
| 50> $new_job
| 51> %base "13-80_DFT_B"
| 52> ! wB97X-D3 def2-TZVP TIGHTSCF CHELPG PMODEL
| 53>
| 54> %scf
| 55> MaxIter 1000
| 56> end
| 57>
| 58> * xyz 0 1
| 59>   C                    : -2.473489            2.754382             -3.587635
| 60>   O                    : -2.443331            4.137999             -3.468418
| 61>   H                    : -2.406738            4.647574             -4.288539
| 62>   H                    : -1.822514            2.438176             -4.417710
| 63>   H                    : -2.095098            2.370439             -2.644488
| 64>   H                    : -3.458589            2.327411             -3.868728
| 65>   C                      -7.220096            6.994983             -1.251529
| 66>   O                      -5.864312            6.616557             -1.059694
| 67>   H                      -5.438133            6.373003             -1.911575
| 68>   H                      -7.354863            8.098564             -1.220289
| 69>   H                      -7.641321            6.615073             -2.156346
| 70>   H                      -7.859570            6.551375             -0.455189
| 71> *
| 72>
| 73>                          ****END OF INPUT****
 Total Charge           Charge          ....    0
 Multiplicity           Mult            ....    1
 Number of Electrons    NEL             ....   36
Dispersion correction           -0.000673555
FINAL SINGLE POINT ENERGY      -231.467989248828
Dispersion correction           -0.000251151
FINAL SINGLE POINT ENERGY      -115.733506369880

CARTESIAN COORDINATES (ANGSTROEM)
---------------------------------
  C     -2.473489    2.754382   -3.587635
  O     -2.443331    4.137999   -3.468418
  H     -2.406738    4.647574   -4.288539
  H     -1.822514    2.438176   -4.417710
  H     -2.095098    2.370439   -2.644488
  H     -3.458589    2.327411   -3.868728
  C     -7.220096    6.994983   -1.251529
  O     -5.864312    6.616557   -1.059694
  H     -5.438133    6.373003   -1.911575
  H     -7.354863    8.098564   -1.220289
  H     -7.641321    6.615073   -2.156346
  H     -7.859570    6.551375   -0.455189

 Multiplicity           Mult            ....    1
 Number of Electrons    NEL             ....   18
 Basis Dimension        Dim             ....  172

ORBITAL ENERGIES
----------------

  NO   OCC          E(Eh)            E(eV)
   0   2.0000     -19.231472      -523.3149
   1   2.0000     -10.314598      -280.6745
   2   2.0000      -1.127728       -30.6870
   3   2.0000      -0.794614       -21.6226
   4   2.0000      -0.610659       -16.6169
   5   2.0000      -0.537666       -14.6306
   6   2.0000      -0.523300       -14.2397
   7   2.0000      -0.429548       -11.6886
   8   2.0000      -0.373093       -10.1524
   9   0.0000       0.080408         2.1880
  10   0.0000       0.112749         3.0681
  11   0.0000       0.148378         4.0376
  12   0.0000       0.165723         4.5095
  13   0.0000       0.194368         5.2890

MULLIKEN ATOMIC CHARGES
-----------------------
   0 C :   -0.000033
   1 O :    0.000001
   2 H :   -0.000006
   3 H :   -0.000000
   4 H :    0.000004
   5 H :    0.000002
   6 C :   -0.160079
   7 O :   -0.485288
   8 H :    0.320797
   9 H :    0.104575
  10 H :    0.106703
  11 H :    0.113324
Sum of atomic charges:   -0.0000000

LOEWDIN ATOMIC CHARGES
----------------------
   0 C :   -0.000017
   1 O :   -0.000026
   2 H :   -0.000017
   3 H :   -0.000001
   4 H :   -0.000000
   5 H :   -0.000001
   6 C :   -0.384569
   7 O :   -0.094797
   8 H :    0.181553
   9 H :    0.099928
  10 H :    0.089551
  11 H :    0.108396

  Mayer bond orders larger than 0.1
B(  6-C ,  7-O ) :   1.0074 B(  6-C ,  9-H ) :   0.9733 B(  6-C , 10-H ) :   0.9804
B(  6-C , 11-H ) :   0.9741 B(  7-O ,  8-H ) :   0.8923

Dispersion correction           -0.000264566
FINAL SINGLE POINT ENERGY      -115.734041404908

DIPOLE MOMENT
-------------
                                X             Y             Z
Electronic contribution:      1.76635      -0.45918       0.31361
Nuclear contribution   :     -2.04967       0.42603      -0.96235
                        -----------------------------------------
Total Dipole Moment    :     -0.28332      -0.03315      -0.64874
                        -----------------------------------------
Magnitude (a.u.)       :      0.70869
Magnitude (Debye)      :      1.80134

Rotational constants in cm-1:     4.321690     0.811345     0.788964
Rotational constants in MHz : 129560.996772 24323.505800 23652.558132

                             ****ORCA TERMINATED NORMALLY****
TOTAL RUN TIME: 0 days 0 hours 0 minutes 58 seconds 219 msec
