                         Program Version 4.1.2  - RELEASE  -
|  1> #Run DFT-D3 single point of the dimer
|  2> ! wB97X-D3 def2-TZVP TIGHTSCF CHELPG PMODEL PAL8
|  3>
|  4> %base "12-40_DFT_AB"
|  5>
|  6> %scf
|  7> MaxIter 1000
|  8> end
|  9>
| 10> * xyz 0 1
| 11>   C                      -8.068520            9.350120             1.189583
| 12>   O                      -8.752625            10.376869            1.873308
| 13>   H                      -8.135761            11.181691            1.909176
| 14>   H                      -6.977706            9.408543             1.361703
| 15>   H                      -8.315950            8.386054             1.585649
| 16>   H                      -8.351789            9.399995             0.160666
| 17>   C                      -7.235611            8.536844             -3.130810
| 18>   O                      -6.510817            8.304752             -4.327027
| 19>   H                      -6.737610            7.372823             -4.504356
| 20>   H                      -7.335361            9.566213             -3.018967
| 21>   H                      -8.188339            8.078847             -3.177783
| 22>   H                      -6.605725            8.151932             -2.291608
| 23> *
| 24>
| 25> #Run DFT-D3 single point of the molecule with dimer basis set
| 26> $new_job
| 27> %base "12-40_DFT_A"
| 28> ! wB97X-D3 def2-TZVP TIGHTSCF CHELPG PMODEL
| 29>
| 30> %scf
| 31> MaxIter 1000
| 32> end
| 33>
| 34> * xyz 0 1
| 35>   C                      -8.068520            9.350120             1.189583
| 36>   O                      -8.752625            10.376869            1.873308
| 37>   H                      -8.135761            11.181691            1.909176
| 38>   H                      -6.977706            9.408543             1.361703
| 39>   H                      -8.315950            8.386054             1.585649
| 40>   H                      -8.351789            9.399995             0.160666
| 41>   C                    : -7.235611            8.536844             -3.130810
| 42>   O                    : -6.510817            8.304752             -4.327027
| 43>   H                    : -6.737610            7.372823             -4.504356
| 44>   H                    : -7.335361            9.566213             -3.018967
| 45>   H                    : -8.188339            8.078847             -3.177783
| 46>   H                    : -6.605725            8.151932             -2.291608
| 47> *
| 48>
| 49> #Run DFT-D3 single point of the particle with dimer basis set
| 50> $new_job
| 51> %base "12-40_DFT_B"
| 52> ! wB97X-D3 def2-TZVP TIGHTSCF CHELPG PMODEL
| 53>
| 54> %scf
| 55> MaxIter 1000
| 56> end
| 57>
| 58> * xyz 0 1
| 59>   C                    : -8.068520            9.350120             1.189583
| 60>   O                    : -8.752625            10.376869            1.873308
| 61>   H                    : -8.135761            11.181691            1.909176
| 62>   H                    : -6.977706            9.408543             1.361703
| 63>   H                    : -8.315950            8.386054             1.585649
| 64>   H                    : -8.351789            9.399995             0.160666
| 65>   C                      -7.235611            8.536844             -3.130810
| 66>   O                      -6.510817            8.304752             -4.327027
| 67>   H                      -6.737610            7.372823             -4.504356
| 68>   H                      -7.335361            9.566213             -3.018967
| 69>   H                      -8.188339            8.078847             -3.177783
| 70>   H                      -6.605725            8.151932             -2.291608
| 71> *
| 72>
| 73>                          ****END OF INPUT****
 Total Charge           Charge          ....    0
 Multiplicity           Mult            ....    1
 Number of Electrons    NEL             ....   36
Dispersion correction           -0.000985933
FINAL SINGLE POINT ENERGY      -231.463038170045
Dispersion correction           -0.000235555
FINAL SINGLE POINT ENERGY      -115.731101264168

CARTESIAN COORDINATES (ANGSTROEM)
---------------------------------
  C     -8.068520    9.350120    1.189583
  O     -8.752625   10.376869    1.873308
  H     -8.135761   11.181691    1.909176
  H     -6.977706    9.408543    1.361703
  H     -8.315950    8.386054    1.585649
  H     -8.351789    9.399995    0.160666
  C     -7.235611    8.536844   -3.130810
  O     -6.510817    8.304752   -4.327027
  H     -6.737610    7.372823   -4.504356
  H     -7.335361    9.566213   -3.018967
  H     -8.188339    8.078847   -3.177783
  H     -6.605725    8.151932   -2.291608

 Multiplicity           Mult            ....    1
 Number of Electrons    NEL             ....   18
 Basis Dimension        Dim             ....  172

ORBITAL ENERGIES
----------------

  NO   OCC          E(Eh)            E(eV)
   0   2.0000     -19.229042      -523.2488
   1   2.0000     -10.305009      -280.4136
   2   2.0000      -1.135331       -30.8939
   3   2.0000      -0.795046       -21.6343
   4   2.0000      -0.608531       -16.5590
   5   2.0000      -0.545760       -14.8509
   6   2.0000      -0.527401       -14.3513
   7   2.0000      -0.443677       -12.0731
   8   2.0000      -0.370786       -10.0896
   9   0.0000       0.082842         2.2542
  10   0.0000       0.113068         3.0767
  11   0.0000       0.145259         3.9527
  12   0.0000       0.170653         4.6437
  13   0.0000       0.182429         4.9641

MULLIKEN ATOMIC CHARGES
-----------------------
   0 C :   -0.000761
   1 O :   -0.000002
   2 H :    0.000001
   3 H :   -0.000011
   4 H :    0.000015
   5 H :    0.000917
   6 C :   -0.168637
   7 O :   -0.470825
   8 H :    0.311911
   9 H :    0.122264
  10 H :    0.106748
  11 H :    0.098379
Sum of atomic charges:    0.0000000

LOEWDIN ATOMIC CHARGES
----------------------
   0 C :   -0.000599
   1 O :   -0.000007
   2 H :   -0.000001
   3 H :   -0.000064
   4 H :   -0.000011
   5 H :   -0.000442
   6 C :   -0.375668
   7 O :   -0.089158
   8 H :    0.179346
   9 H :    0.095189
  10 H :    0.089263
  11 H :    0.102151

  Mayer bond orders larger than 0.1
B(  6-C ,  7-O ) :   0.9996 B(  6-C ,  9-H ) :   0.9750 B(  6-C , 10-H ) :   0.9805
B(  6-C , 11-H ) :   0.9797 B(  7-O ,  8-H ) :   0.9042

Dispersion correction           -0.000204217
FINAL SINGLE POINT ENERGY      -115.731383100053

DIPOLE MOMENT
-------------
                                X             Y             Z
Electronic contribution:      0.84554      -0.09120      -1.50034
Nuclear contribution   :     -1.29093      -0.36809       1.84778
                        -----------------------------------------
Total Dipole Moment    :     -0.44539      -0.45930       0.34744
                        -----------------------------------------
Magnitude (a.u.)       :      0.72804
Magnitude (Debye)      :      1.85053

Rotational constants in cm-1:     4.229873     0.847882     0.820069
Rotational constants in MHz : 126808.389805 25418.869443 24585.037932

                             ****ORCA TERMINATED NORMALLY****
TOTAL RUN TIME: 0 days 0 hours 1 minutes 13 seconds 221 msec
