                         Program Version 4.1.2  - RELEASE  -
|  1> #Run DFT-D3 single point of the dimer
|  2> ! wB97X-D3 def2-TZVP TIGHTSCF CHELPG PMODEL PAL8
|  3>
|  4> %base "8-2_DFT_AB"
|  5>
|  6> %scf
|  7> MaxIter 1000
|  8> end
|  9>
| 10> * xyz 0 1
| 11>   C                      3.233414             -3.571402            3.480505
| 12>   O                      2.255676             -2.570167            3.219103
| 13>   H                      1.566001             -2.787145            3.844910
| 14>   H                      2.766447             -4.558397            3.518261
| 15>   H                      4.083400             -3.498807            2.869667
| 16>   H                      3.649298             -3.340378            4.517966
| 17>   C                      6.607193             -4.525845            4.377470
| 18>   O                      6.373419             -5.532670            3.540175
| 19>   H                      5.453092             -5.878373            3.648403
| 20>   H                      6.456532             -4.812050            5.465561
| 21>   H                      7.700353             -4.239288            4.432152
| 22>   H                      6.134564             -3.540531            4.143520
| 23> *
| 24>
| 25> #Run DFT-D3 single point of the molecule with dimer basis set
| 26> $new_job
| 27> %base "8-2_DFT_A"
| 28> ! wB97X-D3 def2-TZVP TIGHTSCF CHELPG PMODEL
| 29>
| 30> %scf
| 31> MaxIter 1000
| 32> end
| 33>
| 34> * xyz 0 1
| 35>   C                      3.233414             -3.571402            3.480505
| 36>   O                      2.255676             -2.570167            3.219103
| 37>   H                      1.566001             -2.787145            3.844910
| 38>   H                      2.766447             -4.558397            3.518261
| 39>   H                      4.083400             -3.498807            2.869667
| 40>   H                      3.649298             -3.340378            4.517966
| 41>   C                    : 6.607193             -4.525845            4.377470
| 42>   O                    : 6.373419             -5.532670            3.540175
| 43>   H                    : 5.453092             -5.878373            3.648403
| 44>   H                    : 6.456532             -4.812050            5.465561
| 45>   H                    : 7.700353             -4.239288            4.432152
| 46>   H                    : 6.134564             -3.540531            4.143520
| 47> *
| 48>
| 49> #Run DFT-D3 single point of the particle with dimer basis set
| 50> $new_job
| 51> %base "8-2_DFT_B"
| 52> ! wB97X-D3 def2-TZVP TIGHTSCF CHELPG PMODEL
| 53>
| 54> %scf
| 55> MaxIter 1000
| 56> end
| 57>
| 58> * xyz 0 1
| 59>   C                    : 3.233414             -3.571402            3.480505
| 60>   O                    : 2.255676             -2.570167            3.219103
| 61>   H                    : 1.566001             -2.787145            3.844910
| 62>   H                    : 2.766447             -4.558397            3.518261
| 63>   H                    : 4.083400             -3.498807            2.869667
| 64>   H                    : 3.649298             -3.340378            4.517966
| 65>   C                      6.607193             -4.525845            4.377470
| 66>   O                      6.373419             -5.532670            3.540175
| 67>   H                      5.453092             -5.878373            3.648403
| 68>   H                      6.456532             -4.812050            5.465561
| 69>   H                      7.700353             -4.239288            4.432152
| 70>   H                      6.134564             -3.540531            4.143520
| 71> *
| 72>
| 73>                          ****END OF INPUT****
 Total Charge           Charge          ....    0
 Multiplicity           Mult            ....    1
 Number of Electrons    NEL             ....   36
Dispersion correction           -0.001897329
FINAL SINGLE POINT ENERGY      -231.458704391496
Dispersion correction           -0.000215901
FINAL SINGLE POINT ENERGY      -115.730664497217

CARTESIAN COORDINATES (ANGSTROEM)
---------------------------------
  C      3.233414   -3.571402    3.480505
  O      2.255676   -2.570167    3.219103
  H      1.566001   -2.787145    3.844910
  H      2.766447   -4.558397    3.518261
  H      4.083400   -3.498807    2.869667
  H      3.649298   -3.340378    4.517966
  C      6.607193   -4.525845    4.377470
  O      6.373419   -5.532670    3.540175
  H      5.453092   -5.878373    3.648403
  H      6.456532   -4.812050    5.465561
  H      7.700353   -4.239288    4.432152
  H      6.134564   -3.540531    4.143520

 Multiplicity           Mult            ....    1
 Number of Electrons    NEL             ....   18
 Basis Dimension        Dim             ....  172

ORBITAL ENERGIES
----------------

  NO   OCC          E(Eh)            E(eV)
   0   2.0000     -19.238694      -523.5115
   1   2.0000     -10.316216      -280.7185
   2   2.0000      -1.161889       -31.6166
   3   2.0000      -0.787322       -21.4241
   4   2.0000      -0.623727       -16.9725
   5   2.0000      -0.551102       -14.9962
   6   2.0000      -0.536861       -14.6087
   7   2.0000      -0.410816       -11.1789
   8   2.0000      -0.373478       -10.1628
   9   0.0000       0.075236         2.0473
  10   0.0000       0.124964         3.4004
  11   0.0000       0.144808         3.9404
  12   0.0000       0.175282         4.7697
  13   0.0000       0.193641         5.2692

MULLIKEN ATOMIC CHARGES
-----------------------
   0 C :   -0.002034
   1 O :    0.000220
   2 H :    0.000028
   3 H :   -0.000067
   4 H :    0.001035
   5 H :   -0.001571
   6 C :   -0.170854
   7 O :   -0.449320
   8 H :    0.327378
   9 H :    0.090673
  10 H :    0.112949
  11 H :    0.091563
Sum of atomic charges:    0.0000000

LOEWDIN ATOMIC CHARGES
----------------------
   0 C :   -0.008782
   1 O :   -0.000041
   2 H :   -0.000009
   3 H :   -0.000461
   4 H :   -0.003196
   5 H :   -0.003174
   6 C :   -0.473689
   7 O :   -0.014848
   8 H :    0.196195
   9 H :    0.097271
  10 H :    0.113873
  11 H :    0.096861

  Mayer bond orders larger than 0.1
B(  6-C ,  7-O ) :   1.0258 B(  6-C ,  9-H ) :   0.9829 B(  6-C , 10-H ) :   0.9689
B(  6-C , 11-H ) :   0.9688 B(  7-O ,  8-H ) :   0.8838

Dispersion correction           -0.000250666
FINAL SINGLE POINT ENERGY      -115.727486089345

DIPOLE MOMENT
-------------
                                X             Y             Z
Electronic contribution:     -0.35487      -1.48245      -1.37595
Nuclear contribution   :     -0.12452       1.57841       1.71004
                        -----------------------------------------
Total Dipole Moment    :     -0.47940       0.09596       0.33409
                        -----------------------------------------
Magnitude (a.u.)       :      0.59215
Magnitude (Debye)      :      1.50513

Rotational constants in cm-1:     4.278168     0.880266     0.860314
Rotational constants in MHz : 128256.248467 26389.696265 25791.572310

                             ****ORCA TERMINATED NORMALLY****
TOTAL RUN TIME: 0 days 0 hours 0 minutes 46 seconds 960 msec
