                         Program Version 4.1.2  - RELEASE  -
|  1> #Run DFT-D3 single point of the dimer
|  2> ! wB97X-D3 def2-TZVP TIGHTSCF CHELPG PMODEL PAL8
|  3>
|  4> %base "22-195_DFT_AB"
|  5>
|  6> %scf
|  7> MaxIter 1000
|  8> end
|  9>
| 10> * xyz 0 1
| 11>   C                      -9.507209            -8.614050            -7.230043
| 12>   O                      -8.161108            -8.088175            -7.427636
| 13>   H                      -7.548109            -8.868559            -7.569384
| 14>   H                      -9.526536            -9.231122            -6.341862
| 15>   H                      -10.245224           -7.747447            -7.209229
| 16>   H                      -9.740685            -9.303797            -8.037052
| 17>   C                      -3.903853            -9.314439            -6.920774
| 18>   O                      -4.838043            -10.169940           -7.627964
| 19>   H                      -5.748097            -9.828896            -7.577020
| 20>   H                      -2.866147            -9.662974            -7.032656
| 21>   H                      -3.789003            -8.288964            -7.246554
| 22>   H                      -4.070842            -9.207480            -5.823617
| 23> *
| 24>
| 25> #Run DFT-D3 single point of the molecule with dimer basis set
| 26> $new_job
| 27> %base "22-195_DFT_A"
| 28> ! wB97X-D3 def2-TZVP TIGHTSCF CHELPG PMODEL
| 29>
| 30> %scf
| 31> MaxIter 1000
| 32> end
| 33>
| 34> * xyz 0 1
| 35>   C                      -9.507209            -8.614050            -7.230043
| 36>   O                      -8.161108            -8.088175            -7.427636
| 37>   H                      -7.548109            -8.868559            -7.569384
| 38>   H                      -9.526536            -9.231122            -6.341862
| 39>   H                      -10.245224           -7.747447            -7.209229
| 40>   H                      -9.740685            -9.303797            -8.037052
| 41>   C                    : -3.903853            -9.314439            -6.920774
| 42>   O                    : -4.838043            -10.169940           -7.627964
| 43>   H                    : -5.748097            -9.828896            -7.577020
| 44>   H                    : -2.866147            -9.662974            -7.032656
| 45>   H                    : -3.789003            -8.288964            -7.246554
| 46>   H                    : -4.070842            -9.207480            -5.823617
| 47> *
| 48>
| 49> #Run DFT-D3 single point of the particle with dimer basis set
| 50> $new_job
| 51> %base "22-195_DFT_B"
| 52> ! wB97X-D3 def2-TZVP TIGHTSCF CHELPG PMODEL
| 53>
| 54> %scf
| 55> MaxIter 1000
| 56> end
| 57>
| 58> * xyz 0 1
| 59>   C                    : -9.507209            -8.614050            -7.230043
| 60>   O                    : -8.161108            -8.088175            -7.427636
| 61>   H                    : -7.548109            -8.868559            -7.569384
| 62>   H                    : -9.526536            -9.231122            -6.341862
| 63>   H                    : -10.245224           -7.747447            -7.209229
| 64>   H                    : -9.740685            -9.303797            -8.037052
| 65>   C                      -3.903853            -9.314439            -6.920774
| 66>   O                      -4.838043            -10.169940           -7.627964
| 67>   H                      -5.748097            -9.828896            -7.577020
| 68>   H                      -2.866147            -9.662974            -7.032656
| 69>   H                      -3.789003            -8.288964            -7.246554
| 70>   H                      -4.070842            -9.207480            -5.823617
| 71> *
| 72>
| 73>                          ****END OF INPUT****
 Total Charge           Charge          ....    0
 Multiplicity           Mult            ....    1
 Number of Electrons    NEL             ....   36
Dispersion correction           -0.001274798
FINAL SINGLE POINT ENERGY      -231.458943268002
Dispersion correction           -0.000246985
FINAL SINGLE POINT ENERGY      -115.731188115273

CARTESIAN COORDINATES (ANGSTROEM)
---------------------------------
  C     -9.507209   -8.614050   -7.230043
  O     -8.161108   -8.088175   -7.427636
  H     -7.548109   -8.868559   -7.569384
  H     -9.526536   -9.231122   -6.341862
  H    -10.245224   -7.747447   -7.209229
  H     -9.740685   -9.303797   -8.037052
  C     -3.903853   -9.314439   -6.920774
  O     -4.838043  -10.169940   -7.627964
  H     -5.748097   -9.828896   -7.577020
  H     -2.866147   -9.662974   -7.032656
  H     -3.789003   -8.288964   -7.246554
  H     -4.070842   -9.207480   -5.823617

 Multiplicity           Mult            ....    1
 Number of Electrons    NEL             ....   18
 Basis Dimension        Dim             ....  172

ORBITAL ENERGIES
----------------

  NO   OCC          E(Eh)            E(eV)
   0   2.0000     -19.237073      -523.4674
   1   2.0000     -10.318350      -280.7766
   2   2.0000      -1.123086       -30.5607
   3   2.0000      -0.800759       -21.7898
   4   2.0000      -0.609999       -16.5989
   5   2.0000      -0.530448       -14.4342
   6   2.0000      -0.518585       -14.1114
   7   2.0000      -0.433555       -11.7976
   8   2.0000      -0.377865       -10.2822
   9   0.0000       0.074040         2.0147
  10   0.0000       0.120016         3.2658
  11   0.0000       0.142381         3.8744
  12   0.0000       0.189706         5.1621
  13   0.0000       0.190812         5.1923

MULLIKEN ATOMIC CHARGES
-----------------------
   0 C :    0.000550
   1 O :    0.000425
   2 H :   -0.004907
   3 H :   -0.000067
   4 H :    0.000008
   5 H :   -0.000045
   6 C :   -0.177842
   7 O :   -0.479476
   8 H :    0.320074
   9 H :    0.126613
  10 H :    0.107753
  11 H :    0.106914
Sum of atomic charges:   -0.0000000

LOEWDIN ATOMIC CHARGES
----------------------
   0 C :   -0.000050
   1 O :   -0.000471
   2 H :   -0.007529
   3 H :   -0.000005
   4 H :   -0.000002
   5 H :   -0.000001
   6 C :   -0.373407
   7 O :   -0.098691
   8 H :    0.176385
   9 H :    0.112117
  10 H :    0.092479
  11 H :    0.099174

  Mayer bond orders larger than 0.1
B(  6-C ,  7-O ) :   0.9959 B(  6-C ,  9-H ) :   0.9756 B(  6-C , 10-H ) :   0.9665
B(  6-C , 11-H ) :   0.9728 B(  7-O ,  8-H ) :   0.8997

Dispersion correction           -0.000305864
FINAL SINGLE POINT ENERGY      -115.730497653392

DIPOLE MOMENT
-------------
                                X             Y             Z
Electronic contribution:     -1.21649      -1.23134      -1.01147
Nuclear contribution   :      1.03973       1.81753       1.32254
                        -----------------------------------------
Total Dipole Moment    :     -0.17677       0.58620       0.31107
                        -----------------------------------------
Magnitude (a.u.)       :      0.68676
Magnitude (Debye)      :      1.74561

Rotational constants in cm-1:     4.532720     0.773163     0.747050
Rotational constants in MHz : 135887.525276 23178.830353 22396.005450

                             ****ORCA TERMINATED NORMALLY****
TOTAL RUN TIME: 0 days 0 hours 0 minutes 55 seconds 819 msec
