                         Program Version 4.1.2  - RELEASE  -
|  1> #Run DFT-D3 single point of the dimer
|  2> ! wB97X-D3 def2-TZVP TIGHTSCF CHELPG PMODEL PAL8
|  3>
|  4> %base "9-117_DFT_AB"
|  5>
|  6> %scf
|  7> MaxIter 1000
|  8> end
|  9>
| 10> * xyz 0 1
| 11>   C                      5.356239             0.575091             7.861730
| 12>   O                      5.092971             1.322461             6.696982
| 13>   H                      4.968646             0.716571             5.949532
| 14>   H                      5.774221             1.189268             8.691426
| 15>   H                      4.499093             0.072589             8.225889
| 16>   H                      6.158912             -0.140826            7.547524
| 17>   C                      7.502081             4.156317             6.119983
| 18>   O                      6.283258             4.173866             6.913367
| 19>   H                      6.005485             3.281931             7.057697
| 20>   H                      7.518540             3.199391             5.644552
| 21>   H                      7.481914             4.886352             5.317469
| 22>   H                      8.423876             4.297298             6.684826
| 23> *
| 24>
| 25> #Run DFT-D3 single point of the molecule with dimer basis set
| 26> $new_job
| 27> %base "9-117_DFT_A"
| 28> ! wB97X-D3 def2-TZVP TIGHTSCF CHELPG PMODEL
| 29>
| 30> %scf
| 31> MaxIter 1000
| 32> end
| 33>
| 34> * xyz 0 1
| 35>   C                      5.356239             0.575091             7.861730
| 36>   O                      5.092971             1.322461             6.696982
| 37>   H                      4.968646             0.716571             5.949532
| 38>   H                      5.774221             1.189268             8.691426
| 39>   H                      4.499093             0.072589             8.225889
| 40>   H                      6.158912             -0.140826            7.547524
| 41>   C                    : 7.502081             4.156317             6.119983
| 42>   O                    : 6.283258             4.173866             6.913367
| 43>   H                    : 6.005485             3.281931             7.057697
| 44>   H                    : 7.518540             3.199391             5.644552
| 45>   H                    : 7.481914             4.886352             5.317469
| 46>   H                    : 8.423876             4.297298             6.684826
| 47> *
| 48>
| 49> #Run DFT-D3 single point of the particle with dimer basis set
| 50> $new_job
| 51> %base "9-117_DFT_B"
| 52> ! wB97X-D3 def2-TZVP TIGHTSCF CHELPG PMODEL
| 53>
| 54> %scf
| 55> MaxIter 1000
| 56> end
| 57>
| 58> * xyz 0 1
| 59>   C                    : 5.356239             0.575091             7.861730
| 60>   O                    : 5.092971             1.322461             6.696982
| 61>   H                    : 4.968646             0.716571             5.949532
| 62>   H                    : 5.774221             1.189268             8.691426
| 63>   H                    : 4.499093             0.072589             8.225889
| 64>   H                    : 6.158912             -0.140826            7.547524
| 65>   C                      7.502081             4.156317             6.119983
| 66>   O                      6.283258             4.173866             6.913367
| 67>   H                      6.005485             3.281931             7.057697
| 68>   H                      7.518540             3.199391             5.644552
| 69>   H                      7.481914             4.886352             5.317469
| 70>   H                      8.423876             4.297298             6.684826
| 71> *
| 72>
| 73>                          ****END OF INPUT****
 Total Charge           Charge          ....    0
 Multiplicity           Mult            ....    1
 Number of Electrons    NEL             ....   36
Dispersion correction           -0.001717494
FINAL SINGLE POINT ENERGY      -231.471719673256
Dispersion correction           -0.000228374
FINAL SINGLE POINT ENERGY      -115.732626527949

CARTESIAN COORDINATES (ANGSTROEM)
---------------------------------
  C      5.356239    0.575091    7.861730
  O      5.092971    1.322461    6.696982
  H      4.968646    0.716571    5.949532
  H      5.774221    1.189268    8.691426
  H      4.499093    0.072589    8.225889
  H      6.158912   -0.140826    7.547524
  C      7.502081    4.156317    6.119983
  O      6.283258    4.173866    6.913367
  H      6.005485    3.281931    7.057697
  H      7.518540    3.199391    5.644552
  H      7.481914    4.886352    5.317469
  H      8.423876    4.297298    6.684826

 Multiplicity           Mult            ....    1
 Number of Electrons    NEL             ....   18
 Basis Dimension        Dim             ....  172

ORBITAL ENERGIES
----------------

  NO   OCC          E(Eh)            E(eV)
   0   2.0000     -19.228062      -523.2222
   1   2.0000     -10.313814      -280.6531
   2   2.0000      -1.127014       -30.6676
   3   2.0000      -0.801737       -21.8164
   4   2.0000      -0.606359       -16.4999
   5   2.0000      -0.540388       -14.7047
   6   2.0000      -0.530061       -14.4237
   7   2.0000      -0.431069       -11.7300
   8   2.0000      -0.377660       -10.2767
   9   0.0000       0.067995         1.8502
  10   0.0000       0.135427         3.6851
  11   0.0000       0.149336         4.0636
  12   0.0000       0.158619         4.3162
  13   0.0000       0.191049         5.1987

MULLIKEN ATOMIC CHARGES
-----------------------
   0 C :   -0.002017
   1 O :   -0.001503
   2 H :   -0.000065
   3 H :   -0.001187
   4 H :   -0.000102
   5 H :    0.000157
   6 C :   -0.163033
   7 O :   -0.478585
   8 H :    0.311196
   9 H :    0.107314
  10 H :    0.117650
  11 H :    0.110175
Sum of atomic charges:    0.0000000

LOEWDIN ATOMIC CHARGES
----------------------
   0 C :   -0.004028
   1 O :   -0.009754
   2 H :   -0.000466
   3 H :   -0.001341
   4 H :   -0.000079
   5 H :   -0.000046
   6 C :   -0.346045
   7 O :   -0.091557
   8 H :    0.158661
   9 H :    0.094649
  10 H :    0.102329
  11 H :    0.097677

  Mayer bond orders larger than 0.1
B(  6-C ,  7-O ) :   0.9944 B(  6-C ,  9-H ) :   0.9895 B(  6-C , 10-H ) :   0.9747
B(  6-C , 11-H ) :   0.9709 B(  7-O ,  8-H ) :   0.9129

Dispersion correction           -0.000255508
FINAL SINGLE POINT ENERGY      -115.732675767410

DIPOLE MOMENT
-------------
                                X             Y             Z
Electronic contribution:     -1.46129       0.22259       1.02588
Nuclear contribution   :      1.80060      -0.81987      -1.29664
                        -----------------------------------------
Total Dipole Moment    :      0.33930      -0.59728      -0.27077
                        -----------------------------------------
Magnitude (a.u.)       :      0.73836
Magnitude (Debye)      :      1.87677

Rotational constants in cm-1:     4.443129     0.792527     0.769804
Rotational constants in MHz : 133201.661507 23759.375034 23078.144169

                             ****ORCA TERMINATED NORMALLY****
TOTAL RUN TIME: 0 days 0 hours 0 minutes 44 seconds 361 msec
