                         Program Version 4.1.2  - RELEASE  -
|  1> #Run DFT-D3 single point of the dimer
|  2> ! wB97X-D3 def2-TZVP TIGHTSCF CHELPG PMODEL PAL8
|  3>
|  4> %base "22-196_DFT_AB"
|  5>
|  6> %scf
|  7> MaxIter 1000
|  8> end
|  9>
| 10> * xyz 0 1
| 11>   C                      -0.442507            3.972506             6.399599
| 12>   O                      -1.744152            3.536029             6.165556
| 13>   H                      -1.769779            3.077154             5.309589
| 14>   H                      -0.475310            4.765487             7.261476
| 15>   H                      0.355823             3.215275             6.612379
| 16>   H                      -0.008818            4.428014             5.493821
| 17>   C                      -1.507390            1.154501             3.586945
| 18>   O                      -2.170510            2.402761             3.694004
| 19>   H                      -2.738338            2.516325             2.930582
| 20>   H                      -0.792150            1.052577             4.403646
| 21>   H                      -2.124443            0.255359             3.494135
| 22>   H                      -0.882122            1.146564             2.670415
| 23> *
| 24>
| 25> #Run DFT-D3 single point of the molecule with dimer basis set
| 26> $new_job
| 27> %base "22-196_DFT_A"
| 28> ! wB97X-D3 def2-TZVP TIGHTSCF CHELPG PMODEL
| 29>
| 30> %scf
| 31> MaxIter 1000
| 32> end
| 33>
| 34> * xyz 0 1
| 35>   C                      -0.442507            3.972506             6.399599
| 36>   O                      -1.744152            3.536029             6.165556
| 37>   H                      -1.769779            3.077154             5.309589
| 38>   H                      -0.475310            4.765487             7.261476
| 39>   H                      0.355823             3.215275             6.612379
| 40>   H                      -0.008818            4.428014             5.493821
| 41>   C                    : -1.507390            1.154501             3.586945
| 42>   O                    : -2.170510            2.402761             3.694004
| 43>   H                    : -2.738338            2.516325             2.930582
| 44>   H                    : -0.792150            1.052577             4.403646
| 45>   H                    : -2.124443            0.255359             3.494135
| 46>   H                    : -0.882122            1.146564             2.670415
| 47> *
| 48>
| 49> #Run DFT-D3 single point of the particle with dimer basis set
| 50> $new_job
| 51> %base "22-196_DFT_B"
| 52> ! wB97X-D3 def2-TZVP TIGHTSCF CHELPG PMODEL
| 53>
| 54> %scf
| 55> MaxIter 1000
| 56> end
| 57>
| 58> * xyz 0 1
| 59>   C                    : -0.442507            3.972506             6.399599
| 60>   O                    : -1.744152            3.536029             6.165556
| 61>   H                    : -1.769779            3.077154             5.309589
| 62>   H                    : -0.475310            4.765487             7.261476
| 63>   H                    : 0.355823             3.215275             6.612379
| 64>   H                    : -0.008818            4.428014             5.493821
| 65>   C                      -1.507390            1.154501             3.586945
| 66>   O                      -2.170510            2.402761             3.694004
| 67>   H                      -2.738338            2.516325             2.930582
| 68>   H                      -0.792150            1.052577             4.403646
| 69>   H                      -2.124443            0.255359             3.494135
| 70>   H                      -0.882122            1.146564             2.670415
| 71> *
| 72>
| 73>                          ****END OF INPUT****
 Total Charge           Charge          ....    0
 Multiplicity           Mult            ....    1
 Number of Electrons    NEL             ....   36
Dispersion correction           -0.001863113
FINAL SINGLE POINT ENERGY      -231.472684563481
Dispersion correction           -0.000259296
FINAL SINGLE POINT ENERGY      -115.730020886053

CARTESIAN COORDINATES (ANGSTROEM)
---------------------------------
  C     -0.442507    3.972506    6.399599
  O     -1.744152    3.536029    6.165556
  H     -1.769779    3.077154    5.309589
  H     -0.475310    4.765487    7.261476
  H      0.355823    3.215275    6.612379
  H     -0.008818    4.428014    5.493821
  C     -1.507390    1.154501    3.586945
  O     -2.170510    2.402761    3.694004
  H     -2.738338    2.516325    2.930582
  H     -0.792150    1.052577    4.403646
  H     -2.124443    0.255359    3.494135
  H     -0.882122    1.146564    2.670415

 Multiplicity           Mult            ....    1
 Number of Electrons    NEL             ....   18
 Basis Dimension        Dim             ....  172

ORBITAL ENERGIES
----------------

  NO   OCC          E(Eh)            E(eV)
   0   2.0000     -19.232860      -523.3527
   1   2.0000     -10.315343      -280.6947
   2   2.0000      -1.136560       -30.9274
   3   2.0000      -0.796818       -21.6825
   4   2.0000      -0.614534       -16.7223
   5   2.0000      -0.535268       -14.5654
   6   2.0000      -0.527739       -14.3605
   7   2.0000      -0.437504       -11.9051
   8   2.0000      -0.373361       -10.1597
   9   0.0000       0.097319         2.6482
  10   0.0000       0.123638         3.3644
  11   0.0000       0.151623         4.1259
  12   0.0000       0.187951         5.1144
  13   0.0000       0.200461         5.4548

MULLIKEN ATOMIC CHARGES
-----------------------
   0 C :    0.001168
   1 O :    0.002708
   2 H :   -0.011950
   3 H :   -0.000076
   4 H :   -0.000365
   5 H :   -0.001638
   6 C :   -0.166358
   7 O :   -0.460565
   8 H :    0.308956
   9 H :    0.124934
  10 H :    0.105139
  11 H :    0.098046
Sum of atomic charges:   -0.0000000

LOEWDIN ATOMIC CHARGES
----------------------
   0 C :   -0.002295
   1 O :   -0.007243
   2 H :   -0.052423
   3 H :   -0.000019
   4 H :   -0.000184
   5 H :   -0.000643
   6 C :   -0.380267
   7 O :   -0.025940
   8 H :    0.166650
   9 H :    0.110641
  10 H :    0.094054
  11 H :    0.097671

  Mayer bond orders larger than 0.1
B(  6-C ,  7-O ) :   0.9929 B(  6-C ,  9-H ) :   0.9781 B(  6-C , 10-H ) :   0.9658
B(  6-C , 11-H ) :   0.9782 B(  7-O ,  8-H ) :   0.8989

Dispersion correction           -0.000252126
FINAL SINGLE POINT ENERGY      -115.735579731425

DIPOLE MOMENT
-------------
                                X             Y             Z
Electronic contribution:     -0.90988       1.61652       0.35841
Nuclear contribution   :      0.82166      -2.04052      -0.89570
                        -----------------------------------------
Total Dipole Moment    :     -0.08822      -0.42401      -0.53729
                        -----------------------------------------
Magnitude (a.u.)       :      0.69011
Magnitude (Debye)      :      1.75411

Rotational constants in cm-1:     4.350400     0.822700     0.790308
Rotational constants in MHz : 130421.703703 24663.911999 23692.839523

                             ****ORCA TERMINATED NORMALLY****
TOTAL RUN TIME: 0 days 0 hours 1 minutes 9 seconds 10 msec
