                         Program Version 4.1.2  - RELEASE  -
|  1> #Run DFT geometry optimization
|  2> ! wB97X-D3 def2-TZVP TIGHTSCF Grid5 FinalGrid6 Opt CHELPG PAL4
|  3>
|  4> %base "9_geo_opt"
|  5> %geom MaxIter 500
|  6> end
|  7>
|  8> %geom
|  9>   Constraints
| 10>     { A 5 0 1 C }
| 11>   end
| 12> end
| 13>
| 14>
| 15> * xyz 0 1
| 16>   C                    3.011308             -1.180897            0.598492
| 17>   O                    4.394081             -1.123622            0.876385
| 18>   H                    4.772196             -0.379022            0.412493
| 19>   H                    2.806434             -1.318965            -0.469350
| 20>   H                    2.611632             -2.040265            1.135898
| 21>   H                    2.488060             -0.283063            0.946960
| 22> *
| 23>
| 24>                          ****END OF INPUT****
 Total Charge           Charge          ....    0
 Multiplicity           Mult            ....    1
 Number of Electrons    NEL             ....   18
Dispersion correction           -0.000238734
FINAL SINGLE POINT ENERGY      -115.738040344390
Dispersion correction            ... done
Dispersion correction           -0.000238698
FINAL SINGLE POINT ENERGY      -115.738045397407
Dispersion correction            ... done
                    ***********************HURRAY********************

CARTESIAN COORDINATES (ANGSTROEM)
---------------------------------
  C      3.011180   -1.181176    0.598553
  O      4.394069   -1.124835    0.876778
  H      4.771809   -0.377827    0.411884
  H      2.806978   -1.318797   -0.469393
  H      2.611214   -2.040201    1.136126
  H      2.488461   -0.282998    0.946931

 Multiplicity           Mult            ....    1
 Number of Electrons    NEL             ....   18
 Basis Dimension        Dim             ....   86

ORBITAL ENERGIES
----------------

  NO   OCC          E(Eh)            E(eV)
   0   2.0000     -19.227898      -523.2177
   1   2.0000     -10.315117      -280.6886
   2   2.0000      -1.136668       -30.9303
   3   2.0000      -0.795297       -21.6411
   4   2.0000      -0.611391       -16.6368
   5   2.0000      -0.541946       -14.7471
   6   2.0000      -0.526426       -14.3248
   7   2.0000      -0.433665       -11.8006
   8   2.0000      -0.373491       -10.1632
   9   0.0000       0.116609         3.1731
  10   0.0000       0.156788         4.2664
  11   0.0000       0.202648         5.5143
  12   0.0000       0.205022         5.5789
  13   0.0000       0.226185         6.1548

MULLIKEN ATOMIC CHARGES
-----------------------
   0 C :   -0.150643
   1 O :   -0.477958
   2 H :    0.313014
   3 H :    0.098683
   4 H :    0.118263
   5 H :    0.098641
Sum of atomic charges:   -0.0000000

LOEWDIN ATOMIC CHARGES
----------------------
   0 C :   -0.384785
   1 O :   -0.076463
   2 H :    0.165735
   3 H :    0.093378
   4 H :    0.108641
   5 H :    0.093494

  Mayer bond orders larger than 0.1
B(  0-C ,  1-O ) :   0.9983 B(  0-C ,  3-H ) :   0.9753 B(  0-C ,  4-H ) :   0.9748
B(  0-C ,  5-H ) :   0.9761 B(  1-O ,  2-H ) :   0.9002

Dispersion correction           -0.000238590
FINAL SINGLE POINT ENERGY      -115.738045660294

DIPOLE MOMENT
-------------
                                X             Y             Z
Electronic contribution:      1.75162      -0.02773       0.42067
Nuclear contribution   :     -2.06153       0.47261      -0.82145
                        -----------------------------------------
Total Dipole Moment    :     -0.30991       0.44488      -0.40078
                        -----------------------------------------
Magnitude (a.u.)       :      0.67423
Magnitude (Debye)      :      1.71376

Rotational constants in cm-1:     4.289565     0.833952     0.805108
Rotational constants in MHz : 128597.923184 25001.254923 24136.522682

                             ****ORCA TERMINATED NORMALLY****
TOTAL RUN TIME: 0 days 0 hours 0 minutes 42 seconds 618 msec
