                         Program Version 4.1.2  - RELEASE  -
|  1> #Run DFT-D3 single point of the dimer
|  2> ! wB97X-D3 def2-TZVP TIGHTSCF CHELPG PMODEL PAL8
|  3>
|  4> %base "6-100_DFT_AB"
|  5>
|  6> %scf
|  7> MaxIter 1000
|  8> end
|  9>
| 10> * xyz 0 1
| 11>   C                      6.664978             3.067073             1.226311
| 12>   O                      8.059023             2.989451             1.564592
| 13>   H                      8.160365             2.945944             2.478638
| 14>   H                      6.091341             2.145018             1.217380
| 15>   H                      6.072127             3.731938             1.852075
| 16>   H                      6.459341             3.559162             0.310594
| 17>   C                      9.771409             3.969611             4.757964
| 18>   O                      8.466089             3.704602             4.383177
| 19>   H                      7.875408             4.419587             4.479373
| 20>   H                      10.429377            3.213558             4.319425
| 21>   H                      10.065070            4.997482             4.498658
| 22>   H                      9.986448             3.917799             5.840235
| 23> *
| 24>
| 25> #Run DFT-D3 single point of the molecule with dimer basis set
| 26> $new_job
| 27> %base "6-100_DFT_A"
| 28> ! wB97X-D3 def2-TZVP TIGHTSCF CHELPG PMODEL
| 29>
| 30> %scf
| 31> MaxIter 1000
| 32> end
| 33>
| 34> * xyz 0 1
| 35>   C                      6.664978             3.067073             1.226311
| 36>   O                      8.059023             2.989451             1.564592
| 37>   H                      8.160365             2.945944             2.478638
| 38>   H                      6.091341             2.145018             1.217380
| 39>   H                      6.072127             3.731938             1.852075
| 40>   H                      6.459341             3.559162             0.310594
| 41>   C                    : 9.771409             3.969611             4.757964
| 42>   O                    : 8.466089             3.704602             4.383177
| 43>   H                    : 7.875408             4.419587             4.479373
| 44>   H                    : 10.429377            3.213558             4.319425
| 45>   H                    : 10.065070            4.997482             4.498658
| 46>   H                    : 9.986448             3.917799             5.840235
| 47> *
| 48>
| 49> #Run DFT-D3 single point of the particle with dimer basis set
| 50> $new_job
| 51> %base "6-100_DFT_B"
| 52> ! wB97X-D3 def2-TZVP TIGHTSCF CHELPG PMODEL
| 53>
| 54> %scf
| 55> MaxIter 1000
| 56> end
| 57>
| 58> * xyz 0 1
| 59>   C                    : 6.664978             3.067073             1.226311
| 60>   O                    : 8.059023             2.989451             1.564592
| 61>   H                    : 8.160365             2.945944             2.478638
| 62>   H                    : 6.091341             2.145018             1.217380
| 63>   H                    : 6.072127             3.731938             1.852075
| 64>   H                    : 6.459341             3.559162             0.310594
| 65>   C                      9.771409             3.969611             4.757964
| 66>   O                      8.466089             3.704602             4.383177
| 67>   H                      7.875408             4.419587             4.479373
| 68>   H                      10.429377            3.213558             4.319425
| 69>   H                      10.065070            4.997482             4.498658
| 70>   H                      9.986448             3.917799             5.840235
| 71> *
| 72>
| 73>                          ****END OF INPUT****
 Total Charge           Charge          ....    0
 Multiplicity           Mult            ....    1
 Number of Electrons    NEL             ....   36
Dispersion correction           -0.001715276
FINAL SINGLE POINT ENERGY      -231.469171888608
Dispersion correction           -0.000278732
FINAL SINGLE POINT ENERGY      -115.728248183881

CARTESIAN COORDINATES (ANGSTROEM)
---------------------------------
  C      6.664978    3.067073    1.226311
  O      8.059023    2.989451    1.564592
  H      8.160365    2.945944    2.478638
  H      6.091341    2.145018    1.217380
  H      6.072127    3.731938    1.852075
  H      6.459341    3.559162    0.310594
  C      9.771409    3.969611    4.757964
  O      8.466089    3.704602    4.383177
  H      7.875408    4.419587    4.479373
  H     10.429377    3.213558    4.319425
  H     10.065070    4.997482    4.498658
  H      9.986448    3.917799    5.840235

 Multiplicity           Mult            ....    1
 Number of Electrons    NEL             ....   18
 Basis Dimension        Dim             ....  172

ORBITAL ENERGIES
----------------

  NO   OCC          E(Eh)            E(eV)
   0   2.0000     -19.228203      -523.2260
   1   2.0000     -10.313579      -280.6467
   2   2.0000      -1.148154       -31.2429
   3   2.0000      -0.801026       -21.7970
   4   2.0000      -0.625786       -17.0285
   5   2.0000      -0.541351       -14.7309
   6   2.0000      -0.530156       -14.4263
   7   2.0000      -0.429922       -11.6988
   8   2.0000      -0.370333       -10.0773
   9   0.0000       0.094355         2.5675
  10   0.0000       0.126248         3.4354
  11   0.0000       0.152980         4.1628
  12   0.0000       0.182537         4.9671
  13   0.0000       0.206633         5.6228

MULLIKEN ATOMIC CHARGES
-----------------------
   0 C :   -0.000625
   1 O :   -0.002998
   2 H :   -0.003598
   3 H :   -0.000181
   4 H :   -0.001249
   5 H :    0.000040
   6 C :   -0.142397
   7 O :   -0.471574
   8 H :    0.315194
   9 H :    0.121419
  10 H :    0.093262
  11 H :    0.092707
Sum of atomic charges:   -0.0000000

LOEWDIN ATOMIC CHARGES
----------------------
   0 C :   -0.002605
   1 O :   -0.005810
   2 H :   -0.031961
   3 H :   -0.000040
   4 H :   -0.000552
   5 H :   -0.000024
   6 C :   -0.404268
   7 O :   -0.006519
   8 H :    0.152504
   9 H :    0.110192
  10 H :    0.094627
  11 H :    0.094455

  Mayer bond orders larger than 0.1
B(  6-C ,  7-O ) :   0.9975 B(  6-C ,  9-H ) :   0.9775 B(  6-C , 10-H ) :   0.9827
B(  6-C , 11-H ) :   0.9667 B(  7-O ,  8-H ) :   0.8967

Dispersion correction           -0.000251251
FINAL SINGLE POINT ENERGY      -115.733928416957

DIPOLE MOMENT
-------------
                                X             Y             Z
Electronic contribution:     -1.72100      -0.46075      -0.57210
Nuclear contribution   :      1.83841       1.04376       0.78624
                        -----------------------------------------
Total Dipole Moment    :      0.11741       0.58301       0.21414
                        -----------------------------------------
Magnitude (a.u.)       :      0.63209
Magnitude (Debye)      :      1.60665

Rotational constants in cm-1:     4.465754     0.851670     0.814917
Rotational constants in MHz : 133879.932150 25532.426806 24430.602898

                             ****ORCA TERMINATED NORMALLY****
TOTAL RUN TIME: 0 days 0 hours 1 minutes 6 seconds 199 msec
