                         Program Version 4.1.2  - RELEASE  -
|  1> #Run DFT-D3 single point of the dimer
|  2> ! wB97X-D3 def2-TZVP TIGHTSCF CHELPG PMODEL PAL8
|  3>
|  4> %base "19-62_DFT_AB"
|  5>
|  6> %scf
|  7> MaxIter 1000
|  8> end
|  9>
| 10> * xyz 0 1
| 11>   C                      7.735640             -3.628557            -5.394134
| 12>   O                      6.374040             -3.628548            -5.142410
| 13>   H                      5.933957             -4.477045            -5.105908
| 14>   H                      8.304852             -3.877057            -4.570331
| 15>   H                      7.857922             -4.475036            -6.074864
| 16>   H                      8.076524             -2.769222            -5.967372
| 17>   C                      9.207416             1.059955             -5.662795
| 18>   O                      9.499571             2.188477             -4.833587
| 19>   H                      10.413787            2.350852             -5.055094
| 20>   H                      8.210262             0.629077             -5.659522
| 21>   H                      9.343700             1.313772             -6.703385
| 22>   H                      9.797149             0.186247             -5.424328
| 23> *
| 24>
| 25> #Run DFT-D3 single point of the molecule with dimer basis set
| 26> $new_job
| 27> %base "19-62_DFT_A"
| 28> ! wB97X-D3 def2-TZVP TIGHTSCF CHELPG PMODEL
| 29>
| 30> %scf
| 31> MaxIter 1000
| 32> end
| 33>
| 34> * xyz 0 1
| 35>   C                      7.735640             -3.628557            -5.394134
| 36>   O                      6.374040             -3.628548            -5.142410
| 37>   H                      5.933957             -4.477045            -5.105908
| 38>   H                      8.304852             -3.877057            -4.570331
| 39>   H                      7.857922             -4.475036            -6.074864
| 40>   H                      8.076524             -2.769222            -5.967372
| 41>   C                    : 9.207416             1.059955             -5.662795
| 42>   O                    : 9.499571             2.188477             -4.833587
| 43>   H                    : 10.413787            2.350852             -5.055094
| 44>   H                    : 8.210262             0.629077             -5.659522
| 45>   H                    : 9.343700             1.313772             -6.703385
| 46>   H                    : 9.797149             0.186247             -5.424328
| 47> *
| 48>
| 49> #Run DFT-D3 single point of the particle with dimer basis set
| 50> $new_job
| 51> %base "19-62_DFT_B"
| 52> ! wB97X-D3 def2-TZVP TIGHTSCF CHELPG PMODEL
| 53>
| 54> %scf
| 55> MaxIter 1000
| 56> end
| 57>
| 58> * xyz 0 1
| 59>   C                    : 7.735640             -3.628557            -5.394134
| 60>   O                    : 6.374040             -3.628548            -5.142410
| 61>   H                    : 5.933957             -4.477045            -5.105908
| 62>   H                    : 8.304852             -3.877057            -4.570331
| 63>   H                    : 7.857922             -4.475036            -6.074864
| 64>   H                    : 8.076524             -2.769222            -5.967372
| 65>   C                      9.207416             1.059955             -5.662795
| 66>   O                      9.499571             2.188477             -4.833587
| 67>   H                      10.413787            2.350852             -5.055094
| 68>   H                      8.210262             0.629077             -5.659522
| 69>   H                      9.343700             1.313772             -6.703385
| 70>   H                      9.797149             0.186247             -5.424328
| 71> *
| 72>
| 73>                          ****END OF INPUT****
 Total Charge           Charge          ....    0
 Multiplicity           Mult            ....    1
 Number of Electrons    NEL             ....   36
Dispersion correction           -0.000827690
FINAL SINGLE POINT ENERGY      -231.455127390994
Dispersion correction           -0.000222511
FINAL SINGLE POINT ENERGY      -115.725146657336

CARTESIAN COORDINATES (ANGSTROEM)
---------------------------------
  C      7.735640   -3.628557   -5.394134
  O      6.374040   -3.628548   -5.142410
  H      5.933957   -4.477045   -5.105908
  H      8.304852   -3.877057   -4.570331
  H      7.857922   -4.475036   -6.074864
  H      8.076524   -2.769222   -5.967372
  C      9.207416    1.059955   -5.662795
  O      9.499571    2.188477   -4.833587
  H     10.413787    2.350852   -5.055094
  H      8.210262    0.629077   -5.659522
  H      9.343700    1.313772   -6.703385
  H      9.797149    0.186247   -5.424328

 Multiplicity           Mult            ....    1
 Number of Electrons    NEL             ....   18
 Basis Dimension        Dim             ....  172

ORBITAL ENERGIES
----------------

  NO   OCC          E(Eh)            E(eV)
   0   2.0000     -19.234517      -523.3978
   1   2.0000     -10.311078      -280.5787
   2   2.0000      -1.137890       -30.9636
   3   2.0000      -0.800379       -21.7794
   4   2.0000      -0.606372       -16.5002
   5   2.0000      -0.545981       -14.8569
   6   2.0000      -0.530337       -14.4312
   7   2.0000      -0.434730       -11.8296
   8   2.0000      -0.378018       -10.2864
   9   0.0000       0.083011         2.2588
  10   0.0000       0.117200         3.1892
  11   0.0000       0.136723         3.7204
  12   0.0000       0.170018         4.6264
  13   0.0000       0.196143         5.3373

MULLIKEN ATOMIC CHARGES
-----------------------
   0 C :    0.000121
   1 O :    0.000000
   2 H :   -0.000000
   3 H :   -0.000013
   4 H :   -0.000024
   5 H :   -0.000390
   6 C :   -0.190572
   7 O :   -0.463265
   8 H :    0.316811
   9 H :    0.121667
  10 H :    0.108278
  11 H :    0.107386
Sum of atomic charges:   -0.0000000

LOEWDIN ATOMIC CHARGES
----------------------
   0 C :   -0.000201
   1 O :   -0.000004
   2 H :   -0.000000
   3 H :   -0.000008
   4 H :   -0.000001
   5 H :   -0.000344
   6 C :   -0.383265
   7 O :   -0.082247
   8 H :    0.170446
   9 H :    0.107936
  10 H :    0.094093
  11 H :    0.093596

  Mayer bond orders larger than 0.1
B(  6-C ,  7-O ) :   0.9964 B(  6-C ,  9-H ) :   0.9722 B(  6-C , 10-H ) :   0.9817
B(  6-C , 11-H ) :   0.9766 B(  7-O ,  8-H ) :   0.9018

Dispersion correction           -0.000238549
FINAL SINGLE POINT ENERGY      -115.729707898873

DIPOLE MOMENT
-------------
                                X             Y             Z
Electronic contribution:      0.21307       1.54775       1.23118
Nuclear contribution   :      0.22130      -1.90942      -1.70429
                        -----------------------------------------
Total Dipole Moment    :      0.43437      -0.36167      -0.47311
                        -----------------------------------------
Magnitude (a.u.)       :      0.73709
Magnitude (Debye)      :      1.87355

Rotational constants in cm-1:     4.533959     0.807228     0.785197
Rotational constants in MHz : 135924.669431 24200.096639 23539.603272

                             ****ORCA TERMINATED NORMALLY****
TOTAL RUN TIME: 0 days 0 hours 0 minutes 47 seconds 716 msec
