                         Program Version 4.1.2  - RELEASE  -
|  1> #Run DFT-D3 single point of the dimer
|  2> ! wB97X-D3 def2-TZVP TIGHTSCF CHELPG PMODEL PAL8
|  3>
|  4> %base "18-56_DFT_AB"
|  5>
|  6> %scf
|  7> MaxIter 1000
|  8> end
|  9>
| 10> * xyz 0 1
| 11>   C                      1.360282             -4.777872            -0.154041
| 12>   O                      0.112124             -4.454516            0.466890
| 13>   H                      0.255263             -3.645348            0.929075
| 14>   H                      1.579164             -4.006664            -0.829384
| 15>   H                      2.089112             -4.804114            0.602860
| 16>   H                      1.466500             -5.741228            -0.685839
| 17>   C                      3.266396             -0.889285            -2.984227
| 18>   O                      3.505058             0.481020             -3.203924
| 19>   H                      2.891223             0.829937             -3.866826
| 20>   H                      2.185870             -1.135374            -3.076854
| 21>   H                      3.829845             -1.465213            -3.662764
| 22>   H                      3.600866             -1.211609            -1.939577
| 23> *
| 24>
| 25> #Run DFT-D3 single point of the molecule with dimer basis set
| 26> $new_job
| 27> %base "18-56_DFT_A"
| 28> ! wB97X-D3 def2-TZVP TIGHTSCF CHELPG PMODEL
| 29>
| 30> %scf
| 31> MaxIter 1000
| 32> end
| 33>
| 34> * xyz 0 1
| 35>   C                      1.360282             -4.777872            -0.154041
| 36>   O                      0.112124             -4.454516            0.466890
| 37>   H                      0.255263             -3.645348            0.929075
| 38>   H                      1.579164             -4.006664            -0.829384
| 39>   H                      2.089112             -4.804114            0.602860
| 40>   H                      1.466500             -5.741228            -0.685839
| 41>   C                    : 3.266396             -0.889285            -2.984227
| 42>   O                    : 3.505058             0.481020             -3.203924
| 43>   H                    : 2.891223             0.829937             -3.866826
| 44>   H                    : 2.185870             -1.135374            -3.076854
| 45>   H                    : 3.829845             -1.465213            -3.662764
| 46>   H                    : 3.600866             -1.211609            -1.939577
| 47> *
| 48>
| 49> #Run DFT-D3 single point of the particle with dimer basis set
| 50> $new_job
| 51> %base "18-56_DFT_B"
| 52> ! wB97X-D3 def2-TZVP TIGHTSCF CHELPG PMODEL
| 53>
| 54> %scf
| 55> MaxIter 1000
| 56> end
| 57>
| 58> * xyz 0 1
| 59>   C                    : 1.360282             -4.777872            -0.154041
| 60>   O                    : 0.112124             -4.454516            0.466890
| 61>   H                    : 0.255263             -3.645348            0.929075
| 62>   H                    : 1.579164             -4.006664            -0.829384
| 63>   H                    : 2.089112             -4.804114            0.602860
| 64>   H                    : 1.466500             -5.741228            -0.685839
| 65>   C                      3.266396             -0.889285            -2.984227
| 66>   O                      3.505058             0.481020             -3.203924
| 67>   H                      2.891223             0.829937             -3.866826
| 68>   H                      2.185870             -1.135374            -3.076854
| 69>   H                      3.829845             -1.465213            -3.662764
| 70>   H                      3.600866             -1.211609            -1.939577
| 71> *
| 72>
| 73>                          ****END OF INPUT****
 Total Charge           Charge          ....    0
 Multiplicity           Mult            ....    1
 Number of Electrons    NEL             ....   36
Dispersion correction           -0.000748280
FINAL SINGLE POINT ENERGY      -231.461964562479
Dispersion correction           -0.000217386
FINAL SINGLE POINT ENERGY      -115.728420303093

CARTESIAN COORDINATES (ANGSTROEM)
---------------------------------
  C      1.360282   -4.777872   -0.154041
  O      0.112124   -4.454516    0.466890
  H      0.255263   -3.645348    0.929075
  H      1.579164   -4.006664   -0.829384
  H      2.089112   -4.804114    0.602860
  H      1.466500   -5.741228   -0.685839
  C      3.266396   -0.889285   -2.984227
  O      3.505058    0.481020   -3.203924
  H      2.891223    0.829937   -3.866826
  H      2.185870   -1.135374   -3.076854
  H      3.829845   -1.465213   -3.662764
  H      3.600866   -1.211609   -1.939577

 Multiplicity           Mult            ....    1
 Number of Electrons    NEL             ....   18
 Basis Dimension        Dim             ....  172

ORBITAL ENERGIES
----------------

  NO   OCC          E(Eh)            E(eV)
   0   2.0000     -19.229097      -523.2503
   1   2.0000     -10.315422      -280.6969
   2   2.0000      -1.134442       -30.8697
   3   2.0000      -0.793528       -21.5930
   4   2.0000      -0.610060       -16.6006
   5   2.0000      -0.546081       -14.8596
   6   2.0000      -0.524471       -14.2716
   7   2.0000      -0.426495       -11.6055
   8   2.0000      -0.372745       -10.1429
   9   0.0000       0.083902         2.2831
  10   0.0000       0.114364         3.1120
  11   0.0000       0.143581         3.9070
  12   0.0000       0.164072         4.4646
  13   0.0000       0.186295         5.0694

MULLIKEN ATOMIC CHARGES
-----------------------
   0 C :    0.000337
   1 O :   -0.000002
   2 H :   -0.000010
   3 H :   -0.000694
   4 H :   -0.000026
   5 H :   -0.000017
   6 C :   -0.149662
   7 O :   -0.480067
   8 H :    0.318171
   9 H :    0.098776
  10 H :    0.104353
  11 H :    0.108842
Sum of atomic charges:   -0.0000000

LOEWDIN ATOMIC CHARGES
----------------------
   0 C :   -0.000079
   1 O :   -0.000002
   2 H :   -0.000002
   3 H :   -0.000297
   4 H :   -0.000004
   5 H :   -0.000001
   6 C :   -0.390680
   7 O :   -0.080436
   8 H :    0.173923
   9 H :    0.098180
  10 H :    0.084583
  11 H :    0.114815

  Mayer bond orders larger than 0.1
B(  6-C ,  7-O ) :   1.0042 B(  6-C ,  9-H ) :   0.9831 B(  6-C , 10-H ) :   0.9760
B(  6-C , 11-H ) :   0.9720 B(  7-O ,  8-H ) :   0.8949

Dispersion correction           -0.000246508
FINAL SINGLE POINT ENERGY      -115.733215347152

DIPOLE MOMENT
-------------
                                X             Y             Z
Electronic contribution:      0.40953       1.76459      -0.26233
Nuclear contribution   :     -0.90262      -2.08629      -0.08923
                        -----------------------------------------
Total Dipole Moment    :     -0.49309      -0.32170      -0.35156
                        -----------------------------------------
Magnitude (a.u.)       :      0.68573
Magnitude (Debye)      :      1.74298

Rotational constants in cm-1:     4.270218     0.832808     0.798723
Rotational constants in MHz : 128017.920558 24966.954896 23945.114172

                             ****ORCA TERMINATED NORMALLY****
TOTAL RUN TIME: 0 days 0 hours 0 minutes 50 seconds 783 msec
