                         Program Version 4.1.2  - RELEASE  -
|  1> #Run DFT-D3 single point of the dimer
|  2> ! wB97X-D3 def2-TZVP TIGHTSCF CHELPG PMODEL PAL8
|  3>
|  4> %base "13-135_DFT_AB"
|  5>
|  6> %scf
|  7> MaxIter 1000
|  8> end
|  9>
| 10> * xyz 0 1
| 11>   C                      -6.083136            5.885562             7.272078
| 12>   O                      -5.275935            6.974609             7.448054
| 13>   H                      -4.771461            7.052453             6.604360
| 14>   H                      -6.995972            5.890797             7.959285
| 15>   H                      -6.525911            5.758707             6.203153
| 16>   H                      -5.455596            4.991916             7.471403
| 17>   C                      -8.442272            8.587771             7.921201
| 18>   O                      -7.077809            8.894588             8.253846
| 19>   H                      -6.520433            8.298037             7.747672
| 20>   H                      -9.172113            9.401632             8.219784
| 21>   H                      -8.441052            8.470116             6.835245
| 22>   H                      -8.718310            7.655765             8.419428
| 23> *
| 24>
| 25> #Run DFT-D3 single point of the molecule with dimer basis set
| 26> $new_job
| 27> %base "13-135_DFT_A"
| 28> ! wB97X-D3 def2-TZVP TIGHTSCF CHELPG PMODEL
| 29>
| 30> %scf
| 31> MaxIter 1000
| 32> end
| 33>
| 34> * xyz 0 1
| 35>   C                      -6.083136            5.885562             7.272078
| 36>   O                      -5.275935            6.974609             7.448054
| 37>   H                      -4.771461            7.052453             6.604360
| 38>   H                      -6.995972            5.890797             7.959285
| 39>   H                      -6.525911            5.758707             6.203153
| 40>   H                      -5.455596            4.991916             7.471403
| 41>   C                    : -8.442272            8.587771             7.921201
| 42>   O                    : -7.077809            8.894588             8.253846
| 43>   H                    : -6.520433            8.298037             7.747672
| 44>   H                    : -9.172113            9.401632             8.219784
| 45>   H                    : -8.441052            8.470116             6.835245
| 46>   H                    : -8.718310            7.655765             8.419428
| 47> *
| 48>
| 49> #Run DFT-D3 single point of the particle with dimer basis set
| 50> $new_job
| 51> %base "13-135_DFT_B"
| 52> ! wB97X-D3 def2-TZVP TIGHTSCF CHELPG PMODEL
| 53>
| 54> %scf
| 55> MaxIter 1000
| 56> end
| 57>
| 58> * xyz 0 1
| 59>   C                    : -6.083136            5.885562             7.272078
| 60>   O                    : -5.275935            6.974609             7.448054
| 61>   H                    : -4.771461            7.052453             6.604360
| 62>   H                    : -6.995972            5.890797             7.959285
| 63>   H                    : -6.525911            5.758707             6.203153
| 64>   H                    : -5.455596            4.991916             7.471403
| 65>   C                      -8.442272            8.587771             7.921201
| 66>   O                      -7.077809            8.894588             8.253846
| 67>   H                      -6.520433            8.298037             7.747672
| 68>   H                      -9.172113            9.401632             8.219784
| 69>   H                      -8.441052            8.470116             6.835245
| 70>   H                      -8.718310            7.655765             8.419428
| 71> *
| 72>
| 73>                          ****END OF INPUT****
 Total Charge           Charge          ....    0
 Multiplicity           Mult            ....    1
 Number of Electrons    NEL             ....   36
Dispersion correction           -0.002159382
FINAL SINGLE POINT ENERGY      -231.467090779869
Dispersion correction           -0.000234275
FINAL SINGLE POINT ENERGY      -115.728707659821

CARTESIAN COORDINATES (ANGSTROEM)
---------------------------------
  C     -6.083136    5.885562    7.272078
  O     -5.275935    6.974609    7.448054
  H     -4.771461    7.052453    6.604360
  H     -6.995972    5.890797    7.959285
  H     -6.525911    5.758707    6.203153
  H     -5.455596    4.991916    7.471403
  C     -8.442272    8.587771    7.921201
  O     -7.077809    8.894588    8.253846
  H     -6.520433    8.298037    7.747672
  H     -9.172113    9.401632    8.219784
  H     -8.441052    8.470116    6.835245
  H     -8.718310    7.655765    8.419428

 Multiplicity           Mult            ....    1
 Number of Electrons    NEL             ....   18
 Basis Dimension        Dim             ....  172

ORBITAL ENERGIES
----------------

  NO   OCC          E(Eh)            E(eV)
   0   2.0000     -19.227644      -523.2108
   1   2.0000     -10.319616      -280.8110
   2   2.0000      -1.129077       -30.7237
   3   2.0000      -0.791381       -21.5346
   4   2.0000      -0.602586       -16.3972
   5   2.0000      -0.545102       -14.8330
   6   2.0000      -0.526391       -14.3238
   7   2.0000      -0.430109       -11.7039
   8   2.0000      -0.372530       -10.1371
   9   0.0000       0.068851         1.8735
  10   0.0000       0.139035         3.7833
  11   0.0000       0.144601         3.9348
  12   0.0000       0.167941         4.5699
  13   0.0000       0.187412         5.0997

MULLIKEN ATOMIC CHARGES
-----------------------
   0 C :   -0.005931
   1 O :   -0.003487
   2 H :   -0.000172
   3 H :    0.000445
   4 H :    0.000154
   5 H :   -0.000193
   6 C :   -0.181353
   7 O :   -0.470636
   8 H :    0.312324
   9 H :    0.130482
  10 H :    0.109723
  11 H :    0.108643
Sum of atomic charges:   -0.0000000

LOEWDIN ATOMIC CHARGES
----------------------
   0 C :   -0.012622
   1 O :   -0.024481
   2 H :   -0.001595
   3 H :   -0.003514
   4 H :   -0.000343
   5 H :   -0.000219
   6 C :   -0.366155
   7 O :   -0.081894
   8 H :    0.180101
   9 H :    0.116664
  10 H :    0.097938
  11 H :    0.096120

  Mayer bond orders larger than 0.1
B(  6-C ,  7-O ) :   0.9870 B(  6-C ,  9-H ) :   0.9682 B(  6-C , 10-H ) :   0.9896
B(  6-C , 11-H ) :   0.9737 B(  7-O ,  8-H ) :   0.9056

Dispersion correction           -0.000232162
FINAL SINGLE POINT ENERGY      -115.733165029300

DIPOLE MOMENT
-------------
                                X             Y             Z
Electronic contribution:      1.57413       0.51146       0.54054
Nuclear contribution   :     -1.79482      -1.00339      -1.00007
                        -----------------------------------------
Total Dipole Moment    :     -0.22069      -0.49194      -0.45953
                        -----------------------------------------
Magnitude (a.u.)       :      0.70843
Magnitude (Debye)      :      1.80069

Rotational constants in cm-1:     4.157772     0.814801     0.785158
Rotational constants in MHz : 124646.880349 24427.123616 23538.445211

                             ****ORCA TERMINATED NORMALLY****
TOTAL RUN TIME: 0 days 0 hours 1 minutes 11 seconds 506 msec
