                         Program Version 4.1.2  - RELEASE  -
|  1> #Run DFT-D3 single point of the dimer
|  2> ! wB97X-D3 def2-TZVP TIGHTSCF CHELPG PMODEL PAL8
|  3>
|  4> %base "13-96_DFT_AB"
|  5>
|  6> %scf
|  7> MaxIter 1000
|  8> end
|  9>
| 10> * xyz 0 1
| 11>   C                      8.560098             -2.673546            8.422270
| 12>   O                      8.250090             -2.701109            9.788705
| 13>   H                      8.844717             -3.285811            10.224851
| 14>   H                      9.658630             -2.494390            8.335668
| 15>   H                      8.219889             -3.530177            7.895463
| 16>   H                      8.112362             -1.780007            7.980744
| 17>   C                      9.815075             -3.424375            4.878584
| 18>   O                      10.820362            -2.705251            5.617242
| 19>   H                      11.187680            -3.311640            6.224069
| 20>   H                      10.173444            -4.331962            4.363986
| 21>   H                      8.986311             -3.762645            5.565948
| 22>   H                      9.261578             -2.853196            4.128685
| 23> *
| 24>
| 25> #Run DFT-D3 single point of the molecule with dimer basis set
| 26> $new_job
| 27> %base "13-96_DFT_A"
| 28> ! wB97X-D3 def2-TZVP TIGHTSCF CHELPG PMODEL
| 29>
| 30> %scf
| 31> MaxIter 1000
| 32> end
| 33>
| 34> * xyz 0 1
| 35>   C                      8.560098             -2.673546            8.422270
| 36>   O                      8.250090             -2.701109            9.788705
| 37>   H                      8.844717             -3.285811            10.224851
| 38>   H                      9.658630             -2.494390            8.335668
| 39>   H                      8.219889             -3.530177            7.895463
| 40>   H                      8.112362             -1.780007            7.980744
| 41>   C                    : 9.815075             -3.424375            4.878584
| 42>   O                    : 10.820362            -2.705251            5.617242
| 43>   H                    : 11.187680            -3.311640            6.224069
| 44>   H                    : 10.173444            -4.331962            4.363986
| 45>   H                    : 8.986311             -3.762645            5.565948
| 46>   H                    : 9.261578             -2.853196            4.128685
| 47> *
| 48>
| 49> #Run DFT-D3 single point of the particle with dimer basis set
| 50> $new_job
| 51> %base "13-96_DFT_B"
| 52> ! wB97X-D3 def2-TZVP TIGHTSCF CHELPG PMODEL
| 53>
| 54> %scf
| 55> MaxIter 1000
| 56> end
| 57>
| 58> * xyz 0 1
| 59>   C                    : 8.560098             -2.673546            8.422270
| 60>   O                    : 8.250090             -2.701109            9.788705
| 61>   H                    : 8.844717             -3.285811            10.224851
| 62>   H                    : 9.658630             -2.494390            8.335668
| 63>   H                    : 8.219889             -3.530177            7.895463
| 64>   H                    : 8.112362             -1.780007            7.980744
| 65>   C                      9.815075             -3.424375            4.878584
| 66>   O                      10.820362            -2.705251            5.617242
| 67>   H                      11.187680            -3.311640            6.224069
| 68>   H                      10.173444            -4.331962            4.363986
| 69>   H                      8.986311             -3.762645            5.565948
| 70>   H                      9.261578             -2.853196            4.128685
| 71> *
| 72>
| 73>                          ****END OF INPUT****
 Total Charge           Charge          ....    0
 Multiplicity           Mult            ....    1
 Number of Electrons    NEL             ....   36
Dispersion correction           -0.001820740
FINAL SINGLE POINT ENERGY      -231.467692466823
Dispersion correction           -0.000226227
FINAL SINGLE POINT ENERGY      -115.734537491931

CARTESIAN COORDINATES (ANGSTROEM)
---------------------------------
  C      8.560098   -2.673546    8.422270
  O      8.250090   -2.701109    9.788705
  H      8.844717   -3.285811   10.224851
  H      9.658630   -2.494390    8.335668
  H      8.219889   -3.530177    7.895463
  H      8.112362   -1.780007    7.980744
  C      9.815075   -3.424375    4.878584
  O     10.820362   -2.705251    5.617242
  H     11.187680   -3.311640    6.224069
  H     10.173444   -4.331962    4.363986
  H      8.986311   -3.762645    5.565948
  H      9.261578   -2.853196    4.128685

 Multiplicity           Mult            ....    1
 Number of Electrons    NEL             ....   18
 Basis Dimension        Dim             ....  172

ORBITAL ENERGIES
----------------

  NO   OCC          E(Eh)            E(eV)
   0   2.0000     -19.233662      -523.3745
   1   2.0000     -10.321406      -280.8597
   2   2.0000      -1.137682       -30.9579
   3   2.0000      -0.798156       -21.7189
   4   2.0000      -0.610847       -16.6220
   5   2.0000      -0.534575       -14.5465
   6   2.0000      -0.528635       -14.3849
   7   2.0000      -0.436951       -11.8900
   8   2.0000      -0.377091       -10.2612
   9   0.0000       0.083624         2.2755
  10   0.0000       0.131213         3.5705
  11   0.0000       0.144859         3.9418
  12   0.0000       0.170970         4.6523
  13   0.0000       0.189574         5.1586

MULLIKEN ATOMIC CHARGES
-----------------------
   0 C :    0.005512
   1 O :   -0.000028
   2 H :   -0.000004
   3 H :   -0.008874
   4 H :   -0.000072
   5 H :   -0.001218
   6 C :   -0.186687
   7 O :   -0.461876
   8 H :    0.313271
   9 H :    0.113173
  10 H :    0.100092
  11 H :    0.126712
Sum of atomic charges:   -0.0000000

LOEWDIN ATOMIC CHARGES
----------------------
   0 C :   -0.006720
   1 O :   -0.000045
   2 H :   -0.000004
   3 H :   -0.004741
   4 H :   -0.003167
   5 H :   -0.000343
   6 C :   -0.374355
   7 O :   -0.071268
   8 H :    0.152279
   9 H :    0.096770
  10 H :    0.103028
  11 H :    0.108566

  Mayer bond orders larger than 0.1
B(  6-C ,  7-O ) :   0.9988 B(  6-C ,  9-H ) :   0.9755 B(  6-C , 10-H ) :   0.9774
B(  6-C , 11-H ) :   0.9719 B(  7-O ,  8-H ) :   0.9041

Dispersion correction           -0.000266137
FINAL SINGLE POINT ENERGY      -115.732282326013

DIPOLE MOMENT
-------------
                                X             Y             Z
Electronic contribution:      1.41277       1.12928       0.81685
Nuclear contribution   :     -1.59041      -1.80275      -0.74883
                        -----------------------------------------
Total Dipole Moment    :     -0.17764      -0.67348       0.06802
                        -----------------------------------------
Magnitude (a.u.)       :      0.69982
Magnitude (Debye)      :      1.77881

Rotational constants in cm-1:     4.397096     0.792308     0.769386
Rotational constants in MHz : 131821.631192 23752.792639 23065.612327

                             ****ORCA TERMINATED NORMALLY****
TOTAL RUN TIME: 0 days 0 hours 1 minutes 6 seconds 794 msec
