                         Program Version 4.1.2  - RELEASE  -
|  1> #Run DFT-D3 single point of the dimer
|  2> ! wB97X-D3 def2-TZVP TIGHTSCF CHELPG PMODEL PAL8
|  3>
|  4> %base "1-81_DFT_AB"
|  5>
|  6> %scf
|  7> MaxIter 1000
|  8> end
|  9>
| 10> * xyz 0 1
| 11>   C                      -2.564663            -10.829491           0.819036
| 12>   O                      -1.332082            -11.025152           1.444712
| 13>   H                      -1.579110            -11.609815           2.161669
| 14>   H                      -2.334350            -10.176657           -0.055430
| 15>   H                      -2.996839            -11.752730           0.453297
| 16>   H                      -3.253794            -10.236978           1.399588
| 17>   C                      -6.491210            -8.481387            -1.791997
| 18>   O                      -5.921451            -9.793450            -1.602749
| 19>   H                      -5.765554            -9.851945            -0.642121
| 20>   H                      -6.031309            -7.828102            -2.509540
| 21>   H                      -7.534924            -8.603716            -2.029475
| 22>   H                      -6.563337            -7.926982            -0.853387
| 23> *
| 24>
| 25> #Run DFT-D3 single point of the molecule with dimer basis set
| 26> $new_job
| 27> %base "1-81_DFT_A"
| 28> ! wB97X-D3 def2-TZVP TIGHTSCF CHELPG PMODEL
| 29>
| 30> %scf
| 31> MaxIter 1000
| 32> end
| 33>
| 34> * xyz 0 1
| 35>   C                      -2.564663            -10.829491           0.819036
| 36>   O                      -1.332082            -11.025152           1.444712
| 37>   H                      -1.579110            -11.609815           2.161669
| 38>   H                      -2.334350            -10.176657           -0.055430
| 39>   H                      -2.996839            -11.752730           0.453297
| 40>   H                      -3.253794            -10.236978           1.399588
| 41>   C                    : -6.491210            -8.481387            -1.791997
| 42>   O                    : -5.921451            -9.793450            -1.602749
| 43>   H                    : -5.765554            -9.851945            -0.642121
| 44>   H                    : -6.031309            -7.828102            -2.509540
| 45>   H                    : -7.534924            -8.603716            -2.029475
| 46>   H                    : -6.563337            -7.926982            -0.853387
| 47> *
| 48>
| 49> #Run DFT-D3 single point of the particle with dimer basis set
| 50> $new_job
| 51> %base "1-81_DFT_B"
| 52> ! wB97X-D3 def2-TZVP TIGHTSCF CHELPG PMODEL
| 53>
| 54> %scf
| 55> MaxIter 1000
| 56> end
| 57>
| 58> * xyz 0 1
| 59>   C                    : -2.564663            -10.829491           0.819036
| 60>   O                    : -1.332082            -11.025152           1.444712
| 61>   H                    : -1.579110            -11.609815           2.161669
| 62>   H                    : -2.334350            -10.176657           -0.055430
| 63>   H                    : -2.996839            -11.752730           0.453297
| 64>   H                    : -3.253794            -10.236978           1.399588
| 65>   C                      -6.491210            -8.481387            -1.791997
| 66>   O                      -5.921451            -9.793450            -1.602749
| 67>   H                      -5.765554            -9.851945            -0.642121
| 68>   H                      -6.031309            -7.828102            -2.509540
| 69>   H                      -7.534924            -8.603716            -2.029475
| 70>   H                      -6.563337            -7.926982            -0.853387
| 71> *
| 72>
| 73>                          ****END OF INPUT****
 Total Charge           Charge          ....    0
 Multiplicity           Mult            ....    1
 Number of Electrons    NEL             ....   36
Dispersion correction           -0.000978571
FINAL SINGLE POINT ENERGY      -231.464769743433
Dispersion correction           -0.000214971
FINAL SINGLE POINT ENERGY      -115.733721818786

CARTESIAN COORDINATES (ANGSTROEM)
---------------------------------
  C     -2.564663  -10.829491    0.819036
  O     -1.332082  -11.025152    1.444712
  H     -1.579110  -11.609815    2.161669
  H     -2.334350  -10.176657   -0.055430
  H     -2.996839  -11.752730    0.453297
  H     -3.253794  -10.236978    1.399588
  C     -6.491210   -8.481387   -1.791997
  O     -5.921451   -9.793450   -1.602749
  H     -5.765554   -9.851945   -0.642121
  H     -6.031309   -7.828102   -2.509540
  H     -7.534924   -8.603716   -2.029475
  H     -6.563337   -7.926982   -0.853387

 Multiplicity           Mult            ....    1
 Number of Electrons    NEL             ....   18
 Basis Dimension        Dim             ....  172

ORBITAL ENERGIES
----------------

  NO   OCC          E(Eh)            E(eV)
   0   2.0000     -19.233962      -523.3827
   1   2.0000     -10.311406      -280.5876
   2   2.0000      -1.127629       -30.6843
   3   2.0000      -0.799086       -21.7442
   4   2.0000      -0.606282       -16.4978
   5   2.0000      -0.543878       -14.7997
   6   2.0000      -0.521389       -14.1877
   7   2.0000      -0.437151       -11.8955
   8   2.0000      -0.376289       -10.2393
   9   0.0000       0.077230         2.1015
  10   0.0000       0.117395         3.1945
  11   0.0000       0.148757         4.0479
  12   0.0000       0.179544         4.8857
  13   0.0000       0.190736         5.1902

MULLIKEN ATOMIC CHARGES
-----------------------
   0 C :   -0.000994
   1 O :   -0.000059
   2 H :   -0.000013
   3 H :   -0.000827
   4 H :    0.000041
   5 H :   -0.000323
   6 C :   -0.186855
   7 O :   -0.471784
   8 H :    0.319790
   9 H :    0.119900
  10 H :    0.113552
  11 H :    0.107571
Sum of atomic charges:    0.0000000

LOEWDIN ATOMIC CHARGES
----------------------
   0 C :   -0.001552
   1 O :   -0.000017
   2 H :   -0.000010
   3 H :   -0.000516
   4 H :   -0.000105
   5 H :   -0.000319
   6 C :   -0.367899
   7 O :   -0.102143
   8 H :    0.178991
   9 H :    0.097410
  10 H :    0.097895
  11 H :    0.098265

  Mayer bond orders larger than 0.1
B(  6-C ,  7-O ) :   1.0080 B(  6-C ,  9-H ) :   0.9691 B(  6-C , 10-H ) :   0.9792
B(  6-C , 11-H ) :   0.9870 B(  7-O ,  8-H ) :   0.8986

Dispersion correction           -0.000253618
FINAL SINGLE POINT ENERGY      -115.730693039813

DIPOLE MOMENT
-------------
                                X             Y             Z
Electronic contribution:      0.85521      -1.70506      -0.02837
Nuclear contribution   :     -1.00624       2.21503       0.57584
                        -----------------------------------------
Total Dipole Moment    :     -0.15103       0.50998       0.54747
                        -----------------------------------------
Magnitude (a.u.)       :      0.76329
Magnitude (Debye)      :      1.94013

Rotational constants in cm-1:     4.410261     0.802839     0.774428
Rotational constants in MHz : 132216.285131 24068.517274 23216.773447

                             ****ORCA TERMINATED NORMALLY****
TOTAL RUN TIME: 0 days 0 hours 5 minutes 54 seconds 26 msec
