                         Program Version 4.1.2  - RELEASE  -
|  1> #Run DFT-D3 single point of the dimer
|  2> ! wB97X-D3 def2-TZVP TIGHTSCF CHELPG PMODEL PAL8
|  3>
|  4> %base "13-42_DFT_AB"
|  5>
|  6> %scf
|  7> MaxIter 1000
|  8> end
|  9>
| 10> * xyz 0 1
| 11>   C                      2.238468             -1.442492            -1.376394
| 12>   O                      1.121689             -1.733540            -0.514272
| 13>   H                      1.431541             -2.499082            -0.058163
| 14>   H                      3.190386             -1.760322            -0.835746
| 15>   H                      2.025457             -1.974779            -2.354060
| 16>   H                      2.293692             -0.377440            -1.575006
| 17>   C                      -0.823305            0.756648             0.372796
| 18>   O                      -1.029271            -0.427082            1.079613
| 19>   H                      -0.643484            -1.120501            0.491262
| 20>   H                      -1.596986            0.832621             -0.419823
| 21>   H                      -0.919272            1.620018             1.035924
| 22>   H                      0.173242             0.883099             0.019278
| 23> *
| 24>
| 25> #Run DFT-D3 single point of the molecule with dimer basis set
| 26> $new_job
| 27> %base "13-42_DFT_A"
| 28> ! wB97X-D3 def2-TZVP TIGHTSCF CHELPG PMODEL
| 29>
| 30> %scf
| 31> MaxIter 1000
| 32> end
| 33>
| 34> * xyz 0 1
| 35>   C                      2.238468             -1.442492            -1.376394
| 36>   O                      1.121689             -1.733540            -0.514272
| 37>   H                      1.431541             -2.499082            -0.058163
| 38>   H                      3.190386             -1.760322            -0.835746
| 39>   H                      2.025457             -1.974779            -2.354060
| 40>   H                      2.293692             -0.377440            -1.575006
| 41>   C                    : -0.823305            0.756648             0.372796
| 42>   O                    : -1.029271            -0.427082            1.079613
| 43>   H                    : -0.643484            -1.120501            0.491262
| 44>   H                    : -1.596986            0.832621             -0.419823
| 45>   H                    : -0.919272            1.620018             1.035924
| 46>   H                    : 0.173242             0.883099             0.019278
| 47> *
| 48>
| 49> #Run DFT-D3 single point of the particle with dimer basis set
| 50> $new_job
| 51> %base "13-42_DFT_B"
| 52> ! wB97X-D3 def2-TZVP TIGHTSCF CHELPG PMODEL
| 53>
| 54> %scf
| 55> MaxIter 1000
| 56> end
| 57>
| 58> * xyz 0 1
| 59>   C                    : 2.238468             -1.442492            -1.376394
| 60>   O                    : 1.121689             -1.733540            -0.514272
| 61>   H                    : 1.431541             -2.499082            -0.058163
| 62>   H                    : 3.190386             -1.760322            -0.835746
| 63>   H                    : 2.025457             -1.974779            -2.354060
| 64>   H                    : 2.293692             -0.377440            -1.575006
| 65>   C                      -0.823305            0.756648             0.372796
| 66>   O                      -1.029271            -0.427082            1.079613
| 67>   H                      -0.643484            -1.120501            0.491262
| 68>   H                      -1.596986            0.832621             -0.419823
| 69>   H                      -0.919272            1.620018             1.035924
| 70>   H                      0.173242             0.883099             0.019278
| 71> *
| 72>
| 73>                          ****END OF INPUT****
 Total Charge           Charge          ....    0
 Multiplicity           Mult            ....    1
 Number of Electrons    NEL             ....   36
Dispersion correction           -0.001827438
FINAL SINGLE POINT ENERGY      -231.470901907671
Dispersion correction           -0.000233270
FINAL SINGLE POINT ENERGY      -115.730957885594

CARTESIAN COORDINATES (ANGSTROEM)
---------------------------------
  C      2.238468   -1.442492   -1.376394
  O      1.121689   -1.733540   -0.514272
  H      1.431541   -2.499082   -0.058163
  H      3.190386   -1.760322   -0.835746
  H      2.025457   -1.974779   -2.354060
  H      2.293692   -0.377440   -1.575006
  C     -0.823305    0.756648    0.372796
  O     -1.029271   -0.427082    1.079613
  H     -0.643484   -1.120501    0.491262
  H     -1.596986    0.832621   -0.419823
  H     -0.919272    1.620018    1.035924
  H      0.173242    0.883099    0.019278

 Multiplicity           Mult            ....    1
 Number of Electrons    NEL             ....   18
 Basis Dimension        Dim             ....  172

ORBITAL ENERGIES
----------------

  NO   OCC          E(Eh)            E(eV)
   0   2.0000     -19.233997      -523.3837
   1   2.0000     -10.309095      -280.5247
   2   2.0000      -1.140635       -31.0383
   3   2.0000      -0.792022       -21.5520
   4   2.0000      -0.609448       -16.5839
   5   2.0000      -0.552920       -15.0457
   6   2.0000      -0.525804       -14.3079
   7   2.0000      -0.430945       -11.7266
   8   2.0000      -0.374464       -10.1897
   9   0.0000       0.070827         1.9273
  10   0.0000       0.127218         3.4618
  11   0.0000       0.145364         3.9555
  12   0.0000       0.183369         4.9897
  13   0.0000       0.185888         5.0583

MULLIKEN ATOMIC CHARGES
-----------------------
   0 C :    0.000571
   1 O :   -0.004652
   2 H :   -0.000907
   3 H :    0.000005
   4 H :   -0.000050
   5 H :   -0.000738
   6 C :   -0.161037
   7 O :   -0.463313
   8 H :    0.317530
   9 H :    0.097818
  10 H :    0.111129
  11 H :    0.103642
Sum of atomic charges:    0.0000000

LOEWDIN ATOMIC CHARGES
----------------------
   0 C :   -0.001955
   1 O :   -0.014357
   2 H :   -0.001601
   3 H :   -0.000021
   4 H :   -0.000027
   5 H :   -0.000917
   6 C :   -0.404505
   7 O :   -0.065731
   8 H :    0.193271
   9 H :    0.098757
  10 H :    0.107381
  11 H :    0.089704

  Mayer bond orders larger than 0.1
B(  6-C ,  7-O ) :   1.0048 B(  6-C ,  9-H ) :   0.9852 B(  6-C , 10-H ) :   0.9725
B(  6-C , 11-H ) :   0.9741 B(  7-O ,  8-H ) :   0.9004

Dispersion correction           -0.000222200
FINAL SINGLE POINT ENERGY      -115.733005310981

DIPOLE MOMENT
-------------
                                X             Y             Z
Electronic contribution:     -0.29675      -1.50636       1.01602
Nuclear contribution   :      0.63581       1.54425      -1.61798
                        -----------------------------------------
Total Dipole Moment    :      0.33906       0.03788      -0.60196
                        -----------------------------------------
Magnitude (a.u.)       :      0.69192
Magnitude (Debye)      :      1.75872

Rotational constants in cm-1:     4.247462     0.849992     0.827844
Rotational constants in MHz : 127335.708615 25482.129804 24818.124766

                             ****ORCA TERMINATED NORMALLY****
TOTAL RUN TIME: 0 days 0 hours 1 minutes 10 seconds 964 msec
