                         Program Version 4.1.2  - RELEASE  -
|  1> #Run DFT-D3 single point of the dimer
|  2> ! wB97X-D3 def2-TZVP TIGHTSCF CHELPG PMODEL PAL8
|  3>
|  4> %base "22-99_DFT_AB"
|  5>
|  6> %scf
|  7> MaxIter 1000
|  8> end
|  9>
| 10> * xyz 0 1
| 11>   C                      8.152796             8.556054             -5.321419
| 12>   O                      6.909219             9.044673             -4.812207
| 13>   H                      6.285718             8.702034             -5.470259
| 14>   H                      8.064256             8.349003             -6.365875
| 15>   H                      9.010342             9.257000             -5.240811
| 16>   H                      8.377186             7.606242             -4.788367
| 17>   C                      9.131496             8.642149             -10.889142
| 18>   O                      8.416454             7.496642             -11.255507
| 19>   H                      7.910878             7.238208             -10.442181
| 20>   H                      8.768745             9.228676             -10.007910
| 21>   H                      10.229135            8.312411             -10.763482
| 22>   H                      9.056931             9.478766             -11.595643
| 23> *
| 24>
| 25> #Run DFT-D3 single point of the molecule with dimer basis set
| 26> $new_job
| 27> %base "22-99_DFT_A"
| 28> ! wB97X-D3 def2-TZVP TIGHTSCF CHELPG PMODEL
| 29>
| 30> %scf
| 31> MaxIter 1000
| 32> end
| 33>
| 34> * xyz 0 1
| 35>   C                      8.152796             8.556054             -5.321419
| 36>   O                      6.909219             9.044673             -4.812207
| 37>   H                      6.285718             8.702034             -5.470259
| 38>   H                      8.064256             8.349003             -6.365875
| 39>   H                      9.010342             9.257000             -5.240811
| 40>   H                      8.377186             7.606242             -4.788367
| 41>   C                    : 9.131496             8.642149             -10.889142
| 42>   O                    : 8.416454             7.496642             -11.255507
| 43>   H                    : 7.910878             7.238208             -10.442181
| 44>   H                    : 8.768745             9.228676             -10.007910
| 45>   H                    : 10.229135            8.312411             -10.763482
| 46>   H                    : 9.056931             9.478766             -11.595643
| 47> *
| 48>
| 49> #Run DFT-D3 single point of the particle with dimer basis set
| 50> $new_job
| 51> %base "22-99_DFT_B"
| 52> ! wB97X-D3 def2-TZVP TIGHTSCF CHELPG PMODEL
| 53>
| 54> %scf
| 55> MaxIter 1000
| 56> end
| 57>
| 58> * xyz 0 1
| 59>   C                    : 8.152796             8.556054             -5.321419
| 60>   O                    : 6.909219             9.044673             -4.812207
| 61>   H                    : 6.285718             8.702034             -5.470259
| 62>   H                    : 8.064256             8.349003             -6.365875
| 63>   H                    : 9.010342             9.257000             -5.240811
| 64>   H                    : 8.377186             7.606242             -4.788367
| 65>   C                      9.131496             8.642149             -10.889142
| 66>   O                      8.416454             7.496642             -11.255507
| 67>   H                      7.910878             7.238208             -10.442181
| 68>   H                      8.768745             9.228676             -10.007910
| 69>   H                      10.229135            8.312411             -10.763482
| 70>   H                      9.056931             9.478766             -11.595643
| 71> *
| 72>
| 73>                          ****END OF INPUT****
 Total Charge           Charge          ....    0
 Multiplicity           Mult            ....    1
 Number of Electrons    NEL             ....   36
Dispersion correction           -0.000694828
FINAL SINGLE POINT ENERGY      -231.457738655847
Dispersion correction           -0.000234502
FINAL SINGLE POINT ENERGY      -115.731792463584

CARTESIAN COORDINATES (ANGSTROEM)
---------------------------------
  C      8.152796    8.556054   -5.321419
  O      6.909219    9.044673   -4.812207
  H      6.285718    8.702034   -5.470259
  H      8.064256    8.349003   -6.365875
  H      9.010342    9.257000   -5.240811
  H      8.377186    7.606242   -4.788367
  C      9.131496    8.642149  -10.889142
  O      8.416454    7.496642  -11.255507
  H      7.910878    7.238208  -10.442181
  H      8.768745    9.228676  -10.007910
  H     10.229135    8.312411  -10.763482
  H      9.056931    9.478766  -11.595643

 Multiplicity           Mult            ....    1
 Number of Electrons    NEL             ....   18
 Basis Dimension        Dim             ....  172

ORBITAL ENERGIES
----------------

  NO   OCC          E(Eh)            E(eV)
   0   2.0000     -19.237284      -523.4731
   1   2.0000     -10.320656      -280.8393
   2   2.0000      -1.139016       -30.9942
   3   2.0000      -0.786915       -21.4130
   4   2.0000      -0.612833       -16.6760
   5   2.0000      -0.542563       -14.7639
   6   2.0000      -0.519523       -14.1369
   7   2.0000      -0.427953       -11.6452
   8   2.0000      -0.373159       -10.1542
   9   0.0000       0.077454         2.1076
  10   0.0000       0.109449         2.9783
  11   0.0000       0.148191         4.0325
  12   0.0000       0.163164         4.4399
  13   0.0000       0.178402         4.8546

MULLIKEN ATOMIC CHARGES
-----------------------
   0 C :   -0.000109
   1 O :    0.000003
   2 H :   -0.000001
   3 H :    0.000078
   4 H :    0.000005
   5 H :   -0.000000
   6 C :   -0.184239
   7 O :   -0.458882
   8 H :    0.322406
   9 H :    0.104773
  10 H :    0.104662
  11 H :    0.111305
Sum of atomic charges:   -0.0000000

LOEWDIN ATOMIC CHARGES
----------------------
   0 C :   -0.000051
   1 O :   -0.000001
   2 H :   -0.000000
   3 H :   -0.000086
   4 H :   -0.000004
   5 H :   -0.000000
   6 C :   -0.423372
   7 O :   -0.078920
   8 H :    0.193018
   9 H :    0.099971
  10 H :    0.108434
  11 H :    0.101011

  Mayer bond orders larger than 0.1
B(  6-C ,  7-O ) :   1.0131 B(  6-C ,  9-H ) :   0.9737 B(  6-C , 10-H ) :   0.9797
B(  6-C , 11-H ) :   0.9670 B(  7-O ,  8-H ) :   0.8936

Dispersion correction           -0.000264773
FINAL SINGLE POINT ENERGY      -115.726204912030

DIPOLE MOMENT
-------------
                                X             Y             Z
Electronic contribution:     -0.97573      -1.59984      -0.64650
Nuclear contribution   :      0.87528       1.88341       1.29634
                        -----------------------------------------
Total Dipole Moment    :     -0.10044       0.28357       0.64984
                        -----------------------------------------
Magnitude (a.u.)       :      0.71610
Magnitude (Debye)      :      1.82018

Rotational constants in cm-1:     4.143862     0.827364     0.806552
Rotational constants in MHz : 124229.852338 24803.742407 24179.815367

                             ****ORCA TERMINATED NORMALLY****
TOTAL RUN TIME: 0 days 0 hours 0 minutes 46 seconds 437 msec
