                         Program Version 4.1.2  - RELEASE  -
|  1> #Run DFT-D3 single point of the dimer
|  2> ! wB97X-D3 def2-TZVP TIGHTSCF CHELPG PMODEL PAL8
|  3>
|  4> %base "3-24_DFT_AB"
|  5>
|  6> %scf
|  7> MaxIter 1000
|  8> end
|  9>
| 10> * xyz 0 1
| 11>   C                      -1.479890            -2.782146            -10.347695
| 12>   O                      -2.119262            -3.328411            -11.446586
| 13>   H                      -1.445049            -3.506653            -12.123038
| 14>   H                      -2.045989            -2.790401            -9.457301
| 15>   H                      -0.487859            -3.274771            -10.077993
| 16>   H                      -1.208709            -1.733125            -10.415487
| 17>   C                      -3.888145            1.871441             -9.901667
| 18>   O                      -2.887328            1.541876             -10.844331
| 19>   H                      -2.057649            1.745419             -10.528720
| 20>   H                      -4.007914            2.958215             -9.898934
| 21>   H                      -4.899281            1.516543             -10.079027
| 22>   H                      -3.612215            1.511664             -8.924497
| 23> *
| 24>
| 25> #Run DFT-D3 single point of the molecule with dimer basis set
| 26> $new_job
| 27> %base "3-24_DFT_A"
| 28> ! wB97X-D3 def2-TZVP TIGHTSCF CHELPG PMODEL
| 29>
| 30> %scf
| 31> MaxIter 1000
| 32> end
| 33>
| 34> * xyz 0 1
| 35>   C                      -1.479890            -2.782146            -10.347695
| 36>   O                      -2.119262            -3.328411            -11.446586
| 37>   H                      -1.445049            -3.506653            -12.123038
| 38>   H                      -2.045989            -2.790401            -9.457301
| 39>   H                      -0.487859            -3.274771            -10.077993
| 40>   H                      -1.208709            -1.733125            -10.415487
| 41>   C                    : -3.888145            1.871441             -9.901667
| 42>   O                    : -2.887328            1.541876             -10.844331
| 43>   H                    : -2.057649            1.745419             -10.528720
| 44>   H                    : -4.007914            2.958215             -9.898934
| 45>   H                    : -4.899281            1.516543             -10.079027
| 46>   H                    : -3.612215            1.511664             -8.924497
| 47> *
| 48>
| 49> #Run DFT-D3 single point of the particle with dimer basis set
| 50> $new_job
| 51> %base "3-24_DFT_B"
| 52> ! wB97X-D3 def2-TZVP TIGHTSCF CHELPG PMODEL
| 53>
| 54> %scf
| 55> MaxIter 1000
| 56> end
| 57>
| 58> * xyz 0 1
| 59>   C                    : -1.479890            -2.782146            -10.347695
| 60>   O                    : -2.119262            -3.328411            -11.446586
| 61>   H                    : -1.445049            -3.506653            -12.123038
| 62>   H                    : -2.045989            -2.790401            -9.457301
| 63>   H                    : -0.487859            -3.274771            -10.077993
| 64>   H                    : -1.208709            -1.733125            -10.415487
| 65>   C                      -3.888145            1.871441             -9.901667
| 66>   O                      -2.887328            1.541876             -10.844331
| 67>   H                      -2.057649            1.745419             -10.528720
| 68>   H                      -4.007914            2.958215             -9.898934
| 69>   H                      -4.899281            1.516543             -10.079027
| 70>   H                      -3.612215            1.511664             -8.924497
| 71> *
| 72>
| 73>                          ****END OF INPUT****
 Total Charge           Charge          ....    0
 Multiplicity           Mult            ....    1
 Number of Electrons    NEL             ....   36
Dispersion correction           -0.000857142
FINAL SINGLE POINT ENERGY      -231.461306440951
Dispersion correction           -0.000252274
FINAL SINGLE POINT ENERGY      -115.731281805456

CARTESIAN COORDINATES (ANGSTROEM)
---------------------------------
  C     -1.479890   -2.782146  -10.347695
  O     -2.119262   -3.328411  -11.446586
  H     -1.445049   -3.506653  -12.123038
  H     -2.045989   -2.790401   -9.457301
  H     -0.487859   -3.274771  -10.077993
  H     -1.208709   -1.733125  -10.415487
  C     -3.888145    1.871441   -9.901667
  O     -2.887328    1.541876  -10.844331
  H     -2.057649    1.745419  -10.528720
  H     -4.007914    2.958215   -9.898934
  H     -4.899281    1.516543  -10.079027
  H     -3.612215    1.511664   -8.924497

 Multiplicity           Mult            ....    1
 Number of Electrons    NEL             ....   18
 Basis Dimension        Dim             ....  172

ORBITAL ENERGIES
----------------

  NO   OCC          E(Eh)            E(eV)
   0   2.0000     -19.223979      -523.1111
   1   2.0000     -10.312337      -280.6129
   2   2.0000      -1.144258       -31.1368
   3   2.0000      -0.804798       -21.8997
   4   2.0000      -0.616650       -16.7799
   5   2.0000      -0.546731       -14.8773
   6   2.0000      -0.535124       -14.5615
   7   2.0000      -0.426805       -11.6140
   8   2.0000      -0.374173       -10.1818
   9   0.0000       0.089539         2.4365
  10   0.0000       0.121632         3.3098
  11   0.0000       0.153607         4.1799
  12   0.0000       0.170256         4.6329
  13   0.0000       0.198006         5.3880

MULLIKEN ATOMIC CHARGES
-----------------------
   0 C :    0.001556
   1 O :    0.000053
   2 H :   -0.000009
   3 H :   -0.000016
   4 H :   -0.000154
   5 H :   -0.004351
   6 C :   -0.155148
   7 O :   -0.473432
   8 H :    0.309336
   9 H :    0.102680
  10 H :    0.119349
  11 H :    0.100135
Sum of atomic charges:    0.0000000

LOEWDIN ATOMIC CHARGES
----------------------
   0 C :   -0.000624
   1 O :   -0.000010
   2 H :   -0.000001
   3 H :   -0.000018
   4 H :   -0.000016
   5 H :   -0.001532
   6 C :   -0.375462
   7 O :   -0.053592
   8 H :    0.135726
   9 H :    0.096294
  10 H :    0.107064
  11 H :    0.092171

  Mayer bond orders larger than 0.1
B(  6-C ,  7-O ) :   0.9882 B(  6-C ,  9-H ) :   0.9828 B(  6-C , 10-H ) :   0.9709
B(  6-C , 11-H ) :   0.9840 B(  7-O ,  8-H ) :   0.9065

Dispersion correction           -0.000236832
FINAL SINGLE POINT ENERGY      -115.730121137758

DIPOLE MOMENT
-------------
                                X             Y             Z
Electronic contribution:      1.18497      -0.54474      -1.29911
Nuclear contribution   :     -1.06830       0.81679       1.90320
                        -----------------------------------------
Total Dipole Moment    :      0.11666       0.27205       0.60409
                        -----------------------------------------
Magnitude (a.u.)       :      0.67272
Magnitude (Debye)      :      1.70991

Rotational constants in cm-1:     4.575326     0.822413     0.802220
Rotational constants in MHz : 137164.836013 24655.324936 24049.944614

                             ****ORCA TERMINATED NORMALLY****
TOTAL RUN TIME: 0 days 0 hours 6 minutes 23 seconds 815 msec
