                         Program Version 4.1.2  - RELEASE  -
|  1> #Run DFT-D3 single point of the dimer
|  2> ! wB97X-D3 def2-TZVP TIGHTSCF CHELPG PMODEL PAL8
|  3>
|  4> %base "22-115_DFT_AB"
|  5>
|  6> %scf
|  7> MaxIter 1000
|  8> end
|  9>
| 10> * xyz 0 1
| 11>   C                      2.728777             -5.694057            -8.740329
| 12>   O                      2.324008             -5.912598            -10.072786
| 13>   H                      2.987133             -6.439181            -10.468047
| 14>   H                      2.161046             -4.898734            -8.325374
| 15>   H                      2.535671             -6.576832            -8.025007
| 16>   H                      3.746550             -5.495858            -8.741357
| 17>   C                      0.020977             -8.070914            -8.154523
| 18>   O                      0.457446             -8.283626            -9.449823
| 19>   H                      1.273270             -7.862219            -9.523686
| 20>   H                      0.312577             -7.029594            -7.966081
| 21>   H                      -1.111446            -8.179136            -8.045517
| 22>   H                      0.450601             -8.691300            -7.372302
| 23> *
| 24>
| 25> #Run DFT-D3 single point of the molecule with dimer basis set
| 26> $new_job
| 27> %base "22-115_DFT_A"
| 28> ! wB97X-D3 def2-TZVP TIGHTSCF CHELPG PMODEL
| 29>
| 30> %scf
| 31> MaxIter 1000
| 32> end
| 33>
| 34> * xyz 0 1
| 35>   C                      2.728777             -5.694057            -8.740329
| 36>   O                      2.324008             -5.912598            -10.072786
| 37>   H                      2.987133             -6.439181            -10.468047
| 38>   H                      2.161046             -4.898734            -8.325374
| 39>   H                      2.535671             -6.576832            -8.025007
| 40>   H                      3.746550             -5.495858            -8.741357
| 41>   C                    : 0.020977             -8.070914            -8.154523
| 42>   O                    : 0.457446             -8.283626            -9.449823
| 43>   H                    : 1.273270             -7.862219            -9.523686
| 44>   H                    : 0.312577             -7.029594            -7.966081
| 45>   H                    : -1.111446            -8.179136            -8.045517
| 46>   H                    : 0.450601             -8.691300            -7.372302
| 47> *
| 48>
| 49> #Run DFT-D3 single point of the particle with dimer basis set
| 50> $new_job
| 51> %base "22-115_DFT_B"
| 52> ! wB97X-D3 def2-TZVP TIGHTSCF CHELPG PMODEL
| 53>
| 54> %scf
| 55> MaxIter 1000
| 56> end
| 57>
| 58> * xyz 0 1
| 59>   C                    : 2.728777             -5.694057            -8.740329
| 60>   O                    : 2.324008             -5.912598            -10.072786
| 61>   H                    : 2.987133             -6.439181            -10.468047
| 62>   H                    : 2.161046             -4.898734            -8.325374
| 63>   H                    : 2.535671             -6.576832            -8.025007
| 64>   H                    : 3.746550             -5.495858            -8.741357
| 65>   C                      0.020977             -8.070914            -8.154523
| 66>   O                      0.457446             -8.283626            -9.449823
| 67>   H                      1.273270             -7.862219            -9.523686
| 68>   H                      0.312577             -7.029594            -7.966081
| 69>   H                      -1.111446            -8.179136            -8.045517
| 70>   H                      0.450601             -8.691300            -7.372302
| 71> *
| 72>
| 73>                          ****END OF INPUT****
 Total Charge           Charge          ....    0
 Multiplicity           Mult            ....    1
 Number of Electrons    NEL             ....   36
Dispersion correction           -0.002193525
FINAL SINGLE POINT ENERGY      -231.463099806189
Dispersion correction           -0.000232302
FINAL SINGLE POINT ENERGY      -115.731465367963

CARTESIAN COORDINATES (ANGSTROEM)
---------------------------------
  C      2.728777   -5.694057   -8.740329
  O      2.324008   -5.912598  -10.072786
  H      2.987133   -6.439181  -10.468047
  H      2.161046   -4.898734   -8.325374
  H      2.535671   -6.576832   -8.025007
  H      3.746550   -5.495858   -8.741357
  C      0.020977   -8.070914   -8.154523
  O      0.457446   -8.283626   -9.449823
  H      1.273270   -7.862219   -9.523686
  H      0.312577   -7.029594   -7.966081
  H     -1.111446   -8.179136   -8.045517
  H      0.450601   -8.691300   -7.372302

 Multiplicity           Mult            ....    1
 Number of Electrons    NEL             ....   18
 Basis Dimension        Dim             ....  172

ORBITAL ENERGIES
----------------

  NO   OCC          E(Eh)            E(eV)
   0   2.0000     -19.228309      -523.2289
   1   2.0000     -10.316262      -280.7198
   2   2.0000      -1.157206       -31.4892
   3   2.0000      -0.793580       -21.5944
   4   2.0000      -0.622337       -16.9346
   5   2.0000      -0.550738       -14.9864
   6   2.0000      -0.530180       -14.4269
   7   2.0000      -0.429430       -11.6854
   8   2.0000      -0.373367       -10.1598
   9   0.0000       0.069725         1.8973
  10   0.0000       0.138801         3.7770
  11   0.0000       0.149459         4.0670
  12   0.0000       0.171452         4.6654
  13   0.0000       0.187149         5.0926

MULLIKEN ATOMIC CHARGES
-----------------------
   0 C :   -0.002838
   1 O :   -0.000752
   2 H :   -0.000034
   3 H :   -0.000784
   4 H :    0.000602
   5 H :    0.000061
   6 C :   -0.156043
   7 O :   -0.447867
   8 H :    0.304660
   9 H :    0.089916
  10 H :    0.115293
  11 H :    0.097787
Sum of atomic charges:   -0.0000000

LOEWDIN ATOMIC CHARGES
----------------------
   0 C :   -0.011106
   1 O :   -0.007240
   2 H :   -0.001488
   3 H :   -0.000769
   4 H :   -0.005202
   5 H :   -0.000070
   6 C :   -0.404047
   7 O :   -0.025234
   8 H :    0.148507
   9 H :    0.100687
  10 H :    0.115574
  11 H :    0.090388

  Mayer bond orders larger than 0.1
B(  6-C ,  7-O ) :   0.9967 B(  6-C ,  9-H ) :   0.9957 B(  6-C , 10-H ) :   0.9712
B(  6-C , 11-H ) :   0.9686 B(  7-O ,  8-H ) :   0.9184

Dispersion correction           -0.000224519
FINAL SINGLE POINT ENERGY      -115.729109305320

DIPOLE MOMENT
-------------
                                X             Y             Z
Electronic contribution:      0.48983      -0.46900      -1.74540
Nuclear contribution   :     -0.12521       0.82437       2.18023
                        -----------------------------------------
Total Dipole Moment    :      0.36463       0.35537       0.43483
                        -----------------------------------------
Magnitude (a.u.)       :      0.66957
Magnitude (Debye)      :      1.70190

Rotational constants in cm-1:     4.310384     0.863693     0.827904
Rotational constants in MHz : 129222.051400 25892.865274 24819.929860

                             ****ORCA TERMINATED NORMALLY****
TOTAL RUN TIME: 0 days 0 hours 1 minutes 8 seconds 732 msec
