                         Program Version 4.1.2  - RELEASE  -
|  1> #Run DFT-D3 single point of the dimer
|  2> ! wB97X-D3 def2-TZVP TIGHTSCF CHELPG PMODEL PAL8
|  3>
|  4> %base "19-173_DFT_AB"
|  5>
|  6> %scf
|  7> MaxIter 1000
|  8> end
|  9>
| 10> * xyz 0 1
| 11>   C                      -7.054189            -10.202237           -8.208105
| 12>   O                      -7.807311            -10.115136           -7.076616
| 13>   H                      -8.441169            -9.383807            -7.207022
| 14>   H                      -6.824841            -9.282687            -8.695055
| 15>   H                      -6.087356            -10.612694           -8.096553
| 16>   H                      -7.525287            -10.779858           -9.050024
| 17>   C                      -9.159572            -6.654709            -8.686658
| 18>   O                      -9.364893            -7.712711            -7.762523
| 19>   H                      -10.315845           -7.698771            -7.707703
| 20>   H                      -8.101845            -6.536415            -8.927150
| 21>   H                      -9.617225            -6.884062            -9.676712
| 22>   H                      -9.529338            -5.698886            -8.363570
| 23> *
| 24>
| 25> #Run DFT-D3 single point of the molecule with dimer basis set
| 26> $new_job
| 27> %base "19-173_DFT_A"
| 28> ! wB97X-D3 def2-TZVP TIGHTSCF CHELPG PMODEL
| 29>
| 30> %scf
| 31> MaxIter 1000
| 32> end
| 33>
| 34> * xyz 0 1
| 35>   C                      -7.054189            -10.202237           -8.208105
| 36>   O                      -7.807311            -10.115136           -7.076616
| 37>   H                      -8.441169            -9.383807            -7.207022
| 38>   H                      -6.824841            -9.282687            -8.695055
| 39>   H                      -6.087356            -10.612694           -8.096553
| 40>   H                      -7.525287            -10.779858           -9.050024
| 41>   C                    : -9.159572            -6.654709            -8.686658
| 42>   O                    : -9.364893            -7.712711            -7.762523
| 43>   H                    : -10.315845           -7.698771            -7.707703
| 44>   H                    : -8.101845            -6.536415            -8.927150
| 45>   H                    : -9.617225            -6.884062            -9.676712
| 46>   H                    : -9.529338            -5.698886            -8.363570
| 47> *
| 48>
| 49> #Run DFT-D3 single point of the particle with dimer basis set
| 50> $new_job
| 51> %base "19-173_DFT_B"
| 52> ! wB97X-D3 def2-TZVP TIGHTSCF CHELPG PMODEL
| 53>
| 54> %scf
| 55> MaxIter 1000
| 56> end
| 57>
| 58> * xyz 0 1
| 59>   C                    : -7.054189            -10.202237           -8.208105
| 60>   O                    : -7.807311            -10.115136           -7.076616
| 61>   H                    : -8.441169            -9.383807            -7.207022
| 62>   H                    : -6.824841            -9.282687            -8.695055
| 63>   H                    : -6.087356            -10.612694           -8.096553
| 64>   H                    : -7.525287            -10.779858           -9.050024
| 65>   C                      -9.159572            -6.654709            -8.686658
| 66>   O                      -9.364893            -7.712711            -7.762523
| 67>   H                      -10.315845           -7.698771            -7.707703
| 68>   H                      -8.101845            -6.536415            -8.927150
| 69>   H                      -9.617225            -6.884062            -9.676712
| 70>   H                      -9.529338            -5.698886            -8.363570
| 71> *
| 72>
| 73>                          ****END OF INPUT****
 Total Charge           Charge          ....    0
 Multiplicity           Mult            ....    1
 Number of Electrons    NEL             ....   36
Dispersion correction           -0.001821196
FINAL SINGLE POINT ENERGY      -231.472408751443
Dispersion correction           -0.000237946
FINAL SINGLE POINT ENERGY      -115.729422027156

CARTESIAN COORDINATES (ANGSTROEM)
---------------------------------
  C     -7.054189  -10.202237   -8.208105
  O     -7.807311  -10.115136   -7.076616
  H     -8.441169   -9.383807   -7.207022
  H     -6.824841   -9.282687   -8.695055
  H     -6.087356  -10.612694   -8.096553
  H     -7.525287  -10.779858   -9.050024
  C     -9.159572   -6.654709   -8.686658
  O     -9.364893   -7.712711   -7.762523
  H    -10.315845   -7.698771   -7.707703
  H     -8.101845   -6.536415   -8.927150
  H     -9.617225   -6.884062   -9.676712
  H     -9.529338   -5.698886   -8.363570

 Multiplicity           Mult            ....    1
 Number of Electrons    NEL             ....   18
 Basis Dimension        Dim             ....  172

ORBITAL ENERGIES
----------------

  NO   OCC          E(Eh)            E(eV)
   0   2.0000     -19.235202      -523.4165
   1   2.0000     -10.313763      -280.6518
   2   2.0000      -1.143237       -31.1091
   3   2.0000      -0.794990       -21.6328
   4   2.0000      -0.610989       -16.6259
   5   2.0000      -0.543109       -14.7788
   6   2.0000      -0.526438       -14.3251
   7   2.0000      -0.442889       -12.0516
   8   2.0000      -0.377112       -10.2617
   9   0.0000       0.098435         2.6785
  10   0.0000       0.126235         3.4350
  11   0.0000       0.150798         4.1034
  12   0.0000       0.190770         5.1911
  13   0.0000       0.201510         5.4834

MULLIKEN ATOMIC CHARGES
-----------------------
   0 C :    0.001337
   1 O :    0.000297
   2 H :   -0.010397
   3 H :   -0.000948
   4 H :   -0.000221
   5 H :   -0.000652
   6 C :   -0.175236
   7 O :   -0.446611
   8 H :    0.310322
   9 H :    0.119183
  10 H :    0.098454
  11 H :    0.104473
Sum of atomic charges:   -0.0000000

LOEWDIN ATOMIC CHARGES
----------------------
   0 C :   -0.004788
   1 O :   -0.003815
   2 H :   -0.037401
   3 H :   -0.000923
   4 H :   -0.000071
   5 H :   -0.000205
   6 C :   -0.386792
   7 O :   -0.033152
   8 H :    0.169318
   9 H :    0.108282
  10 H :    0.098800
  11 H :    0.090747

  Mayer bond orders larger than 0.1
B(  6-C ,  7-O ) :   0.9930 B(  6-C ,  9-H ) :   0.9781 B(  6-C , 10-H ) :   0.9779
B(  6-C , 11-H ) :   0.9703 B(  7-O ,  8-H ) :   0.9039

Dispersion correction           -0.000228297
FINAL SINGLE POINT ENERGY      -115.734340512113

DIPOLE MOMENT
-------------
                                X             Y             Z
Electronic contribution:     -0.11959      -1.38265       1.34143
Nuclear contribution   :     -0.37577       1.81127      -1.66618
                        -----------------------------------------
Total Dipole Moment    :     -0.49536       0.42861      -0.32474
                        -----------------------------------------
Magnitude (a.u.)       :      0.73113
Magnitude (Debye)      :      1.85837

Rotational constants in cm-1:     4.317039     0.828219     0.799240
Rotational constants in MHz : 129421.565826 24829.395479 23960.620734

                             ****ORCA TERMINATED NORMALLY****
TOTAL RUN TIME: 0 days 0 hours 1 minutes 36 seconds 239 msec
