                         Program Version 4.1.2  - RELEASE  -
|  1> #Run DFT-D3 single point of the dimer
|  2> ! wB97X-D3 def2-TZVP TIGHTSCF CHELPG PMODEL PAL8
|  3>
|  4> %base "11-113_DFT_AB"
|  5>
|  6> %scf
|  7> MaxIter 1000
|  8> end
|  9>
| 10> * xyz 0 1
| 11>   C                      -4.783363            4.112619             -2.570429
| 12>   O                      -6.170966            4.051347             -2.271669
| 13>   H                      -6.396381            3.112215             -2.297182
| 14>   H                      -4.677063            4.150604             -3.633048
| 15>   H                      -4.392991            5.100541             -2.206898
| 16>   H                      -4.210136            3.298748             -2.150329
| 17>   C                      -8.520940            6.286076             -4.403232
| 18>   O                      -8.997023            5.176493             -3.581516
| 19>   H                      -8.221202            4.683733             -3.330389
| 20>   H                      -8.499745            7.139739             -3.784151
| 21>   H                      -7.524745            6.049312             -4.681727
| 22>   H                      -9.098874            6.502751             -5.312107
| 23> *
| 24>
| 25> #Run DFT-D3 single point of the molecule with dimer basis set
| 26> $new_job
| 27> %base "11-113_DFT_A"
| 28> ! wB97X-D3 def2-TZVP TIGHTSCF CHELPG PMODEL
| 29>
| 30> %scf
| 31> MaxIter 1000
| 32> end
| 33>
| 34> * xyz 0 1
| 35>   C                      -4.783363            4.112619             -2.570429
| 36>   O                      -6.170966            4.051347             -2.271669
| 37>   H                      -6.396381            3.112215             -2.297182
| 38>   H                      -4.677063            4.150604             -3.633048
| 39>   H                      -4.392991            5.100541             -2.206898
| 40>   H                      -4.210136            3.298748             -2.150329
| 41>   C                    : -8.520940            6.286076             -4.403232
| 42>   O                    : -8.997023            5.176493             -3.581516
| 43>   H                    : -8.221202            4.683733             -3.330389
| 44>   H                    : -8.499745            7.139739             -3.784151
| 45>   H                    : -7.524745            6.049312             -4.681727
| 46>   H                    : -9.098874            6.502751             -5.312107
| 47> *
| 48>
| 49> #Run DFT-D3 single point of the particle with dimer basis set
| 50> $new_job
| 51> %base "11-113_DFT_B"
| 52> ! wB97X-D3 def2-TZVP TIGHTSCF CHELPG PMODEL
| 53>
| 54> %scf
| 55> MaxIter 1000
| 56> end
| 57>
| 58> * xyz 0 1
| 59>   C                    : -4.783363            4.112619             -2.570429
| 60>   O                    : -6.170966            4.051347             -2.271669
| 61>   H                    : -6.396381            3.112215             -2.297182
| 62>   H                    : -4.677063            4.150604             -3.633048
| 63>   H                    : -4.392991            5.100541             -2.206898
| 64>   H                    : -4.210136            3.298748             -2.150329
| 65>   C                      -8.520940            6.286076             -4.403232
| 66>   O                      -8.997023            5.176493             -3.581516
| 67>   H                      -8.221202            4.683733             -3.330389
| 68>   H                      -8.499745            7.139739             -3.784151
| 69>   H                      -7.524745            6.049312             -4.681727
| 70>   H                      -9.098874            6.502751             -5.312107
| 71> *
| 72>
| 73>                          ****END OF INPUT****
 Total Charge           Charge          ....    0
 Multiplicity           Mult            ....    1
 Number of Electrons    NEL             ....   36
Dispersion correction           -0.001524934
FINAL SINGLE POINT ENERGY      -231.470915857279
Dispersion correction           -0.000231413
FINAL SINGLE POINT ENERGY      -115.734897708681

CARTESIAN COORDINATES (ANGSTROEM)
---------------------------------
  C     -4.783363    4.112619   -2.570429
  O     -6.170966    4.051347   -2.271669
  H     -6.396381    3.112215   -2.297182
  H     -4.677063    4.150604   -3.633048
  H     -4.392991    5.100541   -2.206898
  H     -4.210136    3.298748   -2.150329
  C     -8.520940    6.286076   -4.403232
  O     -8.997023    5.176493   -3.581516
  H     -8.221202    4.683733   -3.330389
  H     -8.499745    7.139739   -3.784151
  H     -7.524745    6.049312   -4.681727
  H     -9.098874    6.502751   -5.312107

 Multiplicity           Mult            ....    1
 Number of Electrons    NEL             ....   18
 Basis Dimension        Dim             ....  172

ORBITAL ENERGIES
----------------

  NO   OCC          E(Eh)            E(eV)
   0   2.0000     -19.226594      -523.1822
   1   2.0000     -10.310316      -280.5580
   2   2.0000      -1.124177       -30.5904
   3   2.0000      -0.801707       -21.8156
   4   2.0000      -0.603554       -16.4235
   5   2.0000      -0.542095       -14.7512
   6   2.0000      -0.529428       -14.4065
   7   2.0000      -0.435031       -11.8378
   8   2.0000      -0.375000       -10.2043
   9   0.0000       0.067768         1.8441
  10   0.0000       0.127933         3.4812
  11   0.0000       0.143650         3.9089
  12   0.0000       0.174947         4.7605
  13   0.0000       0.184958         5.0330

MULLIKEN ATOMIC CHARGES
-----------------------
   0 C :   -0.000575
   1 O :   -0.001369
   2 H :   -0.000271
   3 H :   -0.000079
   4 H :    0.000010
   5 H :    0.000011
   6 C :   -0.159667
   7 O :   -0.482814
   8 H :    0.310077
   9 H :    0.113779
  10 H :    0.103109
  11 H :    0.117788
Sum of atomic charges:    0.0000000

LOEWDIN ATOMIC CHARGES
----------------------
   0 C :   -0.000755
   1 O :   -0.006230
   2 H :   -0.001163
   3 H :   -0.000104
   4 H :   -0.000018
   5 H :   -0.000012
   6 C :   -0.337140
   7 O :   -0.105583
   8 H :    0.161347
   9 H :    0.091862
  10 H :    0.091569
  11 H :    0.106228

  Mayer bond orders larger than 0.1
B(  6-C ,  7-O ) :   0.9905 B(  6-C ,  9-H ) :   0.9791 B(  6-C , 10-H ) :   0.9910
B(  6-C , 11-H ) :   0.9709 B(  7-O ,  8-H ) :   0.9121

Dispersion correction           -0.000239715
FINAL SINGLE POINT ENERGY      -115.730641373153

DIPOLE MOMENT
-------------
                                X             Y             Z
Electronic contribution:     -0.77519      -1.27449       0.92302
Nuclear contribution   :      1.49443       1.44077      -1.12007
                        -----------------------------------------
Total Dipole Moment    :      0.71924       0.16628      -0.19704
                        -----------------------------------------
Magnitude (a.u.)       :      0.76406
Magnitude (Debye)      :      1.94208

Rotational constants in cm-1:     4.426636     0.797114     0.769446
Rotational constants in MHz : 132707.194599 23896.867108 23067.417695

                             ****ORCA TERMINATED NORMALLY****
TOTAL RUN TIME: 0 days 0 hours 1 minutes 3 seconds 142 msec
