                         Program Version 4.1.2  - RELEASE  -
|  1> #Run DFT-D3 single point of the dimer
|  2> ! wB97X-D3 def2-TZVP TIGHTSCF CHELPG PMODEL PAL8
|  3>
|  4> %base "7-203_DFT_AB"
|  5>
|  6> %scf
|  7> MaxIter 1000
|  8> end
|  9>
| 10> * xyz 0 1
| 11>   C                      -5.694663            5.855385             7.654485
| 12>   O                      -6.732413            4.908999             7.753493
| 13>   H                      -6.902734            4.785585             8.716413
| 14>   H                      -5.860336            6.901046             8.030014
| 15>   H                      -4.748003            5.517548             8.206239
| 16>   H                      -5.409941            5.988484             6.609934
| 17>   C                      -10.666586           6.170004             7.379040
| 18>   O                      -9.388597            6.730115             7.666832
| 19>   H                      -9.030855            6.074726             8.273595
| 20>   H                      -10.579796           5.389328             6.632347
| 21>   H                      -11.206953           5.813961             8.258117
| 22>   H                      -11.338197           6.898254             6.829734
| 23> *
| 24>
| 25> #Run DFT-D3 single point of the molecule with dimer basis set
| 26> $new_job
| 27> %base "7-203_DFT_A"
| 28> ! wB97X-D3 def2-TZVP TIGHTSCF CHELPG PMODEL
| 29>
| 30> %scf
| 31> MaxIter 1000
| 32> end
| 33>
| 34> * xyz 0 1
| 35>   C                      -5.694663            5.855385             7.654485
| 36>   O                      -6.732413            4.908999             7.753493
| 37>   H                      -6.902734            4.785585             8.716413
| 38>   H                      -5.860336            6.901046             8.030014
| 39>   H                      -4.748003            5.517548             8.206239
| 40>   H                      -5.409941            5.988484             6.609934
| 41>   C                    : -10.666586           6.170004             7.379040
| 42>   O                    : -9.388597            6.730115             7.666832
| 43>   H                    : -9.030855            6.074726             8.273595
| 44>   H                    : -10.579796           5.389328             6.632347
| 45>   H                    : -11.206953           5.813961             8.258117
| 46>   H                    : -11.338197           6.898254             6.829734
| 47> *
| 48>
| 49> #Run DFT-D3 single point of the particle with dimer basis set
| 50> $new_job
| 51> %base "7-203_DFT_B"
| 52> ! wB97X-D3 def2-TZVP TIGHTSCF CHELPG PMODEL
| 53>
| 54> %scf
| 55> MaxIter 1000
| 56> end
| 57>
| 58> * xyz 0 1
| 59>   C                    : -5.694663            5.855385             7.654485
| 60>   O                    : -6.732413            4.908999             7.753493
| 61>   H                    : -6.902734            4.785585             8.716413
| 62>   H                    : -5.860336            6.901046             8.030014
| 63>   H                    : -4.748003            5.517548             8.206239
| 64>   H                    : -5.409941            5.988484             6.609934
| 65>   C                      -10.666586           6.170004             7.379040
| 66>   O                      -9.388597            6.730115             7.666832
| 67>   H                      -9.030855            6.074726             8.273595
| 68>   H                      -10.579796           5.389328             6.632347
| 69>   H                      -11.206953           5.813961             8.258117
| 70>   H                      -11.338197           6.898254             6.829734
| 71> *
| 72>
| 73>                          ****END OF INPUT****
 Total Charge           Charge          ....    0
 Multiplicity           Mult            ....    1
 Number of Electrons    NEL             ....   36
Dispersion correction           -0.001553930
FINAL SINGLE POINT ENERGY      -231.466376988548
Dispersion correction           -0.000270187
FINAL SINGLE POINT ENERGY      -115.733216364664

CARTESIAN COORDINATES (ANGSTROEM)
---------------------------------
  C     -5.694663    5.855385    7.654485
  O     -6.732413    4.908999    7.753493
  H     -6.902734    4.785585    8.716413
  H     -5.860336    6.901046    8.030014
  H     -4.748003    5.517548    8.206239
  H     -5.409941    5.988484    6.609934
  C    -10.666586    6.170004    7.379040
  O     -9.388597    6.730115    7.666832
  H     -9.030855    6.074726    8.273595
  H    -10.579796    5.389328    6.632347
  H    -11.206953    5.813961    8.258117
  H    -11.338197    6.898254    6.829734

 Multiplicity           Mult            ....    1
 Number of Electrons    NEL             ....   18
 Basis Dimension        Dim             ....  172

ORBITAL ENERGIES
----------------

  NO   OCC          E(Eh)            E(eV)
   0   2.0000     -19.235537      -523.4256
   1   2.0000     -10.317079      -280.7420
   2   2.0000      -1.138860       -30.9900
   3   2.0000      -0.792617       -21.5682
   4   2.0000      -0.607751       -16.5377
   5   2.0000      -0.545373       -14.8404
   6   2.0000      -0.522760       -14.2250
   7   2.0000      -0.439049       -11.9471
   8   2.0000      -0.376223       -10.2376
   9   0.0000       0.080208         2.1826
  10   0.0000       0.123627         3.3641
  11   0.0000       0.150800         4.1035
  12   0.0000       0.179335         4.8799
  13   0.0000       0.192581         5.2404

MULLIKEN ATOMIC CHARGES
-----------------------
   0 C :   -0.003025
   1 O :   -0.001499
   2 H :   -0.000565
   3 H :   -0.000363
   4 H :   -0.000033
   5 H :    0.000384
   6 C :   -0.186292
   7 O :   -0.455036
   8 H :    0.315925
   9 H :    0.104713
  10 H :    0.111210
  11 H :    0.114583
Sum of atomic charges:   -0.0000000

LOEWDIN ATOMIC CHARGES
----------------------
   0 C :   -0.002988
   1 O :   -0.004319
   2 H :   -0.001911
   3 H :   -0.000466
   4 H :   -0.000057
   5 H :   -0.000075
   6 C :   -0.390527
   7 O :   -0.076420
   8 H :    0.174290
   9 H :    0.092382
  10 H :    0.095250
  11 H :    0.114841

  Mayer bond orders larger than 0.1
B(  6-C ,  7-O ) :   1.0062 B(  6-C ,  9-H ) :   0.9743 B(  6-C , 10-H ) :   0.9765
B(  6-C , 11-H ) :   0.9745 B(  7-O ,  8-H ) :   0.9012

Dispersion correction           -0.000239471
FINAL SINGLE POINT ENERGY      -115.732974169397

DIPOLE MOMENT
-------------
                                X             Y             Z
Electronic contribution:      1.67458       0.83953       0.39929
Nuclear contribution   :     -1.96673      -1.45827      -0.14563
                        -----------------------------------------
Total Dipole Moment    :     -0.29216      -0.61875       0.25366
                        -----------------------------------------
Magnitude (a.u.)       :      0.72976
Magnitude (Debye)      :      1.85490

Rotational constants in cm-1:     4.254822     0.822264     0.788882
Rotational constants in MHz : 127556.355975 24650.868821 23650.100709

                             ****ORCA TERMINATED NORMALLY****
TOTAL RUN TIME: 0 days 0 hours 1 minutes 5 seconds 358 msec
