                         Program Version 4.1.2  - RELEASE  -
|  1> #Run DFT-D3 single point of the dimer
|  2> ! wB97X-D3 def2-TZVP TIGHTSCF CHELPG PMODEL PAL8
|  3>
|  4> %base "6-5_DFT_AB"
|  5>
|  6> %scf
|  7> MaxIter 1000
|  8> end
|  9>
| 10> * xyz 0 1
| 11>   C                      3.221137             7.634066             8.195643
| 12>   O                      3.982834             7.118366             9.205529
| 13>   H                      4.894659             7.152275             8.965242
| 14>   H                      3.626544             8.552249             7.826368
| 15>   H                      3.290289             6.915142             7.335799
| 16>   H                      2.201108             7.700457             8.443460
| 17>   C                      2.459447             7.886722             3.529266
| 18>   O                      1.465592             6.957160             3.094723
| 19>   H                      1.096013             6.573522             3.861454
| 20>   H                      2.129671             8.719653             4.158826
| 21>   H                      3.070522             7.379133             4.242698
| 22>   H                      3.028152             8.221508             2.643044
| 23> *
| 24>
| 25> #Run DFT-D3 single point of the molecule with dimer basis set
| 26> $new_job
| 27> %base "6-5_DFT_A"
| 28> ! wB97X-D3 def2-TZVP TIGHTSCF CHELPG PMODEL
| 29>
| 30> %scf
| 31> MaxIter 1000
| 32> end
| 33>
| 34> * xyz 0 1
| 35>   C                      3.221137             7.634066             8.195643
| 36>   O                      3.982834             7.118366             9.205529
| 37>   H                      4.894659             7.152275             8.965242
| 38>   H                      3.626544             8.552249             7.826368
| 39>   H                      3.290289             6.915142             7.335799
| 40>   H                      2.201108             7.700457             8.443460
| 41>   C                    : 2.459447             7.886722             3.529266
| 42>   O                    : 1.465592             6.957160             3.094723
| 43>   H                    : 1.096013             6.573522             3.861454
| 44>   H                    : 2.129671             8.719653             4.158826
| 45>   H                    : 3.070522             7.379133             4.242698
| 46>   H                    : 3.028152             8.221508             2.643044
| 47> *
| 48>
| 49> #Run DFT-D3 single point of the particle with dimer basis set
| 50> $new_job
| 51> %base "6-5_DFT_B"
| 52> ! wB97X-D3 def2-TZVP TIGHTSCF CHELPG PMODEL
| 53>
| 54> %scf
| 55> MaxIter 1000
| 56> end
| 57>
| 58> * xyz 0 1
| 59>   C                    : 3.221137             7.634066             8.195643
| 60>   O                    : 3.982834             7.118366             9.205529
| 61>   H                    : 4.894659             7.152275             8.965242
| 62>   H                    : 3.626544             8.552249             7.826368
| 63>   H                    : 3.290289             6.915142             7.335799
| 64>   H                    : 2.201108             7.700457             8.443460
| 65>   C                      2.459447             7.886722             3.529266
| 66>   O                      1.465592             6.957160             3.094723
| 67>   H                      1.096013             6.573522             3.861454
| 68>   H                      2.129671             8.719653             4.158826
| 69>   H                      3.070522             7.379133             4.242698
| 70>   H                      3.028152             8.221508             2.643044
| 71> *
| 72>
| 73>                          ****END OF INPUT****
 Total Charge           Charge          ....    0
 Multiplicity           Mult            ....    1
 Number of Electrons    NEL             ....   36
Dispersion correction           -0.000932321
FINAL SINGLE POINT ENERGY      -231.462674876757
Dispersion correction           -0.000203949
FINAL SINGLE POINT ENERGY      -115.731314993144

CARTESIAN COORDINATES (ANGSTROEM)
---------------------------------
  C      3.221137    7.634066    8.195643
  O      3.982834    7.118366    9.205529
  H      4.894659    7.152275    8.965242
  H      3.626544    8.552249    7.826368
  H      3.290289    6.915142    7.335799
  H      2.201108    7.700457    8.443460
  C      2.459447    7.886722    3.529266
  O      1.465592    6.957160    3.094723
  H      1.096013    6.573522    3.861454
  H      2.129671    8.719653    4.158826
  H      3.070522    7.379133    4.242698
  H      3.028152    8.221508    2.643044

 Multiplicity           Mult            ....    1
 Number of Electrons    NEL             ....   18
 Basis Dimension        Dim             ....  172

ORBITAL ENERGIES
----------------

  NO   OCC          E(Eh)            E(eV)
   0   2.0000     -19.227692      -523.2121
   1   2.0000     -10.313269      -280.6383
   2   2.0000      -1.138087       -30.9689
   3   2.0000      -0.799343       -21.7512
   4   2.0000      -0.619393       -16.8545
   5   2.0000      -0.532040       -14.4775
   6   2.0000      -0.525137       -14.2897
   7   2.0000      -0.444708       -12.1011
   8   2.0000      -0.370903       -10.0928
   9   0.0000       0.076179         2.0729
  10   0.0000       0.117546         3.1986
  11   0.0000       0.148745         4.0476
  12   0.0000       0.167944         4.5700
  13   0.0000       0.185406         5.0451

MULLIKEN ATOMIC CHARGES
-----------------------
   0 C :   -0.000033
   1 O :    0.000004
   2 H :    0.000001
   3 H :   -0.000103
   4 H :   -0.000035
   5 H :   -0.000033
   6 C :   -0.170041
   7 O :   -0.468968
   8 H :    0.307296
   9 H :    0.100275
  10 H :    0.105380
  11 H :    0.126258
Sum of atomic charges:    0.0000000

LOEWDIN ATOMIC CHARGES
----------------------
   0 C :   -0.000342
   1 O :   -0.000006
   2 H :   -0.000000
   3 H :   -0.000067
   4 H :   -0.000581
   5 H :   -0.000007
   6 C :   -0.373213
   7 O :   -0.073980
   8 H :    0.149668
   9 H :    0.094221
  10 H :    0.090321
  11 H :    0.113986

  Mayer bond orders larger than 0.1
B(  6-C ,  7-O ) :   0.9931 B(  6-C ,  9-H ) :   0.9649 B(  6-C , 10-H ) :   0.9861
B(  6-C , 11-H ) :   0.9740 B(  7-O ,  8-H ) :   0.9076

Dispersion correction           -0.000235006
FINAL SINGLE POINT ENERGY      -115.730977957790

DIPOLE MOMENT
-------------
                                X             Y             Z
Electronic contribution:     -1.25829      -1.08468      -0.77327
Nuclear contribution   :      1.43407       1.19961       1.45769
                        -----------------------------------------
Total Dipole Moment    :      0.17578       0.11493       0.68442
                        -----------------------------------------
Magnitude (a.u.)       :      0.71592
Magnitude (Debye)      :      1.81972

Rotational constants in cm-1:     4.371829     0.829314     0.784407
Rotational constants in MHz : 131064.125808 24862.196065 23515.940216

                             ****ORCA TERMINATED NORMALLY****
TOTAL RUN TIME: 0 days 0 hours 0 minutes 57 seconds 118 msec
