                         Program Version 4.1.2  - RELEASE  -
|  1> #Run DFT-D3 single point of the dimer
|  2> ! wB97X-D3 def2-TZVP TIGHTSCF CHELPG PMODEL PAL8
|  3>
|  4> %base "4-47_DFT_AB"
|  5>
|  6> %scf
|  7> MaxIter 1000
|  8> end
|  9>
| 10> * xyz 0 1
| 11>   C                      4.599833             1.923888             6.602593
| 12>   O                      3.786116             2.729609             7.484004
| 13>   H                      3.607876             3.440949             6.897519
| 14>   H                      5.455821             2.534420             6.223668
| 15>   H                      5.103900             1.124986             7.097621
| 16>   H                      4.070648             1.512387             5.743250
| 17>   C                      1.273106             -1.090796            4.502360
| 18>   O                      2.124407             -0.962128            3.463124
| 19>   H                      1.972989             -1.685681            2.887685
| 20>   H                      0.415376             -1.764596            4.340729
| 21>   H                      1.825352             -1.582029            5.301088
| 22>   H                      0.854606             -0.187528            4.906061
| 23> *
| 24>
| 25> #Run DFT-D3 single point of the molecule with dimer basis set
| 26> $new_job
| 27> %base "4-47_DFT_A"
| 28> ! wB97X-D3 def2-TZVP TIGHTSCF CHELPG PMODEL
| 29>
| 30> %scf
| 31> MaxIter 1000
| 32> end
| 33>
| 34> * xyz 0 1
| 35>   C                      4.599833             1.923888             6.602593
| 36>   O                      3.786116             2.729609             7.484004
| 37>   H                      3.607876             3.440949             6.897519
| 38>   H                      5.455821             2.534420             6.223668
| 39>   H                      5.103900             1.124986             7.097621
| 40>   H                      4.070648             1.512387             5.743250
| 41>   C                    : 1.273106             -1.090796            4.502360
| 42>   O                    : 2.124407             -0.962128            3.463124
| 43>   H                    : 1.972989             -1.685681            2.887685
| 44>   H                    : 0.415376             -1.764596            4.340729
| 45>   H                    : 1.825352             -1.582029            5.301088
| 46>   H                    : 0.854606             -0.187528            4.906061
| 47> *
| 48>
| 49> #Run DFT-D3 single point of the particle with dimer basis set
| 50> $new_job
| 51> %base "4-47_DFT_B"
| 52> ! wB97X-D3 def2-TZVP TIGHTSCF CHELPG PMODEL
| 53>
| 54> %scf
| 55> MaxIter 1000
| 56> end
| 57>
| 58> * xyz 0 1
| 59>   C                    : 4.599833             1.923888             6.602593
| 60>   O                    : 3.786116             2.729609             7.484004
| 61>   H                    : 3.607876             3.440949             6.897519
| 62>   H                    : 5.455821             2.534420             6.223668
| 63>   H                    : 5.103900             1.124986             7.097621
| 64>   H                    : 4.070648             1.512387             5.743250
| 65>   C                      1.273106             -1.090796            4.502360
| 66>   O                      2.124407             -0.962128            3.463124
| 67>   H                      1.972989             -1.685681            2.887685
| 68>   H                      0.415376             -1.764596            4.340729
| 69>   H                      1.825352             -1.582029            5.301088
| 70>   H                      0.854606             -0.187528            4.906061
| 71> *
| 72>
| 73>                          ****END OF INPUT****
 Total Charge           Charge          ....    0
 Multiplicity           Mult            ....    1
 Number of Electrons    NEL             ....   36
Dispersion correction           -0.000824351
FINAL SINGLE POINT ENERGY      -231.461445523173
Dispersion correction           -0.000234917
FINAL SINGLE POINT ENERGY      -115.731263776110

CARTESIAN COORDINATES (ANGSTROEM)
---------------------------------
  C      4.599833    1.923888    6.602593
  O      3.786116    2.729609    7.484004
  H      3.607876    3.440949    6.897519
  H      5.455821    2.534420    6.223668
  H      5.103900    1.124986    7.097621
  H      4.070648    1.512387    5.743250
  C      1.273106   -1.090796    4.502360
  O      2.124407   -0.962128    3.463124
  H      1.972989   -1.685681    2.887685
  H      0.415376   -1.764596    4.340729
  H      1.825352   -1.582029    5.301088
  H      0.854606   -0.187528    4.906061

 Multiplicity           Mult            ....    1
 Number of Electrons    NEL             ....   18
 Basis Dimension        Dim             ....  172

ORBITAL ENERGIES
----------------

  NO   OCC          E(Eh)            E(eV)
   0   2.0000     -19.229245      -523.2543
   1   2.0000     -10.305002      -280.4133
   2   2.0000      -1.163711       -31.6662
   3   2.0000      -0.797467       -21.7002
   4   2.0000      -0.629768       -17.1369
   5   2.0000      -0.551001       -14.9935
   6   2.0000      -0.536009       -14.5855
   7   2.0000      -0.431476       -11.7411
   8   2.0000      -0.368120       -10.0170
   9   0.0000       0.090962         2.4752
  10   0.0000       0.116904         3.1811
  11   0.0000       0.157459         4.2847
  12   0.0000       0.169953         4.6246
  13   0.0000       0.191394         5.2081

MULLIKEN ATOMIC CHARGES
-----------------------
   0 C :    0.000004
   1 O :    0.000004
   2 H :    0.000001
   3 H :   -0.000002
   4 H :   -0.000017
   5 H :   -0.000388
   6 C :   -0.163631
   7 O :   -0.453809
   8 H :    0.317590
   9 H :    0.097676
  10 H :    0.093977
  11 H :    0.108595
Sum of atomic charges:   -0.0000000

LOEWDIN ATOMIC CHARGES
----------------------
   0 C :   -0.000085
   1 O :   -0.000005
   2 H :   -0.000002
   3 H :   -0.000001
   4 H :   -0.000009
   5 H :   -0.000217
   6 C :   -0.437655
   7 O :   -0.014917
   8 H :    0.163956
   9 H :    0.096255
  10 H :    0.094157
  11 H :    0.098524

  Mayer bond orders larger than 0.1
B(  6-C ,  7-O ) :   1.0052 B(  6-C ,  9-H ) :   0.9830 B(  6-C , 10-H ) :   0.9866
B(  6-C , 11-H ) :   0.9722 B(  7-O ,  8-H ) :   0.9008

Dispersion correction           -0.000216490
FINAL SINGLE POINT ENERGY      -115.729189805510

DIPOLE MOMENT
-------------
                                X             Y             Z
Electronic contribution:      1.19030       0.41840      -1.48954
Nuclear contribution   :     -1.60860      -0.94230       1.46922
                        -----------------------------------------
Total Dipole Moment    :     -0.41830      -0.52390      -0.02032
                        -----------------------------------------
Magnitude (a.u.)       :      0.67072
Magnitude (Debye)      :      1.70483

Rotational constants in cm-1:     4.498285     0.891784     0.858116
Rotational constants in MHz : 134855.194098 26735.007821 25725.663200

                             ****ORCA TERMINATED NORMALLY****
TOTAL RUN TIME: 0 days 0 hours 1 minutes 26 seconds 971 msec
