                         Program Version 4.1.2  - RELEASE  -
|  1> #Run DFT-D3 single point of the dimer
|  2> ! wB97X-D3 def2-TZVP TIGHTSCF CHELPG PMODEL PAL8
|  3>
|  4> %base "20-121_DFT_AB"
|  5>
|  6> %scf
|  7> MaxIter 1000
|  8> end
|  9>
| 10> * xyz 0 1
| 11>   C                      -1.761067            5.722091             -2.002277
| 12>   O                      -1.949604            4.450320             -2.319201
| 13>   H                      -2.743328            3.992807             -2.075747
| 14>   H                      -2.692750            6.144057             -1.678658
| 15>   H                      -0.954174            5.871586             -1.341224
| 16>   H                      -1.561292            6.309232             -2.952997
| 17>   C                      -5.532352            1.521429             -4.986834
| 18>   O                      -5.929493            2.059288             -3.744234
| 19>   H                      -5.385958            2.828301             -3.642485
| 20>   H                      -6.063086            0.587966             -5.388403
| 21>   H                      -5.649632            2.148666             -5.799708
| 22>   H                      -4.452521            1.444972             -5.075906
| 23> *
| 24>
| 25> #Run DFT-D3 single point of the molecule with dimer basis set
| 26> $new_job
| 27> %base "20-121_DFT_A"
| 28> ! wB97X-D3 def2-TZVP TIGHTSCF CHELPG PMODEL
| 29>
| 30> %scf
| 31> MaxIter 1000
| 32> end
| 33>
| 34> * xyz 0 1
| 35>   C                      -1.761067            5.722091             -2.002277
| 36>   O                      -1.949604            4.450320             -2.319201
| 37>   H                      -2.743328            3.992807             -2.075747
| 38>   H                      -2.692750            6.144057             -1.678658
| 39>   H                      -0.954174            5.871586             -1.341224
| 40>   H                      -1.561292            6.309232             -2.952997
| 41>   C                    : -5.532352            1.521429             -4.986834
| 42>   O                    : -5.929493            2.059288             -3.744234
| 43>   H                    : -5.385958            2.828301             -3.642485
| 44>   H                    : -6.063086            0.587966             -5.388403
| 45>   H                    : -5.649632            2.148666             -5.799708
| 46>   H                    : -4.452521            1.444972             -5.075906
| 47> *
| 48>
| 49> #Run DFT-D3 single point of the particle with dimer basis set
| 50> $new_job
| 51> %base "20-121_DFT_B"
| 52> ! wB97X-D3 def2-TZVP TIGHTSCF CHELPG PMODEL
| 53>
| 54> %scf
| 55> MaxIter 1000
| 56> end
| 57>
| 58> * xyz 0 1
| 59>   C                    : -1.761067            5.722091             -2.002277
| 60>   O                    : -1.949604            4.450320             -2.319201
| 61>   H                    : -2.743328            3.992807             -2.075747
| 62>   H                    : -2.692750            6.144057             -1.678658
| 63>   H                    : -0.954174            5.871586             -1.341224
| 64>   H                    : -1.561292            6.309232             -2.952997
| 65>   C                      -5.532352            1.521429             -4.986834
| 66>   O                      -5.929493            2.059288             -3.744234
| 67>   H                      -5.385958            2.828301             -3.642485
| 68>   H                      -6.063086            0.587966             -5.388403
| 69>   H                      -5.649632            2.148666             -5.799708
| 70>   H                      -4.452521            1.444972             -5.075906
| 71> *
| 72>
| 73>                          ****END OF INPUT****
 Total Charge           Charge          ....    0
 Multiplicity           Mult            ....    1
 Number of Electrons    NEL             ....   36
Dispersion correction           -0.000745675
FINAL SINGLE POINT ENERGY      -231.444418983269
Dispersion correction           -0.000226593
FINAL SINGLE POINT ENERGY      -115.723134416190

CARTESIAN COORDINATES (ANGSTROEM)
---------------------------------
  C     -1.761067    5.722091   -2.002277
  O     -1.949604    4.450320   -2.319201
  H     -2.743328    3.992807   -2.075747
  H     -2.692750    6.144057   -1.678658
  H     -0.954174    5.871586   -1.341224
  H     -1.561292    6.309232   -2.952997
  C     -5.532352    1.521429   -4.986834
  O     -5.929493    2.059288   -3.744234
  H     -5.385958    2.828301   -3.642485
  H     -6.063086    0.587966   -5.388403
  H     -5.649632    2.148666   -5.799708
  H     -4.452521    1.444972   -5.075906

 Multiplicity           Mult            ....    1
 Number of Electrons    NEL             ....   18
 Basis Dimension        Dim             ....  172

ORBITAL ENERGIES
----------------

  NO   OCC          E(Eh)            E(eV)
   0   2.0000     -19.235171      -523.4156
   1   2.0000     -10.311337      -280.5857
   2   2.0000      -1.144873       -31.1536
   3   2.0000      -0.802375       -21.8337
   4   2.0000      -0.623388       -16.9632
   5   2.0000      -0.539586       -14.6829
   6   2.0000      -0.520712       -14.1693
   7   2.0000      -0.443361       -12.0645
   8   2.0000      -0.371341       -10.1047
   9   0.0000       0.077204         2.1008
  10   0.0000       0.112617         3.0645
  11   0.0000       0.145623         3.9626
  12   0.0000       0.177302         4.8246
  13   0.0000       0.194807         5.3010

MULLIKEN ATOMIC CHARGES
-----------------------
   0 C :    0.000057
   1 O :    0.000059
   2 H :   -0.000649
   3 H :   -0.000005
   4 H :   -0.000002
   5 H :   -0.000000
   6 C :   -0.185412
   7 O :   -0.458533
   8 H :    0.314802
   9 H :    0.120757
  10 H :    0.108900
  11 H :    0.100027
Sum of atomic charges:   -0.0000000

LOEWDIN ATOMIC CHARGES
----------------------
   0 C :   -0.000012
   1 O :   -0.000019
   2 H :   -0.000500
   3 H :   -0.000000
   4 H :   -0.000000
   5 H :   -0.000000
   6 C :   -0.401121
   7 O :   -0.062255
   8 H :    0.166456
   9 H :    0.122147
  10 H :    0.080884
  11 H :    0.094420

  Mayer bond orders larger than 0.1
B(  6-C ,  7-O ) :   0.9995 B(  6-C ,  9-H ) :   0.9716 B(  6-C , 10-H ) :   0.9722
B(  6-C , 11-H ) :   0.9829 B(  7-O ,  8-H ) :   0.9008

Dispersion correction           -0.000238021
FINAL SINGLE POINT ENERGY      -115.721293601134

DIPOLE MOMENT
-------------
                                X             Y             Z
Electronic contribution:     -0.72037       0.56522       1.82451
Nuclear contribution   :      1.21515      -0.24633      -2.28568
                        -----------------------------------------
Total Dipole Moment    :      0.49478       0.31889      -0.46118
                        -----------------------------------------
Magnitude (a.u.)       :      0.74778
Magnitude (Debye)      :      1.90071

Rotational constants in cm-1:     4.584123     0.831710     0.782344
Rotational constants in MHz : 137428.543371 24934.029861 23454.072910

                             ****ORCA TERMINATED NORMALLY****
TOTAL RUN TIME: 0 days 0 hours 0 minutes 57 seconds 787 msec
