                         Program Version 4.1.2  - RELEASE  -
|  1> #Run DFT-D3 single point of the dimer
|  2> ! wB97X-D3 def2-TZVP TIGHTSCF CHELPG PMODEL PAL8
|  3>
|  4> %base "12-125_DFT_AB"
|  5>
|  6> %scf
|  7> MaxIter 1000
|  8> end
|  9>
| 10> * xyz 0 1
| 11>   C                      5.041484             0.838788             -10.238675
| 12>   O                      5.819036             1.876236             -9.692237
| 13>   H                      5.582143             1.881685             -8.727786
| 14>   H                      4.053513             1.244202             -10.335477
| 15>   H                      5.368006             0.435696             -11.233262
| 16>   H                      4.956666             -0.013747            -9.578438
| 17>   C                      3.865988             5.132188             -8.972686
| 18>   O                      4.887653             6.017947             -9.473078
| 19>   H                      5.675274             5.781204             -8.960154
| 20>   H                      3.066308             4.858533             -9.711864
| 21>   H                      4.179430             4.116056             -8.653682
| 22>   H                      3.328179             5.516692             -8.037070
| 23> *
| 24>
| 25> #Run DFT-D3 single point of the molecule with dimer basis set
| 26> $new_job
| 27> %base "12-125_DFT_A"
| 28> ! wB97X-D3 def2-TZVP TIGHTSCF CHELPG PMODEL
| 29>
| 30> %scf
| 31> MaxIter 1000
| 32> end
| 33>
| 34> * xyz 0 1
| 35>   C                      5.041484             0.838788             -10.238675
| 36>   O                      5.819036             1.876236             -9.692237
| 37>   H                      5.582143             1.881685             -8.727786
| 38>   H                      4.053513             1.244202             -10.335477
| 39>   H                      5.368006             0.435696             -11.233262
| 40>   H                      4.956666             -0.013747            -9.578438
| 41>   C                    : 3.865988             5.132188             -8.972686
| 42>   O                    : 4.887653             6.017947             -9.473078
| 43>   H                    : 5.675274             5.781204             -8.960154
| 44>   H                    : 3.066308             4.858533             -9.711864
| 45>   H                    : 4.179430             4.116056             -8.653682
| 46>   H                    : 3.328179             5.516692             -8.037070
| 47> *
| 48>
| 49> #Run DFT-D3 single point of the particle with dimer basis set
| 50> $new_job
| 51> %base "12-125_DFT_B"
| 52> ! wB97X-D3 def2-TZVP TIGHTSCF CHELPG PMODEL
| 53>
| 54> %scf
| 55> MaxIter 1000
| 56> end
| 57>
| 58> * xyz 0 1
| 59>   C                    : 5.041484             0.838788             -10.238675
| 60>   O                    : 5.819036             1.876236             -9.692237
| 61>   H                    : 5.582143             1.881685             -8.727786
| 62>   H                    : 4.053513             1.244202             -10.335477
| 63>   H                    : 5.368006             0.435696             -11.233262
| 64>   H                    : 4.956666             -0.013747            -9.578438
| 65>   C                      3.865988             5.132188             -8.972686
| 66>   O                      4.887653             6.017947             -9.473078
| 67>   H                      5.675274             5.781204             -8.960154
| 68>   H                      3.066308             4.858533             -9.711864
| 69>   H                      4.179430             4.116056             -8.653682
| 70>   H                      3.328179             5.516692             -8.037070
| 71> *
| 72>
| 73>                          ****END OF INPUT****
 Total Charge           Charge          ....    0
 Multiplicity           Mult            ....    1
 Number of Electrons    NEL             ....   36
Dispersion correction           -0.001423618
FINAL SINGLE POINT ENERGY      -231.460205349933
Dispersion correction           -0.000223153
FINAL SINGLE POINT ENERGY      -115.730994531459

CARTESIAN COORDINATES (ANGSTROEM)
---------------------------------
  C      5.041484    0.838788  -10.238675
  O      5.819036    1.876236   -9.692237
  H      5.582143    1.881685   -8.727786
  H      4.053513    1.244202  -10.335477
  H      5.368006    0.435696  -11.233262
  H      4.956666   -0.013747   -9.578438
  C      3.865988    5.132188   -8.972686
  O      4.887653    6.017947   -9.473078
  H      5.675274    5.781204   -8.960154
  H      3.066308    4.858533   -9.711864
  H      4.179430    4.116056   -8.653682
  H      3.328179    5.516692   -8.037070

 Multiplicity           Mult            ....    1
 Number of Electrons    NEL             ....   18
 Basis Dimension        Dim             ....  172

ORBITAL ENERGIES
----------------

  NO   OCC          E(Eh)            E(eV)
   0   2.0000     -19.240821      -523.5694
   1   2.0000     -10.326567      -281.0002
   2   2.0000      -1.132823       -30.8257
   3   2.0000      -0.791115       -21.5273
   4   2.0000      -0.609225       -16.5779
   5   2.0000      -0.530258       -14.4290
   6   2.0000      -0.518750       -14.1159
   7   2.0000      -0.438065       -11.9204
   8   2.0000      -0.378049       -10.2872
   9   0.0000       0.079825         2.1722
  10   0.0000       0.116503         3.1702
  11   0.0000       0.142902         3.8886
  12   0.0000       0.164777         4.4838
  13   0.0000       0.192762         5.2453

MULLIKEN ATOMIC CHARGES
-----------------------
   0 C :    0.000498
   1 O :    0.000499
   2 H :    0.000048
   3 H :   -0.000562
   4 H :   -0.000045
   5 H :   -0.000053
   6 C :   -0.193637
   7 O :   -0.460889
   8 H :    0.319482
   9 H :    0.125118
  10 H :    0.105335
  11 H :    0.104205
Sum of atomic charges:   -0.0000000

LOEWDIN ATOMIC CHARGES
----------------------
   0 C :   -0.000575
   1 O :   -0.001101
   2 H :   -0.002387
   3 H :   -0.000316
   4 H :   -0.000008
   5 H :   -0.000002
   6 C :   -0.393266
   7 O :   -0.092701
   8 H :    0.177615
   9 H :    0.112344
  10 H :    0.097614
  11 H :    0.102782

  Mayer bond orders larger than 0.1
B(  6-C ,  7-O ) :   1.0095 B(  6-C ,  9-H ) :   0.9723 B(  6-C , 10-H ) :   0.9709
B(  6-C , 11-H ) :   0.9700 B(  7-O ,  8-H ) :   0.8976

Dispersion correction           -0.000292699
FINAL SINGLE POINT ENERGY      -115.728867447917

DIPOLE MOMENT
-------------
                                X             Y             Z
Electronic contribution:      1.37554       1.33881      -0.86345
Nuclear contribution   :     -1.26318      -1.86321       1.36667
                        -----------------------------------------
Total Dipole Moment    :      0.11236      -0.52439       0.50322
                        -----------------------------------------
Magnitude (a.u.)       :      0.73542
Magnitude (Debye)      :      1.86930

Rotational constants in cm-1:     4.279349     0.781713     0.758208
Rotational constants in MHz : 128291.641769 23435.151349 22730.494799

                             ****ORCA TERMINATED NORMALLY****
TOTAL RUN TIME: 0 days 0 hours 1 minutes 11 seconds 261 msec
