                         Program Version 4.1.2  - RELEASE  -
|  1> #Run DFT-D3 single point of the dimer
|  2> ! wB97X-D3 def2-TZVP TIGHTSCF CHELPG PMODEL PAL8
|  3>
|  4> %base "22-32_DFT_AB"
|  5>
|  6> %scf
|  7> MaxIter 1000
|  8> end
|  9>
| 10> * xyz 0 1
| 11>   C                      -7.103731            6.653923             -1.669574
| 12>   O                      -6.894566            5.210805             -1.789627
| 13>   H                      -7.334692            4.689197             -1.072243
| 14>   H                      -8.194465            6.918869             -1.815733
| 15>   H                      -6.801057            7.072376             -0.661411
| 16>   H                      -6.560077            7.160748             -2.438667
| 17>   C                      -5.583380            10.547708            -4.794975
| 18>   O                      -4.322914            10.563281            -5.290126
| 19>   H                      -4.382848            10.627977            -6.245043
| 20>   H                      -5.522878            10.291070            -3.754556
| 21>   H                      -5.904439            11.575678            -4.861461
| 22>   H                      -6.284927            9.842735             -5.113026
| 23> *
| 24>
| 25> #Run DFT-D3 single point of the molecule with dimer basis set
| 26> $new_job
| 27> %base "22-32_DFT_A"
| 28> ! wB97X-D3 def2-TZVP TIGHTSCF CHELPG PMODEL
| 29>
| 30> %scf
| 31> MaxIter 1000
| 32> end
| 33>
| 34> * xyz 0 1
| 35>   C                      -7.103731            6.653923             -1.669574
| 36>   O                      -6.894566            5.210805             -1.789627
| 37>   H                      -7.334692            4.689197             -1.072243
| 38>   H                      -8.194465            6.918869             -1.815733
| 39>   H                      -6.801057            7.072376             -0.661411
| 40>   H                      -6.560077            7.160748             -2.438667
| 41>   C                    : -5.583380            10.547708            -4.794975
| 42>   O                    : -4.322914            10.563281            -5.290126
| 43>   H                    : -4.382848            10.627977            -6.245043
| 44>   H                    : -5.522878            10.291070            -3.754556
| 45>   H                    : -5.904439            11.575678            -4.861461
| 46>   H                    : -6.284927            9.842735             -5.113026
| 47> *
| 48>
| 49> #Run DFT-D3 single point of the particle with dimer basis set
| 50> $new_job
| 51> %base "22-32_DFT_B"
| 52> ! wB97X-D3 def2-TZVP TIGHTSCF CHELPG PMODEL
| 53>
| 54> %scf
| 55> MaxIter 1000
| 56> end
| 57>
| 58> * xyz 0 1
| 59>   C                    : -7.103731            6.653923             -1.669574
| 60>   O                    : -6.894566            5.210805             -1.789627
| 61>   H                    : -7.334692            4.689197             -1.072243
| 62>   H                    : -8.194465            6.918869             -1.815733
| 63>   H                    : -6.801057            7.072376             -0.661411
| 64>   H                    : -6.560077            7.160748             -2.438667
| 65>   C                      -5.583380            10.547708            -4.794975
| 66>   O                      -4.322914            10.563281            -5.290126
| 67>   H                      -4.382848            10.627977            -6.245043
| 68>   H                      -5.522878            10.291070            -3.754556
| 69>   H                      -5.904439            11.575678            -4.861461
| 70>   H                      -6.284927            9.842735             -5.113026
| 71> *
| 72>
| 73>                          ****END OF INPUT****
 Total Charge           Charge          ....    0
 Multiplicity           Mult            ....    1
 Number of Electrons    NEL             ....   36
Dispersion correction           -0.000767831
FINAL SINGLE POINT ENERGY      -231.457775772284
Dispersion correction           -0.000295650
FINAL SINGLE POINT ENERGY      -115.731602657406

CARTESIAN COORDINATES (ANGSTROEM)
---------------------------------
  C     -7.103731    6.653923   -1.669574
  O     -6.894566    5.210805   -1.789627
  H     -7.334692    4.689197   -1.072243
  H     -8.194465    6.918869   -1.815733
  H     -6.801057    7.072376   -0.661411
  H     -6.560077    7.160748   -2.438667
  C     -5.583380   10.547708   -4.794975
  O     -4.322914   10.563281   -5.290126
  H     -4.382848   10.627977   -6.245043
  H     -5.522878   10.291070   -3.754556
  H     -5.904439   11.575678   -4.861461
  H     -6.284927    9.842735   -5.113026

 Multiplicity           Mult            ....    1
 Number of Electrons    NEL             ....   18
 Basis Dimension        Dim             ....  172

ORBITAL ENERGIES
----------------

  NO   OCC          E(Eh)            E(eV)
   0   2.0000     -19.227889      -523.2175
   1   2.0000     -10.296282      -280.1761
   2   2.0000      -1.155717       -31.4487
   3   2.0000      -0.800288       -21.7769
   4   2.0000      -0.622441       -16.9375
   5   2.0000      -0.563763       -15.3408
   6   2.0000      -0.529108       -14.3978
   7   2.0000      -0.425101       -11.5676
   8   2.0000      -0.371167       -10.1000
   9   0.0000       0.084738         2.3058
  10   0.0000       0.118406         3.2220
  11   0.0000       0.143829         3.9138
  12   0.0000       0.178587         4.8596
  13   0.0000       0.193341         5.2611

MULLIKEN ATOMIC CHARGES
-----------------------
   0 C :   -0.000007
   1 O :   -0.000001
   2 H :   -0.000000
   3 H :   -0.000003
   4 H :   -0.000008
   5 H :   -0.000127
   6 C :   -0.156654
   7 O :   -0.462100
   8 H :    0.313204
   9 H :    0.108725
  10 H :    0.095253
  11 H :    0.101718
Sum of atomic charges:   -0.0000000

LOEWDIN ATOMIC CHARGES
----------------------
   0 C :   -0.000107
   1 O :   -0.000002
   2 H :   -0.000000
   3 H :   -0.000003
   4 H :   -0.000004
   5 H :   -0.000195
   6 C :   -0.429185
   7 O :   -0.030038
   8 H :    0.172591
   9 H :    0.107363
  10 H :    0.095597
  11 H :    0.083984

  Mayer bond orders larger than 0.1
B(  6-C ,  7-O ) :   1.0090 B(  6-C ,  9-H ) :   0.9734 B(  6-C , 10-H ) :   0.9958
B(  6-C , 11-H ) :   0.9660 B(  7-O ,  8-H ) :   0.9000

Dispersion correction           -0.000208296
FINAL SINGLE POINT ENERGY      -115.725989350983

DIPOLE MOMENT
-------------
                                X             Y             Z
Electronic contribution:      1.66052      -0.08434      -0.68404
Nuclear contribution   :     -2.15707       0.09112       0.27318
                        -----------------------------------------
Total Dipole Moment    :     -0.49655       0.00678      -0.41087
                        -----------------------------------------
Magnitude (a.u.)       :      0.64453
Magnitude (Debye)      :      1.63827

Rotational constants in cm-1:     4.544273     0.892681     0.870274
Rotational constants in MHz : 136233.871753 26761.890214 26090.168110

                             ****ORCA TERMINATED NORMALLY****
TOTAL RUN TIME: 0 days 0 hours 0 minutes 49 seconds 941 msec
