                         Program Version 4.1.2  - RELEASE  -
|  1> #Run DFT-D3 single point of the dimer
|  2> ! wB97X-D3 def2-TZVP TIGHTSCF CHELPG PMODEL PAL8
|  3>
|  4> %base "11-172_DFT_AB"
|  5>
|  6> %scf
|  7> MaxIter 1000
|  8> end
|  9>
| 10> * xyz 0 1
| 11>   C                      1.463543             -4.993512            8.717868
| 12>   O                      1.459707             -3.615025            8.438369
| 13>   H                      2.311640             -3.280222            8.110350
| 14>   H                      0.806054             -5.469183            8.034112
| 15>   H                      2.417977             -5.332903            8.555645
| 16>   H                      1.200727             -5.212282            9.774085
| 17>   C                      4.321066             -3.521203            6.219270
| 18>   O                      4.283638             -3.174605            7.540469
| 19>   H                      5.007427             -2.577754            7.806071
| 20>   H                      3.381811             -4.169405            5.944546
| 21>   H                      4.438452             -2.680389            5.550083
| 22>   H                      5.129554             -4.352500            6.075508
| 23> *
| 24>
| 25> #Run DFT-D3 single point of the molecule with dimer basis set
| 26> $new_job
| 27> %base "11-172_DFT_A"
| 28> ! wB97X-D3 def2-TZVP TIGHTSCF CHELPG PMODEL
| 29>
| 30> %scf
| 31> MaxIter 1000
| 32> end
| 33>
| 34> * xyz 0 1
| 35>   C                      1.463543             -4.993512            8.717868
| 36>   O                      1.459707             -3.615025            8.438369
| 37>   H                      2.311640             -3.280222            8.110350
| 38>   H                      0.806054             -5.469183            8.034112
| 39>   H                      2.417977             -5.332903            8.555645
| 40>   H                      1.200727             -5.212282            9.774085
| 41>   C                    : 4.321066             -3.521203            6.219270
| 42>   O                    : 4.283638             -3.174605            7.540469
| 43>   H                    : 5.007427             -2.577754            7.806071
| 44>   H                    : 3.381811             -4.169405            5.944546
| 45>   H                    : 4.438452             -2.680389            5.550083
| 46>   H                    : 5.129554             -4.352500            6.075508
| 47> *
| 48>
| 49> #Run DFT-D3 single point of the particle with dimer basis set
| 50> $new_job
| 51> %base "11-172_DFT_B"
| 52> ! wB97X-D3 def2-TZVP TIGHTSCF CHELPG PMODEL
| 53>
| 54> %scf
| 55> MaxIter 1000
| 56> end
| 57>
| 58> * xyz 0 1
| 59>   C                    : 1.463543             -4.993512            8.717868
| 60>   O                    : 1.459707             -3.615025            8.438369
| 61>   H                    : 2.311640             -3.280222            8.110350
| 62>   H                    : 0.806054             -5.469183            8.034112
| 63>   H                    : 2.417977             -5.332903            8.555645
| 64>   H                    : 1.200727             -5.212282            9.774085
| 65>   C                      4.321066             -3.521203            6.219270
| 66>   O                      4.283638             -3.174605            7.540469
| 67>   H                      5.007427             -2.577754            7.806071
| 68>   H                      3.381811             -4.169405            5.944546
| 69>   H                      4.438452             -2.680389            5.550083
| 70>   H                      5.129554             -4.352500            6.075508
| 71> *
| 72>
| 73>                          ****END OF INPUT****
 Total Charge           Charge          ....    0
 Multiplicity           Mult            ....    1
 Number of Electrons    NEL             ....   36
Dispersion correction           -0.001997516
FINAL SINGLE POINT ENERGY      -231.464703016105
Dispersion correction           -0.000232889
FINAL SINGLE POINT ENERGY      -115.729950306296

CARTESIAN COORDINATES (ANGSTROEM)
---------------------------------
  C      1.463543   -4.993512    8.717868
  O      1.459707   -3.615025    8.438369
  H      2.311640   -3.280222    8.110350
  H      0.806054   -5.469183    8.034112
  H      2.417977   -5.332903    8.555645
  H      1.200727   -5.212282    9.774085
  C      4.321066   -3.521203    6.219270
  O      4.283638   -3.174605    7.540469
  H      5.007427   -2.577754    7.806071
  H      3.381811   -4.169405    5.944546
  H      4.438452   -2.680389    5.550083
  H      5.129554   -4.352500    6.075508

 Multiplicity           Mult            ....    1
 Number of Electrons    NEL             ....   18
 Basis Dimension        Dim             ....  172

ORBITAL ENERGIES
----------------

  NO   OCC          E(Eh)            E(eV)
   0   2.0000     -19.232177      -523.3342
   1   2.0000     -10.324399      -280.9412
   2   2.0000      -1.147863       -31.2350
   3   2.0000      -0.786178       -21.3930
   4   2.0000      -0.617724       -16.8091
   5   2.0000      -0.549087       -14.9414
   6   2.0000      -0.523985       -14.2584
   7   2.0000      -0.419622       -11.4185
   8   2.0000      -0.366763        -9.9801
   9   0.0000       0.096758         2.6329
  10   0.0000       0.122669         3.3380
  11   0.0000       0.149223         4.0606
  12   0.0000       0.186295         5.0693
  13   0.0000       0.196477         5.3464

MULLIKEN ATOMIC CHARGES
-----------------------
   0 C :    0.002329
   1 O :   -0.000765
   2 H :   -0.005928
   3 H :   -0.000299
   4 H :   -0.003056
   5 H :   -0.000100
   6 C :   -0.156595
   7 O :   -0.466553
   8 H :    0.318491
   9 H :    0.116341
  10 H :    0.108341
  11 H :    0.087794
Sum of atomic charges:   -0.0000000

LOEWDIN ATOMIC CHARGES
----------------------
   0 C :   -0.003413
   1 O :   -0.003034
   2 H :   -0.030456
   3 H :   -0.000092
   4 H :   -0.002120
   5 H :   -0.000013
   6 C :   -0.434487
   7 O :   -0.021978
   8 H :    0.180435
   9 H :    0.123394
  10 H :    0.089640
  11 H :    0.102123

  Mayer bond orders larger than 0.1
B(  6-C ,  7-O ) :   0.9930 B(  6-C ,  9-H ) :   0.9716 B(  6-C , 10-H ) :   0.9696
B(  6-C , 11-H ) :   0.9741 B(  7-O ,  8-H ) :   0.8861

Dispersion correction           -0.000253533
FINAL SINGLE POINT ENERGY      -115.726249169068

DIPOLE MOMENT
-------------
                                X             Y             Z
Electronic contribution:     -0.15030       0.67968       1.75416
Nuclear contribution   :      0.62147      -0.39708      -2.05673
                        -----------------------------------------
Total Dipole Moment    :      0.47117       0.28260      -0.30257
                        -----------------------------------------
Magnitude (a.u.)       :      0.62723
Magnitude (Debye)      :      1.59428

Rotational constants in cm-1:     4.071609     0.859110     0.829744
Rotational constants in MHz : 122063.776924 25755.481467 24875.096982

                             ****ORCA TERMINATED NORMALLY****
TOTAL RUN TIME: 0 days 0 hours 1 minutes 15 seconds 251 msec
