                         Program Version 4.1.2  - RELEASE  -
|  1> #Run DFT-D3 single point of the dimer
|  2> ! wB97X-D3 def2-TZVP TIGHTSCF CHELPG PMODEL PAL8
|  3>
|  4> %base "1-47_DFT_AB"
|  5>
|  6> %scf
|  7> MaxIter 1000
|  8> end
|  9>
| 10> * xyz 0 1
| 11>   C                      -5.018804            -11.394211           4.335101
| 12>   O                      -4.125954            -10.858784           5.383765
| 13>   H                      -3.702437            -10.083851           5.035189
| 14>   H                      -5.527582            -10.505104           3.828122
| 15>   H                      -4.441818            -11.900742           3.519998
| 16>   H                      -5.719270            -12.198359           4.600835
| 17>   C                      -7.803609            -10.950523           0.162393
| 18>   O                      -7.511823            -9.544146            -0.088906
| 19>   H                      -8.132574            -9.169331            -0.766150
| 20>   H                      -6.958207            -11.511024           0.455349
| 21>   H                      -8.632460            -10.992537           0.912694
| 22>   H                      -8.119000            -11.448685           -0.746248
| 23> *
| 24>
| 25> #Run DFT-D3 single point of the molecule with dimer basis set
| 26> $new_job
| 27> %base "1-47_DFT_A"
| 28> ! wB97X-D3 def2-TZVP TIGHTSCF CHELPG PMODEL
| 29>
| 30> %scf
| 31> MaxIter 1000
| 32> end
| 33>
| 34> * xyz 0 1
| 35>   C                      -5.018804            -11.394211           4.335101
| 36>   O                      -4.125954            -10.858784           5.383765
| 37>   H                      -3.702437            -10.083851           5.035189
| 38>   H                      -5.527582            -10.505104           3.828122
| 39>   H                      -4.441818            -11.900742           3.519998
| 40>   H                      -5.719270            -12.198359           4.600835
| 41>   C                    : -7.803609            -10.950523           0.162393
| 42>   O                    : -7.511823            -9.544146            -0.088906
| 43>   H                    : -8.132574            -9.169331            -0.766150
| 44>   H                    : -6.958207            -11.511024           0.455349
| 45>   H                    : -8.632460            -10.992537           0.912694
| 46>   H                    : -8.119000            -11.448685           -0.746248
| 47> *
| 48>
| 49> #Run DFT-D3 single point of the particle with dimer basis set
| 50> $new_job
| 51> %base "1-47_DFT_B"
| 52> ! wB97X-D3 def2-TZVP TIGHTSCF CHELPG PMODEL
| 53>
| 54> %scf
| 55> MaxIter 1000
| 56> end
| 57>
| 58> * xyz 0 1
| 59>   C                    : -5.018804            -11.394211           4.335101
| 60>   O                    : -4.125954            -10.858784           5.383765
| 61>   H                    : -3.702437            -10.083851           5.035189
| 62>   H                    : -5.527582            -10.505104           3.828122
| 63>   H                    : -4.441818            -11.900742           3.519998
| 64>   H                    : -5.719270            -12.198359           4.600835
| 65>   C                      -7.803609            -10.950523           0.162393
| 66>   O                      -7.511823            -9.544146            -0.088906
| 67>   H                      -8.132574            -9.169331            -0.766150
| 68>   H                      -6.958207            -11.511024           0.455349
| 69>   H                      -8.632460            -10.992537           0.912694
| 70>   H                      -8.119000            -11.448685           -0.746248
| 71> *
| 72>
| 73>                          ****END OF INPUT****
 Total Charge           Charge          ....    0
 Multiplicity           Mult            ....    1
 Number of Electrons    NEL             ....   36
Dispersion correction           -0.000843373
FINAL SINGLE POINT ENERGY      -231.457435877176
Dispersion correction           -0.000282966
FINAL SINGLE POINT ENERGY      -115.726182715569

CARTESIAN COORDINATES (ANGSTROEM)
---------------------------------
  C     -5.018804  -11.394211    4.335101
  O     -4.125954  -10.858784    5.383765
  H     -3.702437  -10.083851    5.035189
  H     -5.527582  -10.505104    3.828122
  H     -4.441818  -11.900742    3.519998
  H     -5.719270  -12.198359    4.600835
  C     -7.803609  -10.950523    0.162393
  O     -7.511823   -9.544146   -0.088906
  H     -8.132574   -9.169331   -0.766150
  H     -6.958207  -11.511024    0.455349
  H     -8.632460  -10.992537    0.912694
  H     -8.119000  -11.448685   -0.746248

 Multiplicity           Mult            ....    1
 Number of Electrons    NEL             ....   18
 Basis Dimension        Dim             ....  172

ORBITAL ENERGIES
----------------

  NO   OCC          E(Eh)            E(eV)
   0   2.0000     -19.229327      -523.2566
   1   2.0000     -10.314618      -280.6750
   2   2.0000      -1.113737       -30.3063
   3   2.0000      -0.798308       -21.7231
   4   2.0000      -0.597572       -16.2608
   5   2.0000      -0.543252       -14.7826
   6   2.0000      -0.521558       -14.1923
   7   2.0000      -0.428500       -11.6601
   8   2.0000      -0.372745       -10.1429
   9   0.0000       0.087683         2.3860
  10   0.0000       0.112015         3.0481
  11   0.0000       0.144903         3.9430
  12   0.0000       0.169672         4.6170
  13   0.0000       0.188913         5.1406

MULLIKEN ATOMIC CHARGES
-----------------------
   0 C :   -0.000046
   1 O :    0.000002
   2 H :    0.000000
   3 H :    0.000081
   4 H :   -0.000045
   5 H :   -0.000024
   6 C :   -0.165564
   7 O :   -0.494433
   8 H :    0.318413
   9 H :    0.128570
  10 H :    0.105624
  11 H :    0.107423
Sum of atomic charges:   -0.0000000

LOEWDIN ATOMIC CHARGES
----------------------
   0 C :   -0.000107
   1 O :   -0.000001
   2 H :   -0.000000
   3 H :   -0.000043
   4 H :   -0.000041
   5 H :   -0.000010
   6 C :   -0.350404
   7 O :   -0.128402
   8 H :    0.183059
   9 H :    0.098238
  10 H :    0.102933
  11 H :    0.094779

  Mayer bond orders larger than 0.1
B(  6-C ,  7-O ) :   0.9917 B(  6-C ,  9-H ) :   0.9697 B(  6-C , 10-H ) :   0.9789
B(  6-C , 11-H ) :   0.9796 B(  7-O ,  8-H ) :   0.8933

Dispersion correction           -0.000263254
FINAL SINGLE POINT ENERGY      -115.730615915259

DIPOLE MOMENT
-------------
                                X             Y             Z
Electronic contribution:      0.56007       1.68309      -0.16872
Nuclear contribution   :     -1.05917      -2.06703      -0.18173
                        -----------------------------------------
Total Dipole Moment    :     -0.49909      -0.38395      -0.35045
                        -----------------------------------------
Magnitude (a.u.)       :      0.72064
Magnitude (Debye)      :      1.83172

Rotational constants in cm-1:     4.313190     0.782381     0.764763
Rotational constants in MHz : 129306.178116 23455.201782 22927.028226

                             ****ORCA TERMINATED NORMALLY****
TOTAL RUN TIME: 0 days 0 hours 6 minutes 5 seconds 808 msec
