                         Program Version 4.1.2  - RELEASE  -
|  1> #Run DFT-D3 single point of the dimer
|  2> ! wB97X-D3 def2-TZVP TIGHTSCF CHELPG PMODEL PAL8
|  3>
|  4> %base "19-130_DFT_AB"
|  5>
|  6> %scf
|  7> MaxIter 1000
|  8> end
|  9>
| 10> * xyz 0 1
| 11>   C                      -9.648259            -7.114879            0.808518
| 12>   O                      -10.714223           -6.721313            1.572976
| 13>   H                      -11.489091           -7.226045            1.245931
| 14>   H                      -8.693586            -6.596970            1.099219
| 15>   H                      -9.395222            -8.139283            0.973610
| 16>   H                      -9.822167            -7.014202            -0.280292
| 17>   C                      -10.168091           -2.949114            0.261102
| 18>   O                      -11.295517           -3.753772            0.500126
| 19>   H                      -11.227967           -3.909861            1.425621
| 20>   H                      -9.228378            -3.566037            0.185476
| 21>   H                      -10.289831           -2.384274            -0.661147
| 22>   H                      -9.949857            -2.171870            0.997315
| 23> *
| 24>
| 25> #Run DFT-D3 single point of the molecule with dimer basis set
| 26> $new_job
| 27> %base "19-130_DFT_A"
| 28> ! wB97X-D3 def2-TZVP TIGHTSCF CHELPG PMODEL
| 29>
| 30> %scf
| 31> MaxIter 1000
| 32> end
| 33>
| 34> * xyz 0 1
| 35>   C                      -9.648259            -7.114879            0.808518
| 36>   O                      -10.714223           -6.721313            1.572976
| 37>   H                      -11.489091           -7.226045            1.245931
| 38>   H                      -8.693586            -6.596970            1.099219
| 39>   H                      -9.395222            -8.139283            0.973610
| 40>   H                      -9.822167            -7.014202            -0.280292
| 41>   C                    : -10.168091           -2.949114            0.261102
| 42>   O                    : -11.295517           -3.753772            0.500126
| 43>   H                    : -11.227967           -3.909861            1.425621
| 44>   H                    : -9.228378            -3.566037            0.185476
| 45>   H                    : -10.289831           -2.384274            -0.661147
| 46>   H                    : -9.949857            -2.171870            0.997315
| 47> *
| 48>
| 49> #Run DFT-D3 single point of the particle with dimer basis set
| 50> $new_job
| 51> %base "19-130_DFT_B"
| 52> ! wB97X-D3 def2-TZVP TIGHTSCF CHELPG PMODEL
| 53>
| 54> %scf
| 55> MaxIter 1000
| 56> end
| 57>
| 58> * xyz 0 1
| 59>   C                    : -9.648259            -7.114879            0.808518
| 60>   O                    : -10.714223           -6.721313            1.572976
| 61>   H                    : -11.489091           -7.226045            1.245931
| 62>   H                    : -8.693586            -6.596970            1.099219
| 63>   H                    : -9.395222            -8.139283            0.973610
| 64>   H                    : -9.822167            -7.014202            -0.280292
| 65>   C                      -10.168091           -2.949114            0.261102
| 66>   O                      -11.295517           -3.753772            0.500126
| 67>   H                      -11.227967           -3.909861            1.425621
| 68>   H                      -9.228378            -3.566037            0.185476
| 69>   H                      -10.289831           -2.384274            -0.661147
| 70>   H                      -9.949857            -2.171870            0.997315
| 71> *
| 72>
| 73>                          ****END OF INPUT****
 Total Charge           Charge          ....    0
 Multiplicity           Mult            ....    1
 Number of Electrons    NEL             ....   36
Dispersion correction           -0.001746036
FINAL SINGLE POINT ENERGY      -231.469293992178
Dispersion correction           -0.000223719
FINAL SINGLE POINT ENERGY      -115.732870508404

CARTESIAN COORDINATES (ANGSTROEM)
---------------------------------
  C     -9.648259   -7.114879    0.808518
  O    -10.714223   -6.721313    1.572976
  H    -11.489091   -7.226045    1.245931
  H     -8.693586   -6.596970    1.099219
  H     -9.395222   -8.139283    0.973610
  H     -9.822167   -7.014202   -0.280292
  C    -10.168091   -2.949114    0.261102
  O    -11.295517   -3.753772    0.500126
  H    -11.227967   -3.909861    1.425621
  H     -9.228378   -3.566037    0.185476
  H    -10.289831   -2.384274   -0.661147
  H     -9.949857   -2.171870    0.997315

 Multiplicity           Mult            ....    1
 Number of Electrons    NEL             ....   18
 Basis Dimension        Dim             ....  172

ORBITAL ENERGIES
----------------

  NO   OCC          E(Eh)            E(eV)
   0   2.0000     -19.235301      -523.4192
   1   2.0000     -10.315247      -280.6921
   2   2.0000      -1.149782       -31.2872
   3   2.0000      -0.794431       -21.6176
   4   2.0000      -0.617515       -16.8034
   5   2.0000      -0.541735       -14.7413
   6   2.0000      -0.525644       -14.3035
   7   2.0000      -0.442445       -12.0396
   8   2.0000      -0.376525       -10.2458
   9   0.0000       0.083446         2.2707
  10   0.0000       0.128650         3.5007
  11   0.0000       0.144597         3.9347
  12   0.0000       0.175867         4.7856
  13   0.0000       0.195825         5.3287

MULLIKEN ATOMIC CHARGES
-----------------------
   0 C :   -0.003017
   1 O :   -0.000611
   2 H :   -0.000480
   3 H :   -0.000263
   4 H :   -0.000143
   5 H :   -0.000415
   6 C :   -0.185111
   7 O :   -0.451109
   8 H :    0.314020
   9 H :    0.098092
  10 H :    0.120225
  11 H :    0.108812
Sum of atomic charges:    0.0000000

LOEWDIN ATOMIC CHARGES
----------------------
   0 C :   -0.003674
   1 O :   -0.004146
   2 H :   -0.000788
   3 H :   -0.000347
   4 H :   -0.000085
   5 H :   -0.000498
   6 C :   -0.402902
   7 O :   -0.049330
   8 H :    0.162089
   9 H :    0.099354
  10 H :    0.106226
  11 H :    0.094102

  Mayer bond orders larger than 0.1
B(  6-C ,  7-O ) :   1.0104 B(  6-C ,  9-H ) :   0.9727 B(  6-C , 10-H ) :   0.9762
B(  6-C , 11-H ) :   0.9747 B(  7-O ,  8-H ) :   0.9049

Dispersion correction           -0.000237726
FINAL SINGLE POINT ENERGY      -115.733958796029

DIPOLE MOMENT
-------------
                                X             Y             Z
Electronic contribution:     -1.63983      -1.06588       0.19904
Nuclear contribution   :      2.08480       1.30869       0.29392
                        -----------------------------------------
Total Dipole Moment    :      0.44497       0.24281       0.49297
                        -----------------------------------------
Magnitude (a.u.)       :      0.70709
Magnitude (Debye)      :      1.79727

Rotational constants in cm-1:     4.318834     0.834921     0.808664
Rotational constants in MHz : 129475.398329 25030.290501 24243.133696

                             ****ORCA TERMINATED NORMALLY****
TOTAL RUN TIME: 0 days 0 hours 0 minutes 49 seconds 168 msec
