                         Program Version 4.1.2  - RELEASE  -
|  1> #Run DFT-D3 single point of the dimer
|  2> ! wB97X-D3 def2-TZVP TIGHTSCF  CHELPG PAL8
|  3>
|  4> %base "62_charges"
|  5>
|  6> %scf
|  7> MaxIter 1000
|  8> end
|  9> %output
| 10>   Print[ P_Mayer ] 1
| 11>   Print[ P_NatPop ] 1
| 12>   Print[ P_Hirshfeld ] 1
| 13>   Print[ P_Mulliken ] 1
| 14>   Print [ P_Loewdin ] 1
| 15> end
| 16>
| 17> * xyz 0 1
| 18>   C                      6.291706             -9.617175            -1.632350
| 19>   O                      6.794071             -10.312247           -0.541572
| 20>   H                      7.424581             -9.791194            -0.037470
| 21>   H                      7.085586             -9.135814            -2.268384
| 22>   H                      5.716561             -10.358487           -2.178664
| 23>   H                      5.512288             -8.825200            -1.292599
| 24> *
| 25>
| 26>                          ****END OF INPUT****

CARTESIAN COORDINATES (ANGSTROEM)
---------------------------------
  C      6.291706   -9.617175   -1.632350
  O      6.794071  -10.312247   -0.541572
  H      7.424581   -9.791194   -0.037470
  H      7.085586   -9.135814   -2.268384
  H      5.716561  -10.358487   -2.178664
  H      5.512288   -8.825200   -1.292599

 Total Charge           Charge          ....    0
 Multiplicity           Mult            ....    1
 Number of Electrons    NEL             ....   18
 Basis Dimension        Dim             ....   86

ORBITAL ENERGIES
----------------

  NO   OCC          E(Eh)            E(eV)
   0   2.0000     -19.229430      -523.2594
   1   2.0000     -10.320226      -280.8276
   2   2.0000      -1.142635       -31.0927
   3   2.0000      -0.790489       -21.5103
   4   2.0000      -0.612870       -16.6771
   5   2.0000      -0.537998       -14.6397
   6   2.0000      -0.528849       -14.3907
   7   2.0000      -0.428861       -11.6699
   8   2.0000      -0.369584       -10.0569
   9   0.0000       0.115181         3.1342
  10   0.0000       0.154801         4.2124
  11   0.0000       0.197477         5.3736
  12   0.0000       0.201063         5.4712
  13   0.0000       0.227931         6.2023

MULLIKEN ATOMIC CHARGES
-----------------------
   0 C :   -0.151911
   1 O :   -0.473246
   2 H :    0.315308
   3 H :    0.100608
   4 H :    0.120691
   5 H :    0.088550
Sum of atomic charges:    0.0000000

LOEWDIN ATOMIC CHARGES
----------------------
   0 C :   -0.413869
   1 O :   -0.060303
   2 H :    0.167774
   3 H :    0.098182
   4 H :    0.107397
   5 H :    0.100820

  Mayer bond orders larger than 0.1
B(  0-C ,  1-O ) :   1.0038 B(  0-C ,  3-H ) :   0.9701 B(  0-C ,  4-H ) :   0.9742
B(  0-C ,  5-H ) :   0.9724 B(  1-O ,  2-H ) :   0.8961

Dispersion correction           -0.000254898
FINAL SINGLE POINT ENERGY      -115.733197627063

DIPOLE MOMENT
-------------
                                X             Y             Z
Electronic contribution:      0.69506      -1.02534       1.32785
Nuclear contribution   :     -0.46860       1.59070      -1.41918
                        -----------------------------------------
Total Dipole Moment    :      0.22646       0.56537      -0.09133
                        -----------------------------------------
Magnitude (a.u.)       :      0.61585
Magnitude (Debye)      :      1.56535

Rotational constants in cm-1:     4.107301     0.848219     0.822323
Rotational constants in MHz : 123133.791365 25428.967582 24652.622631

                             ****ORCA TERMINATED NORMALLY****
TOTAL RUN TIME: 0 days 0 hours 0 minutes 41 seconds 241 msec
