                         Program Version 4.1.2  - RELEASE  -
|  1> #Run DFT-D3 single point of the dimer
|  2> ! wB97X-D3 def2-TZVP TIGHTSCF CHELPG PMODEL PAL8
|  3>
|  4> %base "5-96_DFT_AB"
|  5>
|  6> %scf
|  7> MaxIter 1000
|  8> end
|  9>
| 10> * xyz 0 1
| 11>   C                      9.518140             -9.620616            -3.107383
| 12>   O                      10.506839            -9.162423            -4.033828
| 13>   H                      10.192911            -8.597301            -4.716816
| 14>   H                      8.766802             -8.855435            -2.834577
| 15>   H                      8.944407             -10.443229           -3.539903
| 16>   H                      9.859461             -9.901562            -2.110812
| 17>   C                      4.446617             -11.047221           -2.967449
| 18>   O                      3.062924             -11.137170           -2.797637
| 19>   H                      2.677207             -10.973401           -3.674396
| 20>   H                      4.680721             -10.136833           -3.559049
| 21>   H                      5.051022             -10.753970           -2.086627
| 22>   H                      4.854918             -11.874599           -3.580567
| 23> *
| 24>
| 25> #Run DFT-D3 single point of the molecule with dimer basis set
| 26> $new_job
| 27> %base "5-96_DFT_A"
| 28> ! wB97X-D3 def2-TZVP TIGHTSCF CHELPG PMODEL
| 29>
| 30> %scf
| 31> MaxIter 1000
| 32> end
| 33>
| 34> * xyz 0 1
| 35>   C                      9.518140             -9.620616            -3.107383
| 36>   O                      10.506839            -9.162423            -4.033828
| 37>   H                      10.192911            -8.597301            -4.716816
| 38>   H                      8.766802             -8.855435            -2.834577
| 39>   H                      8.944407             -10.443229           -3.539903
| 40>   H                      9.859461             -9.901562            -2.110812
| 41>   C                    : 4.446617             -11.047221           -2.967449
| 42>   O                    : 3.062924             -11.137170           -2.797637
| 43>   H                    : 2.677207             -10.973401           -3.674396
| 44>   H                    : 4.680721             -10.136833           -3.559049
| 45>   H                    : 5.051022             -10.753970           -2.086627
| 46>   H                    : 4.854918             -11.874599           -3.580567
| 47> *
| 48>
| 49> #Run DFT-D3 single point of the particle with dimer basis set
| 50> $new_job
| 51> %base "5-96_DFT_B"
| 52> ! wB97X-D3 def2-TZVP TIGHTSCF CHELPG PMODEL
| 53>
| 54> %scf
| 55> MaxIter 1000
| 56> end
| 57>
| 58> * xyz 0 1
| 59>   C                    : 9.518140             -9.620616            -3.107383
| 60>   O                    : 10.506839            -9.162423            -4.033828
| 61>   H                    : 10.192911            -8.597301            -4.716816
| 62>   H                    : 8.766802             -8.855435            -2.834577
| 63>   H                    : 8.944407             -10.443229           -3.539903
| 64>   H                    : 9.859461             -9.901562            -2.110812
| 65>   C                      4.446617             -11.047221           -2.967449
| 66>   O                      3.062924             -11.137170           -2.797637
| 67>   H                      2.677207             -10.973401           -3.674396
| 68>   H                      4.680721             -10.136833           -3.559049
| 69>   H                      5.051022             -10.753970           -2.086627
| 70>   H                      4.854918             -11.874599           -3.580567
| 71> *
| 72>
| 73>                          ****END OF INPUT****
 Total Charge           Charge          ....    0
 Multiplicity           Mult            ....    1
 Number of Electrons    NEL             ....   36
Dispersion correction           -0.000741672
FINAL SINGLE POINT ENERGY      -231.458023977636
Dispersion correction           -0.000278238
FINAL SINGLE POINT ENERGY      -115.730249949570

CARTESIAN COORDINATES (ANGSTROEM)
---------------------------------
  C      9.518140   -9.620616   -3.107383
  O     10.506839   -9.162423   -4.033828
  H     10.192911   -8.597301   -4.716816
  H      8.766802   -8.855435   -2.834577
  H      8.944407  -10.443229   -3.539903
  H      9.859461   -9.901562   -2.110812
  C      4.446617  -11.047221   -2.967449
  O      3.062924  -11.137170   -2.797637
  H      2.677207  -10.973401   -3.674396
  H      4.680721  -10.136833   -3.559049
  H      5.051022  -10.753970   -2.086627
  H      4.854918  -11.874599   -3.580567

 Multiplicity           Mult            ....    1
 Number of Electrons    NEL             ....   18
 Basis Dimension        Dim             ....  172

ORBITAL ENERGIES
----------------

  NO   OCC          E(Eh)            E(eV)
   0   2.0000     -19.233706      -523.3758
   1   2.0000     -10.316501      -280.7263
   2   2.0000      -1.142112       -31.0785
   3   2.0000      -0.791524       -21.5385
   4   2.0000      -0.613787       -16.7020
   5   2.0000      -0.551518       -15.0076
   6   2.0000      -0.522024       -14.2050
   7   2.0000      -0.426303       -11.6003
   8   2.0000      -0.372525       -10.1369
   9   0.0000       0.080658         2.1948
  10   0.0000       0.112149         3.0517
  11   0.0000       0.137706         3.7472
  12   0.0000       0.166022         4.5177
  13   0.0000       0.189327         5.1519

MULLIKEN ATOMIC CHARGES
-----------------------
   0 C :   -0.000002
   1 O :    0.000000
   2 H :   -0.000000
   3 H :   -0.000068
   4 H :    0.000026
   5 H :   -0.000001
   6 C :   -0.186701
   7 O :   -0.463926
   8 H :    0.321961
   9 H :    0.098011
  10 H :    0.124644
  11 H :    0.106056
Sum of atomic charges:   -0.0000000

LOEWDIN ATOMIC CHARGES
----------------------
   0 C :   -0.000042
   1 O :   -0.000002
   2 H :   -0.000000
   3 H :   -0.000032
   4 H :   -0.000027
   5 H :   -0.000001
   6 C :   -0.417933
   7 O :   -0.070504
   8 H :    0.181868
   9 H :    0.096823
  10 H :    0.112850
  11 H :    0.097001

  Mayer bond orders larger than 0.1
B(  6-C ,  7-O ) :   1.0026 B(  6-C ,  9-H ) :   0.9849 B(  6-C , 10-H ) :   0.9663
B(  6-C , 11-H ) :   0.9715 B(  7-O ,  8-H ) :   0.8938

Dispersion correction           -0.000235136
FINAL SINGLE POINT ENERGY      -115.727679165040

DIPOLE MOMENT
-------------
                                X             Y             Z
Electronic contribution:     -1.86918      -0.34962       0.54228
Nuclear contribution   :      2.15413       0.53679      -1.16187
                        -----------------------------------------
Total Dipole Moment    :      0.28495       0.18717      -0.61959
                        -----------------------------------------
Magnitude (a.u.)       :      0.70719
Magnitude (Debye)      :      1.79753

Rotational constants in cm-1:     4.283711     0.836942     0.809146
Rotational constants in MHz : 128422.425507 25090.895158 24257.575181

                             ****ORCA TERMINATED NORMALLY****
TOTAL RUN TIME: 0 days 0 hours 0 minutes 36 seconds 971 msec
