                         Program Version 4.1.2  - RELEASE  -
|  1> #Run DFT-D3 single point of the dimer
|  2> ! wB97X-D3 def2-TZVP TIGHTSCF  CHELPG PAL8
|  3>
|  4> %base "117_charges"
|  5>
|  6> %scf
|  7> MaxIter 1000
|  8> end
|  9> %output
| 10>   Print[ P_Mayer ] 1
| 11>   Print[ P_NatPop ] 1
| 12>   Print[ P_Hirshfeld ] 1
| 13>   Print[ P_Mulliken ] 1
| 14>   Print [ P_Loewdin ] 1
| 15> end
| 16>
| 17> * xyz 0 1
| 18>   C                      7.689515             -0.407041            -0.344281
| 19>   O                      8.952227             0.125374             -0.049574
| 20>   H                      9.528362             -0.409065            -0.570136
| 21>   H                      7.332576             -0.062362            -1.265311
| 22>   H                      7.725790             -1.498943            -0.328179
| 23>   H                      7.026471             -0.204145            0.469333
| 24> *
| 25>
| 26>                          ****END OF INPUT****

CARTESIAN COORDINATES (ANGSTROEM)
---------------------------------
  C      7.689515   -0.407041   -0.344281
  O      8.952227    0.125374   -0.049574
  H      9.528362   -0.409065   -0.570136
  H      7.332576   -0.062362   -1.265311
  H      7.725790   -1.498943   -0.328179
  H      7.026471   -0.204145    0.469333

 Total Charge           Charge          ....    0
 Multiplicity           Mult            ....    1
 Number of Electrons    NEL             ....   18
 Basis Dimension        Dim             ....   86

ORBITAL ENERGIES
----------------

  NO   OCC          E(Eh)            E(eV)
   0   2.0000     -19.227512      -523.2072
   1   2.0000     -10.303422      -280.3704
   2   2.0000      -1.146169       -31.1888
   3   2.0000      -0.799432       -21.7536
   4   2.0000      -0.613397       -16.6914
   5   2.0000      -0.558977       -15.2105
   6   2.0000      -0.525347       -14.2954
   7   2.0000      -0.434875       -11.8335
   8   2.0000      -0.376650       -10.2492
   9   0.0000       0.117294         3.1917
  10   0.0000       0.161600         4.3974
  11   0.0000       0.201049         5.4708
  12   0.0000       0.212365         5.7787
  13   0.0000       0.228443         6.2162

MULLIKEN ATOMIC CHARGES
-----------------------
   0 C :   -0.165503
   1 O :   -0.462632
   2 H :    0.310361
   3 H :    0.101510
   4 H :    0.098587
   5 H :    0.117677
Sum of atomic charges:   -0.0000000

LOEWDIN ATOMIC CHARGES
----------------------
   0 C :   -0.385705
   1 O :   -0.059918
   2 H :    0.160727
   3 H :    0.084443
   4 H :    0.096385
   5 H :    0.104069

  Mayer bond orders larger than 0.1
B(  0-C ,  1-O ) :   1.0031 B(  0-C ,  3-H ) :   0.9756 B(  0-C ,  4-H ) :   0.9869
B(  0-C ,  5-H ) :   0.9752 B(  1-O ,  2-H ) :   0.9078

Dispersion correction           -0.000204758
FINAL SINGLE POINT ENERGY      -115.732334723444

DIPOLE MOMENT
-------------
                                X             Y             Z
Electronic contribution:      1.52286       0.88536       0.38406
Nuclear contribution   :     -1.65577      -1.44150      -0.81000
                        -----------------------------------------
Total Dipole Moment    :     -0.13291      -0.55614      -0.42594
                        -----------------------------------------
Magnitude (a.u.)       :      0.71301
Magnitude (Debye)      :      1.81233

Rotational constants in cm-1:     4.407835     0.855166     0.830215
Rotational constants in MHz : 132143.566300 25637.232792 24889.230383

                             ****ORCA TERMINATED NORMALLY****
TOTAL RUN TIME: 0 days 0 hours 0 minutes 46 seconds 634 msec
