                         Program Version 4.1.2  - RELEASE  -
|  1> #Run DFT-D3 single point of the dimer
|  2> ! wB97X-D3 def2-TZVP TIGHTSCF CHELPG PMODEL PAL8
|  3>
|  4> %base "3-148_DFT_AB"
|  5>
|  6> %scf
|  7> MaxIter 1000
|  8> end
|  9>
| 10> * xyz 0 1
| 11>   C                      10.299020            -6.507775            -9.955204
| 12>   O                      10.244527            -6.896147            -11.344969
| 13>   H                      9.480746             -6.481031            -11.730553
| 14>   H                      10.096650            -5.427512            -9.714746
| 15>   H                      9.726568             -7.215119            -9.386501
| 16>   H                      11.296084            -6.715055            -9.483401
| 17>   C                      6.057053             -5.596897            -11.317847
| 18>   O                      7.020771             -6.495254            -10.889214
| 19>   H                      6.983095             -6.517294            -9.921539
| 20>   H                      6.226132             -4.551050            -11.184380
| 21>   H                      5.929378             -5.586242            -12.429916
| 22>   H                      5.089214             -5.836619            -10.945969
| 23> *
| 24>
| 25> #Run DFT-D3 single point of the molecule with dimer basis set
| 26> $new_job
| 27> %base "3-148_DFT_A"
| 28> ! wB97X-D3 def2-TZVP TIGHTSCF CHELPG PMODEL
| 29>
| 30> %scf
| 31> MaxIter 1000
| 32> end
| 33>
| 34> * xyz 0 1
| 35>   C                      10.299020            -6.507775            -9.955204
| 36>   O                      10.244527            -6.896147            -11.344969
| 37>   H                      9.480746             -6.481031            -11.730553
| 38>   H                      10.096650            -5.427512            -9.714746
| 39>   H                      9.726568             -7.215119            -9.386501
| 40>   H                      11.296084            -6.715055            -9.483401
| 41>   C                    : 6.057053             -5.596897            -11.317847
| 42>   O                    : 7.020771             -6.495254            -10.889214
| 43>   H                    : 6.983095             -6.517294            -9.921539
| 44>   H                    : 6.226132             -4.551050            -11.184380
| 45>   H                    : 5.929378             -5.586242            -12.429916
| 46>   H                    : 5.089214             -5.836619            -10.945969
| 47> *
| 48>
| 49> #Run DFT-D3 single point of the particle with dimer basis set
| 50> $new_job
| 51> %base "3-148_DFT_B"
| 52> ! wB97X-D3 def2-TZVP TIGHTSCF CHELPG PMODEL
| 53>
| 54> %scf
| 55> MaxIter 1000
| 56> end
| 57>
| 58> * xyz 0 1
| 59>   C                    : 10.299020            -6.507775            -9.955204
| 60>   O                    : 10.244527            -6.896147            -11.344969
| 61>   H                    : 9.480746             -6.481031            -11.730553
| 62>   H                    : 10.096650            -5.427512            -9.714746
| 63>   H                    : 9.726568             -7.215119            -9.386501
| 64>   H                    : 11.296084            -6.715055            -9.483401
| 65>   C                      6.057053             -5.596897            -11.317847
| 66>   O                      7.020771             -6.495254            -10.889214
| 67>   H                      6.983095             -6.517294            -9.921539
| 68>   H                      6.226132             -4.551050            -11.184380
| 69>   H                      5.929378             -5.586242            -12.429916
| 70>   H                      5.089214             -5.836619            -10.945969
| 71> *
| 72>
| 73>                          ****END OF INPUT****
 Total Charge           Charge          ....    0
 Multiplicity           Mult            ....    1
 Number of Electrons    NEL             ....   36
Dispersion correction           -0.001829848
FINAL SINGLE POINT ENERGY      -231.465063296239
Dispersion correction           -0.000277026
FINAL SINGLE POINT ENERGY      -115.729506100052

CARTESIAN COORDINATES (ANGSTROEM)
---------------------------------
  C     10.299020   -6.507775   -9.955204
  O     10.244527   -6.896147  -11.344969
  H      9.480746   -6.481031  -11.730553
  H     10.096650   -5.427512   -9.714746
  H      9.726568   -7.215119   -9.386501
  H     11.296084   -6.715055   -9.483401
  C      6.057053   -5.596897  -11.317847
  O      7.020771   -6.495254  -10.889214
  H      6.983095   -6.517294   -9.921539
  H      6.226132   -4.551050  -11.184380
  H      5.929378   -5.586242  -12.429916
  H      5.089214   -5.836619  -10.945969

 Multiplicity           Mult            ....    1
 Number of Electrons    NEL             ....   18
 Basis Dimension        Dim             ....  172

ORBITAL ENERGIES
----------------

  NO   OCC          E(Eh)            E(eV)
   0   2.0000     -19.236629      -523.4553
   1   2.0000     -10.307281      -280.4754
   2   2.0000      -1.146579       -31.2000
   3   2.0000      -0.799745       -21.7622
   4   2.0000      -0.619539       -16.8585
   5   2.0000      -0.552104       -15.0235
   6   2.0000      -0.527163       -14.3448
   7   2.0000      -0.427439       -11.6312
   8   2.0000      -0.377418       -10.2701
   9   0.0000       0.090695         2.4679
  10   0.0000       0.129621         3.5272
  11   0.0000       0.149670         4.0727
  12   0.0000       0.178395         4.8544
  13   0.0000       0.197720         5.3802

MULLIKEN ATOMIC CHARGES
-----------------------
   0 C :   -0.005197
   1 O :    0.002442
   2 H :   -0.004629
   3 H :   -0.000980
   4 H :   -0.000977
   5 H :   -0.000510
   6 C :   -0.166604
   7 O :   -0.456388
   8 H :    0.319273
   9 H :    0.101428
  10 H :    0.112191
  11 H :    0.099950
Sum of atomic charges:    0.0000000

LOEWDIN ATOMIC CHARGES
----------------------
   0 C :   -0.008482
   1 O :   -0.001632
   2 H :   -0.010305
   3 H :   -0.000899
   4 H :   -0.001170
   5 H :   -0.000141
   6 C :   -0.414796
   7 O :   -0.036334
   8 H :    0.180881
   9 H :    0.088487
  10 H :    0.115152
  11 H :    0.089239

  Mayer bond orders larger than 0.1
B(  6-C ,  7-O ) :   1.0099 B(  6-C ,  9-H ) :   0.9699 B(  6-C , 10-H ) :   0.9755
B(  6-C , 11-H ) :   0.9816 B(  7-O ,  8-H ) :   0.8929

Dispersion correction           -0.000243826
FINAL SINGLE POINT ENERGY      -115.731468333966

DIPOLE MOMENT
-------------
                                X             Y             Z
Electronic contribution:      1.38472      -1.26398       0.59059
Nuclear contribution   :     -1.79898       1.59174      -0.15280
                        -----------------------------------------
Total Dipole Moment    :     -0.41426       0.32776       0.43779
                        -----------------------------------------
Magnitude (a.u.)       :      0.68607
Magnitude (Debye)      :      1.74386

Rotational constants in cm-1:     4.567816     0.845279     0.814939
Rotational constants in MHz : 136939.677124 25340.834809 24431.264346

                             ****ORCA TERMINATED NORMALLY****
TOTAL RUN TIME: 0 days 0 hours 6 minutes 24 seconds 834 msec
