                         Program Version 4.1.2  - RELEASE  -
|  1> #Run DFT-D3 single point of the dimer
|  2> ! wB97X-D3 def2-TZVP TIGHTSCF CHELPG PMODEL PAL8
|  3>
|  4> %base "7-125_DFT_AB"
|  5>
|  6> %scf
|  7> MaxIter 1000
|  8> end
|  9>
| 10> * xyz 0 1
| 11>   C                      -4.463582            -1.354472            0.559463
| 12>   O                      -5.340438            -2.213762            -0.128602
| 13>   H                      -6.211150            -1.951602            -0.000589
| 14>   H                      -4.627158            -1.465617            1.596524
| 15>   H                      -3.468846            -1.728514            0.454134
| 16>   H                      -4.436178            -0.307758            0.291256
| 17>   C                      -8.973832            -1.725023            0.140451
| 18>   O                      -7.958306            -1.866058            1.059234
| 19>   H                      -7.846690            -2.753810            1.444923
| 20>   H                      -9.118242            -2.696230            -0.308561
| 21>   H                      -9.973470            -1.537242            0.561683
| 22>   H                      -8.764028            -1.059650            -0.696033
| 23> *
| 24>
| 25> #Run DFT-D3 single point of the molecule with dimer basis set
| 26> $new_job
| 27> %base "7-125_DFT_A"
| 28> ! wB97X-D3 def2-TZVP TIGHTSCF CHELPG PMODEL
| 29>
| 30> %scf
| 31> MaxIter 1000
| 32> end
| 33>
| 34> * xyz 0 1
| 35>   C                      -4.463582            -1.354472            0.559463
| 36>   O                      -5.340438            -2.213762            -0.128602
| 37>   H                      -6.211150            -1.951602            -0.000589
| 38>   H                      -4.627158            -1.465617            1.596524
| 39>   H                      -3.468846            -1.728514            0.454134
| 40>   H                      -4.436178            -0.307758            0.291256
| 41>   C                    : -8.973832            -1.725023            0.140451
| 42>   O                    : -7.958306            -1.866058            1.059234
| 43>   H                    : -7.846690            -2.753810            1.444923
| 44>   H                    : -9.118242            -2.696230            -0.308561
| 45>   H                    : -9.973470            -1.537242            0.561683
| 46>   H                    : -8.764028            -1.059650            -0.696033
| 47> *
| 48>
| 49> #Run DFT-D3 single point of the particle with dimer basis set
| 50> $new_job
| 51> %base "7-125_DFT_B"
| 52> ! wB97X-D3 def2-TZVP TIGHTSCF CHELPG PMODEL
| 53>
| 54> %scf
| 55> MaxIter 1000
| 56> end
| 57>
| 58> * xyz 0 1
| 59>   C                    : -4.463582            -1.354472            0.559463
| 60>   O                    : -5.340438            -2.213762            -0.128602
| 61>   H                    : -6.211150            -1.951602            -0.000589
| 62>   H                    : -4.627158            -1.465617            1.596524
| 63>   H                    : -3.468846            -1.728514            0.454134
| 64>   H                    : -4.436178            -0.307758            0.291256
| 65>   C                      -8.973832            -1.725023            0.140451
| 66>   O                      -7.958306            -1.866058            1.059234
| 67>   H                      -7.846690            -2.753810            1.444923
| 68>   H                      -9.118242            -2.696230            -0.308561
| 69>   H                      -9.973470            -1.537242            0.561683
| 70>   H                      -8.764028            -1.059650            -0.696033
| 71> *
| 72>
| 73>                          ****END OF INPUT****
 Total Charge           Charge          ....    0
 Multiplicity           Mult            ....    1
 Number of Electrons    NEL             ....   36
Dispersion correction           -0.001760983
FINAL SINGLE POINT ENERGY      -231.468138471171
Dispersion correction           -0.000239403
FINAL SINGLE POINT ENERGY      -115.732048500008

CARTESIAN COORDINATES (ANGSTROEM)
---------------------------------
  C     -4.463582   -1.354472    0.559463
  O     -5.340438   -2.213762   -0.128602
  H     -6.211150   -1.951602   -0.000589
  H     -4.627158   -1.465617    1.596524
  H     -3.468846   -1.728514    0.454134
  H     -4.436178   -0.307758    0.291256
  C     -8.973832   -1.725023    0.140451
  O     -7.958306   -1.866058    1.059234
  H     -7.846690   -2.753810    1.444923
  H     -9.118242   -2.696230   -0.308561
  H     -9.973470   -1.537242    0.561683
  H     -8.764028   -1.059650   -0.696033

 Multiplicity           Mult            ....    1
 Number of Electrons    NEL             ....   18
 Basis Dimension        Dim             ....  172

ORBITAL ENERGIES
----------------

  NO   OCC          E(Eh)            E(eV)
   0   2.0000     -19.229794      -523.2693
   1   2.0000     -10.309449      -280.5344
   2   2.0000      -1.141445       -31.0603
   3   2.0000      -0.798322       -21.7234
   4   2.0000      -0.623069       -16.9546
   5   2.0000      -0.544485       -14.8162
   6   2.0000      -0.534419       -14.5423
   7   2.0000      -0.417508       -11.3610
   8   2.0000      -0.370838       -10.0910
   9   0.0000       0.094381         2.5682
  10   0.0000       0.122655         3.3376
  11   0.0000       0.148508         4.0411
  12   0.0000       0.191444         5.2095
  13   0.0000       0.204741         5.5713

MULLIKEN ATOMIC CHARGES
-----------------------
   0 C :    0.003880
   1 O :   -0.000671
   2 H :   -0.013606
   3 H :   -0.002462
   4 H :   -0.000106
   5 H :   -0.000575
   6 C :   -0.150679
   7 O :   -0.483900
   8 H :    0.328229
   9 H :    0.097073
  10 H :    0.098969
  11 H :    0.123849
Sum of atomic charges:    0.0000000

LOEWDIN ATOMIC CHARGES
----------------------
   0 C :   -0.004127
   1 O :   -0.006794
   2 H :   -0.033533
   3 H :   -0.000885
   4 H :   -0.000063
   5 H :   -0.000126
   6 C :   -0.412056
   7 O :   -0.023831
   8 H :    0.182905
   9 H :    0.094298
  10 H :    0.096932
  11 H :    0.107280

  Mayer bond orders larger than 0.1
B(  6-C ,  7-O ) :   0.9873 B(  6-C ,  9-H ) :   0.9952 B(  6-C , 10-H ) :   0.9666
B(  6-C , 11-H ) :   0.9742 B(  7-O ,  8-H ) :   0.8833

Dispersion correction           -0.000243590
FINAL SINGLE POINT ENERGY      -115.729258949746

DIPOLE MOMENT
-------------
                                X             Y             Z
Electronic contribution:      1.40636       0.10618       1.22915
Nuclear contribution   :     -1.73724      -0.67679      -1.35397
                        -----------------------------------------
Total Dipole Moment    :     -0.33088      -0.57061      -0.12482
                        -----------------------------------------
Magnitude (a.u.)       :      0.67131
Magnitude (Debye)      :      1.70634

Rotational constants in cm-1:     4.516929     0.850510     0.822686
Rotational constants in MHz : 135414.130269 25497.659114 24663.495679

                             ****ORCA TERMINATED NORMALLY****
TOTAL RUN TIME: 0 days 0 hours 1 minutes 14 seconds 535 msec
