                         Program Version 4.1.2  - RELEASE  -
|  1> #Run DFT-D3 single point of the dimer
|  2> ! wB97X-D3 def2-TZVP TIGHTSCF CHELPG PMODEL PAL8
|  3>
|  4> %base "3-91_DFT_AB"
|  5>
|  6> %scf
|  7> MaxIter 1000
|  8> end
|  9>
| 10> * xyz 0 1
| 11>   C                      -1.179622            -0.680025            6.462159
| 12>   O                      -1.994517            0.038928             7.405688
| 13>   H                      -2.109912            0.907878             7.079844
| 14>   H                      -0.109920            -0.503745            6.727623
| 15>   H                      -1.354234            -1.756892            6.522703
| 16>   H                      -1.366128            -0.313220            5.402350
| 17>   C                      -5.205219            -0.324728            10.663976
| 18>   O                      -4.260699            -1.112100            11.339290
| 19>   H                      -4.538888            -2.023173            11.193134
| 20>   H                      -6.193105            -0.518040            11.173628
| 21>   H                      -4.992310            0.793116             10.816407
| 22>   H                      -5.336198            -0.628556            9.649572
| 23> *
| 24>
| 25> #Run DFT-D3 single point of the molecule with dimer basis set
| 26> $new_job
| 27> %base "3-91_DFT_A"
| 28> ! wB97X-D3 def2-TZVP TIGHTSCF CHELPG PMODEL
| 29>
| 30> %scf
| 31> MaxIter 1000
| 32> end
| 33>
| 34> * xyz 0 1
| 35>   C                      -1.179622            -0.680025            6.462159
| 36>   O                      -1.994517            0.038928             7.405688
| 37>   H                      -2.109912            0.907878             7.079844
| 38>   H                      -0.109920            -0.503745            6.727623
| 39>   H                      -1.354234            -1.756892            6.522703
| 40>   H                      -1.366128            -0.313220            5.402350
| 41>   C                    : -5.205219            -0.324728            10.663976
| 42>   O                    : -4.260699            -1.112100            11.339290
| 43>   H                    : -4.538888            -2.023173            11.193134
| 44>   H                    : -6.193105            -0.518040            11.173628
| 45>   H                    : -4.992310            0.793116             10.816407
| 46>   H                    : -5.336198            -0.628556            9.649572
| 47> *
| 48>
| 49> #Run DFT-D3 single point of the particle with dimer basis set
| 50> $new_job
| 51> %base "3-91_DFT_B"
| 52> ! wB97X-D3 def2-TZVP TIGHTSCF CHELPG PMODEL
| 53>
| 54> %scf
| 55> MaxIter 1000
| 56> end
| 57>
| 58> * xyz 0 1
| 59>   C                    : -1.179622            -0.680025            6.462159
| 60>   O                    : -1.994517            0.038928             7.405688
| 61>   H                    : -2.109912            0.907878             7.079844
| 62>   H                    : -0.109920            -0.503745            6.727623
| 63>   H                    : -1.354234            -1.756892            6.522703
| 64>   H                    : -1.366128            -0.313220            5.402350
| 65>   C                      -5.205219            -0.324728            10.663976
| 66>   O                      -4.260699            -1.112100            11.339290
| 67>   H                      -4.538888            -2.023173            11.193134
| 68>   H                      -6.193105            -0.518040            11.173628
| 69>   H                      -4.992310            0.793116             10.816407
| 70>   H                      -5.336198            -0.628556            9.649572
| 71> *
| 72>
| 73>                          ****END OF INPUT****
 Total Charge           Charge          ....    0
 Multiplicity           Mult            ....    1
 Number of Electrons    NEL             ....   36
Dispersion correction           -0.000719741
FINAL SINGLE POINT ENERGY      -231.464682700513
Dispersion correction           -0.000253585
FINAL SINGLE POINT ENERGY      -115.733929856177

CARTESIAN COORDINATES (ANGSTROEM)
---------------------------------
  C     -1.179622   -0.680025    6.462159
  O     -1.994517    0.038928    7.405688
  H     -2.109912    0.907878    7.079844
  H     -0.109920   -0.503745    6.727623
  H     -1.354234   -1.756892    6.522703
  H     -1.366128   -0.313220    5.402350
  C     -5.205219   -0.324728   10.663976
  O     -4.260699   -1.112100   11.339290
  H     -4.538888   -2.023173   11.193134
  H     -6.193105   -0.518040   11.173628
  H     -4.992310    0.793116   10.816407
  H     -5.336198   -0.628556    9.649572

 Multiplicity           Mult            ....    1
 Number of Electrons    NEL             ....   18
 Basis Dimension        Dim             ....  172

ORBITAL ENERGIES
----------------

  NO   OCC          E(Eh)            E(eV)
   0   2.0000     -19.229719      -523.2673
   1   2.0000     -10.318516      -280.7811
   2   2.0000      -1.141069       -31.0501
   3   2.0000      -0.787689       -21.4341
   4   2.0000      -0.613936       -16.7061
   5   2.0000      -0.541728       -14.7412
   6   2.0000      -0.524415       -14.2700
   7   2.0000      -0.435922       -11.8620
   8   2.0000      -0.368496       -10.0273
   9   0.0000       0.087316         2.3760
  10   0.0000       0.112341         3.0569
  11   0.0000       0.152076         4.1382
  12   0.0000       0.168956         4.5975
  13   0.0000       0.191753         5.2179

MULLIKEN ATOMIC CHARGES
-----------------------
   0 C :    0.000002
   1 O :   -0.000003
   2 H :   -0.000014
   3 H :    0.000001
   4 H :   -0.000000
   5 H :   -0.000001
   6 C :   -0.176144
   7 O :   -0.466686
   8 H :    0.314957
   9 H :    0.096101
  10 H :    0.122238
  11 H :    0.109550
Sum of atomic charges:    0.0000000

LOEWDIN ATOMIC CHARGES
----------------------
   0 C :   -0.000010
   1 O :   -0.000035
   2 H :   -0.000010
   3 H :   -0.000000
   4 H :   -0.000001
   5 H :   -0.000000
   6 C :   -0.402953
   7 O :   -0.075135
   8 H :    0.173186
   9 H :    0.098387
  10 H :    0.120016
  11 H :    0.086556

  Mayer bond orders larger than 0.1
B(  6-C ,  7-O ) :   0.9929 B(  6-C ,  9-H ) :   0.9854 B(  6-C , 10-H ) :   0.9687
B(  6-C , 11-H ) :   0.9712 B(  7-O ,  8-H ) :   0.8983

Dispersion correction           -0.000219800
FINAL SINGLE POINT ENERGY      -115.731033851722

DIPOLE MOMENT
-------------
                                X             Y             Z
Electronic contribution:      1.42342      -0.86353       0.76202
Nuclear contribution   :     -1.95924       0.58615      -1.11544
                        -----------------------------------------
Total Dipole Moment    :     -0.53581      -0.27737      -0.35342
                        -----------------------------------------
Magnitude (a.u.)       :      0.69924
Magnitude (Debye)      :      1.77732

Rotational constants in cm-1:     4.099411     0.850787     0.809431
Rotational constants in MHz : 122897.261911 25505.951135 24266.119216

                             ****ORCA TERMINATED NORMALLY****
TOTAL RUN TIME: 0 days 0 hours 6 minutes 11 seconds 972 msec
