                         Program Version 4.1.2  - RELEASE  -
|  1> #Run DFT-D3 single point of the dimer
|  2> ! wB97X-D3 def2-TZVP TIGHTSCF CHELPG PMODEL PAL8
|  3>
|  4> %base "9-189_DFT_AB"
|  5>
|  6> %scf
|  7> MaxIter 1000
|  8> end
|  9>
| 10> * xyz 0 1
| 11>   C                      -5.056834            8.556647             -5.709782
| 12>   O                      -4.640371            9.264415             -4.651773
| 13>   H                      -4.099275            9.889459             -5.076227
| 14>   H                      -5.362481            7.502575             -5.460635
| 15>   H                      -5.837952            9.045678             -6.321058
| 16>   H                      -4.262423            8.393037             -6.352012
| 17>   C                      -1.519434            10.693081            -6.104941
| 18>   O                      -2.423725            11.086046            -5.123754
| 19>   H                      -2.018962            11.837383            -4.754291
| 20>   H                      -1.932790            9.914828             -6.632088
| 21>   H                      -1.247857            11.519212            -6.763343
| 22>   H                      -0.609917            10.156818            -5.698336
| 23> *
| 24>
| 25> #Run DFT-D3 single point of the molecule with dimer basis set
| 26> $new_job
| 27> %base "9-189_DFT_A"
| 28> ! wB97X-D3 def2-TZVP TIGHTSCF CHELPG PMODEL
| 29>
| 30> %scf
| 31> MaxIter 1000
| 32> end
| 33>
| 34> * xyz 0 1
| 35>   C                      -5.056834            8.556647             -5.709782
| 36>   O                      -4.640371            9.264415             -4.651773
| 37>   H                      -4.099275            9.889459             -5.076227
| 38>   H                      -5.362481            7.502575             -5.460635
| 39>   H                      -5.837952            9.045678             -6.321058
| 40>   H                      -4.262423            8.393037             -6.352012
| 41>   C                    : -1.519434            10.693081            -6.104941
| 42>   O                    : -2.423725            11.086046            -5.123754
| 43>   H                    : -2.018962            11.837383            -4.754291
| 44>   H                    : -1.932790            9.914828             -6.632088
| 45>   H                    : -1.247857            11.519212            -6.763343
| 46>   H                    : -0.609917            10.156818            -5.698336
| 47> *
| 48>
| 49> #Run DFT-D3 single point of the particle with dimer basis set
| 50> $new_job
| 51> %base "9-189_DFT_B"
| 52> ! wB97X-D3 def2-TZVP TIGHTSCF CHELPG PMODEL
| 53>
| 54> %scf
| 55> MaxIter 1000
| 56> end
| 57>
| 58> * xyz 0 1
| 59>   C                    : -5.056834            8.556647             -5.709782
| 60>   O                    : -4.640371            9.264415             -4.651773
| 61>   H                    : -4.099275            9.889459             -5.076227
| 62>   H                    : -5.362481            7.502575             -5.460635
| 63>   H                    : -5.837952            9.045678             -6.321058
| 64>   H                    : -4.262423            8.393037             -6.352012
| 65>   C                      -1.519434            10.693081            -6.104941
| 66>   O                      -2.423725            11.086046            -5.123754
| 67>   H                      -2.018962            11.837383            -4.754291
| 68>   H                      -1.932790            9.914828             -6.632088
| 69>   H                      -1.247857            11.519212            -6.763343
| 70>   H                      -0.609917            10.156818            -5.698336
| 71> *
| 72>
| 73>                          ****END OF INPUT****
 Total Charge           Charge          ....    0
 Multiplicity           Mult            ....    1
 Number of Electrons    NEL             ....   36
Dispersion correction           -0.001768817
FINAL SINGLE POINT ENERGY      -231.458965414307
Dispersion correction           -0.000193041
FINAL SINGLE POINT ENERGY      -115.723692105619

CARTESIAN COORDINATES (ANGSTROEM)
---------------------------------
  C     -5.056834    8.556647   -5.709782
  O     -4.640371    9.264415   -4.651773
  H     -4.099275    9.889459   -5.076227
  H     -5.362481    7.502575   -5.460635
  H     -5.837952    9.045678   -6.321058
  H     -4.262423    8.393037   -6.352012
  C     -1.519434   10.693081   -6.104941
  O     -2.423725   11.086046   -5.123754
  H     -2.018962   11.837383   -4.754291
  H     -1.932790    9.914828   -6.632088
  H     -1.247857   11.519212   -6.763343
  H     -0.609917   10.156818   -5.698336

 Multiplicity           Mult            ....    1
 Number of Electrons    NEL             ....   18
 Basis Dimension        Dim             ....  172

ORBITAL ENERGIES
----------------

  NO   OCC          E(Eh)            E(eV)
   0   2.0000     -19.230672      -523.2932
   1   2.0000     -10.307035      -280.4687
   2   2.0000      -1.154311       -31.4104
   3   2.0000      -0.800760       -21.7898
   4   2.0000      -0.616824       -16.7846
   5   2.0000      -0.551330       -15.0025
   6   2.0000      -0.530521       -14.4362
   7   2.0000      -0.440754       -11.9935
   8   2.0000      -0.374295       -10.1851
   9   0.0000       0.098874         2.6905
  10   0.0000       0.124612         3.3909
  11   0.0000       0.156101         4.2477
  12   0.0000       0.194626         5.2960
  13   0.0000       0.199210         5.4208

MULLIKEN ATOMIC CHARGES
-----------------------
   0 C :    0.000887
   1 O :    0.001880
   2 H :   -0.014206
   3 H :   -0.000014
   4 H :   -0.000084
   5 H :    0.000105
   6 C :   -0.165995
   7 O :   -0.439900
   8 H :    0.303280
   9 H :    0.123487
  10 H :    0.104650
  11 H :    0.085911
Sum of atomic charges:    0.0000000

LOEWDIN ATOMIC CHARGES
----------------------
   0 C :   -0.001424
   1 O :   -0.005111
   2 H :   -0.029441
   3 H :   -0.000010
   4 H :   -0.000017
   5 H :   -0.000917
   6 C :   -0.396727
   7 O :   -0.011716
   8 H :    0.153298
   9 H :    0.094109
  10 H :    0.097090
  11 H :    0.100868

  Mayer bond orders larger than 0.1
B(  6-C ,  7-O ) :   1.0031 B(  6-C ,  9-H ) :   0.9812 B(  6-C , 10-H ) :   0.9761
B(  6-C , 11-H ) :   0.9706 B(  7-O ,  8-H ) :   0.9096

Dispersion correction           -0.000220079
FINAL SINGLE POINT ENERGY      -115.729613644329

DIPOLE MOMENT
-------------
                                X             Y             Z
Electronic contribution:     -1.33881       0.50664       1.20724
Nuclear contribution   :      1.90758      -0.19579      -1.36266
                        -----------------------------------------
Total Dipole Moment    :      0.56877       0.31085      -0.15541
                        -----------------------------------------
Magnitude (a.u.)       :      0.66654
Magnitude (Debye)      :      1.69422

Rotational constants in cm-1:     4.401860     0.858483     0.832656
Rotational constants in MHz : 131964.442739 25736.669467 24962.409181

                             ****ORCA TERMINATED NORMALLY****
TOTAL RUN TIME: 0 days 0 hours 0 minutes 46 seconds 501 msec
