                         Program Version 4.1.2  - RELEASE  -
|  1> #Run DFT-D3 single point of the dimer
|  2> ! wB97X-D3 def2-TZVP TIGHTSCF CHELPG PMODEL PAL8
|  3>
|  4> %base "21-205_DFT_AB"
|  5>
|  6> %scf
|  7> MaxIter 1000
|  8> end
|  9>
| 10> * xyz 0 1
| 11>   C                      -2.832736            1.034180             7.154251
| 12>   O                      -2.230653            1.418563             8.352736
| 13>   H                      -1.523829            0.825899             8.486310
| 14>   H                      -3.188711            1.935277             6.626943
| 15>   H                      -2.262248            0.407505             6.481360
| 16>   H                      -3.804278            0.576429             7.324600
| 17>   C                      0.899759             -1.006463            9.567668
| 18>   O                      -0.178940            -0.310917            10.196296
| 19>   H                      -0.835749            -0.950961            10.534176
| 20>   H                      1.456993             -0.281065            8.977095
| 21>   H                      1.524682             -1.432313            10.410432
| 22>   H                      0.579859             -1.831959            8.926108
| 23> *
| 24>
| 25> #Run DFT-D3 single point of the molecule with dimer basis set
| 26> $new_job
| 27> %base "21-205_DFT_A"
| 28> ! wB97X-D3 def2-TZVP TIGHTSCF CHELPG PMODEL
| 29>
| 30> %scf
| 31> MaxIter 1000
| 32> end
| 33>
| 34> * xyz 0 1
| 35>   C                      -2.832736            1.034180             7.154251
| 36>   O                      -2.230653            1.418563             8.352736
| 37>   H                      -1.523829            0.825899             8.486310
| 38>   H                      -3.188711            1.935277             6.626943
| 39>   H                      -2.262248            0.407505             6.481360
| 40>   H                      -3.804278            0.576429             7.324600
| 41>   C                    : 0.899759             -1.006463            9.567668
| 42>   O                    : -0.178940            -0.310917            10.196296
| 43>   H                    : -0.835749            -0.950961            10.534176
| 44>   H                    : 1.456993             -0.281065            8.977095
| 45>   H                    : 1.524682             -1.432313            10.410432
| 46>   H                    : 0.579859             -1.831959            8.926108
| 47> *
| 48>
| 49> #Run DFT-D3 single point of the particle with dimer basis set
| 50> $new_job
| 51> %base "21-205_DFT_B"
| 52> ! wB97X-D3 def2-TZVP TIGHTSCF CHELPG PMODEL
| 53>
| 54> %scf
| 55> MaxIter 1000
| 56> end
| 57>
| 58> * xyz 0 1
| 59>   C                    : -2.832736            1.034180             7.154251
| 60>   O                    : -2.230653            1.418563             8.352736
| 61>   H                    : -1.523829            0.825899             8.486310
| 62>   H                    : -3.188711            1.935277             6.626943
| 63>   H                    : -2.262248            0.407505             6.481360
| 64>   H                    : -3.804278            0.576429             7.324600
| 65>   C                      0.899759             -1.006463            9.567668
| 66>   O                      -0.178940            -0.310917            10.196296
| 67>   H                      -0.835749            -0.950961            10.534176
| 68>   H                      1.456993             -0.281065            8.977095
| 69>   H                      1.524682             -1.432313            10.410432
| 70>   H                      0.579859             -1.831959            8.926108
| 71> *
| 72>
| 73>                          ****END OF INPUT****
 Total Charge           Charge          ....    0
 Multiplicity           Mult            ....    1
 Number of Electrons    NEL             ....   36
Dispersion correction           -0.001455578
FINAL SINGLE POINT ENERGY      -231.470887784918
Dispersion correction           -0.000244901
FINAL SINGLE POINT ENERGY      -115.731621285599

CARTESIAN COORDINATES (ANGSTROEM)
---------------------------------
  C     -2.832736    1.034180    7.154251
  O     -2.230653    1.418563    8.352736
  H     -1.523829    0.825899    8.486310
  H     -3.188711    1.935277    6.626943
  H     -2.262248    0.407505    6.481360
  H     -3.804278    0.576429    7.324600
  C      0.899759   -1.006463    9.567668
  O     -0.178940   -0.310917   10.196296
  H     -0.835749   -0.950961   10.534176
  H      1.456993   -0.281065    8.977095
  H      1.524682   -1.432313   10.410432
  H      0.579859   -1.831959    8.926108

 Multiplicity           Mult            ....    1
 Number of Electrons    NEL             ....   18
 Basis Dimension        Dim             ....  172

ORBITAL ENERGIES
----------------

  NO   OCC          E(Eh)            E(eV)
   0   2.0000     -19.229601      -523.2640
   1   2.0000     -10.318047      -280.7683
   2   2.0000      -1.126832       -30.6627
   3   2.0000      -0.792037       -21.5524
   4   2.0000      -0.606033       -16.4910
   5   2.0000      -0.538901       -14.6642
   6   2.0000      -0.523167       -14.2361
   7   2.0000      -0.434736       -11.8298
   8   2.0000      -0.370281       -10.0759
   9   0.0000       0.091829         2.4988
  10   0.0000       0.118686         3.2296
  11   0.0000       0.152101         4.1389
  12   0.0000       0.186875         5.0851
  13   0.0000       0.196107         5.3363

MULLIKEN ATOMIC CHARGES
-----------------------
   0 C :   -0.000133
   1 O :    0.000283
   2 H :   -0.009975
   3 H :   -0.000078
   4 H :    0.000086
   5 H :    0.000086
   6 C :   -0.164202
   7 O :   -0.482488
   8 H :    0.315643
   9 H :    0.126421
  10 H :    0.105094
  11 H :    0.109262
Sum of atomic charges:   -0.0000000

LOEWDIN ATOMIC CHARGES
----------------------
   0 C :   -0.000513
   1 O :   -0.002692
   2 H :   -0.017260
   3 H :   -0.000019
   4 H :   -0.000017
   5 H :   -0.000004
   6 C :   -0.376221
   7 O :   -0.085780
   8 H :    0.175941
   9 H :    0.108056
  10 H :    0.104513
  11 H :    0.093996

  Mayer bond orders larger than 0.1
B(  6-C ,  7-O ) :   0.9781 B(  6-C ,  9-H ) :   0.9746 B(  6-C , 10-H ) :   0.9751
B(  6-C , 11-H ) :   0.9710 B(  7-O ,  8-H ) :   0.8952

Dispersion correction           -0.000246835
FINAL SINGLE POINT ENERGY      -115.735054361286

DIPOLE MOMENT
-------------
                                X             Y             Z
Electronic contribution:     -1.27522       0.99204       0.64953
Nuclear contribution   :      1.29749      -1.68375      -0.70020
                        -----------------------------------------
Total Dipole Moment    :      0.02227      -0.69171      -0.05067
                        -----------------------------------------
Magnitude (a.u.)       :      0.69392
Magnitude (Debye)      :      1.76380

Rotational constants in cm-1:     4.142907     0.818113     0.789820
Rotational constants in MHz : 124201.238033 24526.406557 23678.195864

                             ****ORCA TERMINATED NORMALLY****
TOTAL RUN TIME: 0 days 0 hours 1 minutes 5 seconds 500 msec
