                         Program Version 4.1.2  - RELEASE  -
|  1> #Run DFT-D3 single point of the dimer
|  2> ! wB97X-D3 def2-TZVP TIGHTSCF CHELPG PMODEL PAL8
|  3>
|  4> %base "21-38_DFT_AB"
|  5>
|  6> %scf
|  7> MaxIter 1000
|  8> end
|  9>
| 10> * xyz 0 1
| 11>   C                      2.453454             1.166860             -5.874115
| 12>   O                      3.686145             1.240109             -5.184784
| 13>   H                      3.920853             2.166736             -5.242162
| 14>   H                      1.624176             1.779049             -5.362332
| 15>   H                      2.542419             1.779453             -6.767790
| 16>   H                      2.112095             0.179773             -6.170195
| 17>   C                      3.944189             -3.064809            -2.642511
| 18>   O                      4.366597             -2.088990            -1.698535
| 19>   H                      3.780657             -1.342256            -1.815419
| 20>   H                      4.389005             -4.126866            -2.558214
| 21>   H                      2.902821             -3.250573            -2.465544
| 22>   H                      4.123406             -2.759505            -3.629704
| 23> *
| 24>
| 25> #Run DFT-D3 single point of the molecule with dimer basis set
| 26> $new_job
| 27> %base "21-38_DFT_A"
| 28> ! wB97X-D3 def2-TZVP TIGHTSCF CHELPG PMODEL
| 29>
| 30> %scf
| 31> MaxIter 1000
| 32> end
| 33>
| 34> * xyz 0 1
| 35>   C                      2.453454             1.166860             -5.874115
| 36>   O                      3.686145             1.240109             -5.184784
| 37>   H                      3.920853             2.166736             -5.242162
| 38>   H                      1.624176             1.779049             -5.362332
| 39>   H                      2.542419             1.779453             -6.767790
| 40>   H                      2.112095             0.179773             -6.170195
| 41>   C                    : 3.944189             -3.064809            -2.642511
| 42>   O                    : 4.366597             -2.088990            -1.698535
| 43>   H                    : 3.780657             -1.342256            -1.815419
| 44>   H                    : 4.389005             -4.126866            -2.558214
| 45>   H                    : 2.902821             -3.250573            -2.465544
| 46>   H                    : 4.123406             -2.759505            -3.629704
| 47> *
| 48>
| 49> #Run DFT-D3 single point of the particle with dimer basis set
| 50> $new_job
| 51> %base "21-38_DFT_B"
| 52> ! wB97X-D3 def2-TZVP TIGHTSCF CHELPG PMODEL
| 53>
| 54> %scf
| 55> MaxIter 1000
| 56> end
| 57>
| 58> * xyz 0 1
| 59>   C                    : 2.453454             1.166860             -5.874115
| 60>   O                    : 3.686145             1.240109             -5.184784
| 61>   H                    : 3.920853             2.166736             -5.242162
| 62>   H                    : 1.624176             1.779049             -5.362332
| 63>   H                    : 2.542419             1.779453             -6.767790
| 64>   H                    : 2.112095             0.179773             -6.170195
| 65>   C                      3.944189             -3.064809            -2.642511
| 66>   O                      4.366597             -2.088990            -1.698535
| 67>   H                      3.780657             -1.342256            -1.815419
| 68>   H                      4.389005             -4.126866            -2.558214
| 69>   H                      2.902821             -3.250573            -2.465544
| 70>   H                      4.123406             -2.759505            -3.629704
| 71> *
| 72>
| 73>                          ****END OF INPUT****
 Total Charge           Charge          ....    0
 Multiplicity           Mult            ....    1
 Number of Electrons    NEL             ....   36
Dispersion correction           -0.000717914
FINAL SINGLE POINT ENERGY      -231.457796597063
Dispersion correction           -0.000230652
FINAL SINGLE POINT ENERGY      -115.728391988069

CARTESIAN COORDINATES (ANGSTROEM)
---------------------------------
  C      2.453454    1.166860   -5.874115
  O      3.686145    1.240109   -5.184784
  H      3.920853    2.166736   -5.242162
  H      1.624176    1.779049   -5.362332
  H      2.542419    1.779453   -6.767790
  H      2.112095    0.179773   -6.170195
  C      3.944189   -3.064809   -2.642511
  O      4.366597   -2.088990   -1.698535
  H      3.780657   -1.342256   -1.815419
  H      4.389005   -4.126866   -2.558214
  H      2.902821   -3.250573   -2.465544
  H      4.123406   -2.759505   -3.629704

 Multiplicity           Mult            ....    1
 Number of Electrons    NEL             ....   18
 Basis Dimension        Dim             ....  172

ORBITAL ENERGIES
----------------

  NO   OCC          E(Eh)            E(eV)
   0   2.0000     -19.229955      -523.2737
   1   2.0000     -10.313065      -280.6328
   2   2.0000      -1.136058       -30.9137
   3   2.0000      -0.796565       -21.6756
   4   2.0000      -0.607952       -16.5432
   5   2.0000      -0.553336       -15.0570
   6   2.0000      -0.524191       -14.2640
   7   2.0000      -0.426246       -11.5987
   8   2.0000      -0.376324       -10.2403
   9   0.0000       0.078939         2.1480
  10   0.0000       0.115306         3.1376
  11   0.0000       0.147184         4.0051
  12   0.0000       0.164968         4.4890
  13   0.0000       0.181214         4.9311

MULLIKEN ATOMIC CHARGES
-----------------------
   0 C :    0.000018
   1 O :   -0.000012
   2 H :   -0.000000
   3 H :   -0.000001
   4 H :   -0.000001
   5 H :   -0.000052
   6 C :   -0.173015
   7 O :   -0.474966
   8 H :    0.315913
   9 H :    0.114437
  10 H :    0.108246
  11 H :    0.109433
Sum of atomic charges:   -0.0000000

LOEWDIN ATOMIC CHARGES
----------------------
   0 C :   -0.000030
   1 O :   -0.000022
   2 H :   -0.000002
   3 H :   -0.000000
   4 H :   -0.000001
   5 H :   -0.000017
   6 C :   -0.382361
   7 O :   -0.083001
   8 H :    0.168537
   9 H :    0.120541
  10 H :    0.092321
  11 H :    0.084036

  Mayer bond orders larger than 0.1
B(  6-C ,  7-O ) :   0.9905 B(  6-C ,  9-H ) :   0.9692 B(  6-C , 10-H ) :   0.9869
B(  6-C , 11-H ) :   0.9763 B(  7-O ,  8-H ) :   0.8989

Dispersion correction           -0.000235316
FINAL SINGLE POINT ENERGY      -115.728487798673

DIPOLE MOMENT
-------------
                                X             Y             Z
Electronic contribution:      0.70674       1.25399       1.21898
Nuclear contribution   :     -1.26448      -1.18188      -1.67889
                        -----------------------------------------
Total Dipole Moment    :     -0.55774       0.07211      -0.45991
                        -----------------------------------------
Magnitude (a.u.)       :      0.72650
Magnitude (Debye)      :      1.84660

Rotational constants in cm-1:     4.425520     0.817357     0.791308
Rotational constants in MHz : 132673.755331 24503.737267 23722.812314

                             ****ORCA TERMINATED NORMALLY****
TOTAL RUN TIME: 0 days 0 hours 0 minutes 55 seconds 49 msec
