                         Program Version 4.1.2  - RELEASE  -
|  1> #Run DFT-D3 single point of the dimer
|  2> ! wB97X-D3 def2-TZVP TIGHTSCF CHELPG PMODEL PAL8
|  3>
|  4> %base "18-40_DFT_AB"
|  5>
|  6> %scf
|  7> MaxIter 1000
|  8> end
|  9>
| 10> * xyz 0 1
| 11>   C                      5.188788             2.614549             -0.430988
| 12>   O                      4.272714             3.629414             -0.212891
| 13>   H                      4.735754             4.461235             -0.188900
| 14>   H                      5.899015             2.492255             0.391204
| 15>   H                      4.718363             1.670627             -0.695147
| 16>   H                      5.822392             2.953750             -1.309417
| 17>   C                      6.847252             -0.409214            -1.932660
| 18>   O                      6.534939             0.049947             -3.234879
| 19>   H                      5.542417             0.153715             -3.347247
| 20>   H                      7.174326             0.404481             -1.335421
| 21>   H                      6.014298             -0.959470            -1.467209
| 22>   H                      7.638583             -1.246601            -1.938652
| 23> *
| 24>
| 25> #Run DFT-D3 single point of the molecule with dimer basis set
| 26> $new_job
| 27> %base "18-40_DFT_A"
| 28> ! wB97X-D3 def2-TZVP TIGHTSCF CHELPG PMODEL
| 29>
| 30> %scf
| 31> MaxIter 1000
| 32> end
| 33>
| 34> * xyz 0 1
| 35>   C                      5.188788             2.614549             -0.430988
| 36>   O                      4.272714             3.629414             -0.212891
| 37>   H                      4.735754             4.461235             -0.188900
| 38>   H                      5.899015             2.492255             0.391204
| 39>   H                      4.718363             1.670627             -0.695147
| 40>   H                      5.822392             2.953750             -1.309417
| 41>   C                    : 6.847252             -0.409214            -1.932660
| 42>   O                    : 6.534939             0.049947             -3.234879
| 43>   H                    : 5.542417             0.153715             -3.347247
| 44>   H                    : 7.174326             0.404481             -1.335421
| 45>   H                    : 6.014298             -0.959470            -1.467209
| 46>   H                    : 7.638583             -1.246601            -1.938652
| 47> *
| 48>
| 49> #Run DFT-D3 single point of the particle with dimer basis set
| 50> $new_job
| 51> %base "18-40_DFT_B"
| 52> ! wB97X-D3 def2-TZVP TIGHTSCF CHELPG PMODEL
| 53>
| 54> %scf
| 55> MaxIter 1000
| 56> end
| 57>
| 58> * xyz 0 1
| 59>   C                    : 5.188788             2.614549             -0.430988
| 60>   O                    : 4.272714             3.629414             -0.212891
| 61>   H                    : 4.735754             4.461235             -0.188900
| 62>   H                    : 5.899015             2.492255             0.391204
| 63>   H                    : 4.718363             1.670627             -0.695147
| 64>   H                    : 5.822392             2.953750             -1.309417
| 65>   C                      6.847252             -0.409214            -1.932660
| 66>   O                      6.534939             0.049947             -3.234879
| 67>   H                      5.542417             0.153715             -3.347247
| 68>   H                      7.174326             0.404481             -1.335421
| 69>   H                      6.014298             -0.959470            -1.467209
| 70>   H                      7.638583             -1.246601            -1.938652
| 71> *
| 72>
| 73>                          ****END OF INPUT****
 Total Charge           Charge          ....    0
 Multiplicity           Mult            ....    1
 Number of Electrons    NEL             ....   36
Dispersion correction           -0.001746814
FINAL SINGLE POINT ENERGY      -231.464096395692
Dispersion correction           -0.000220553
FINAL SINGLE POINT ENERGY      -115.733259779278

CARTESIAN COORDINATES (ANGSTROEM)
---------------------------------
  C      5.188788    2.614549   -0.430988
  O      4.272714    3.629414   -0.212891
  H      4.735754    4.461235   -0.188900
  H      5.899015    2.492255    0.391204
  H      4.718363    1.670627   -0.695147
  H      5.822392    2.953750   -1.309417
  C      6.847252   -0.409214   -1.932660
  O      6.534939    0.049947   -3.234879
  H      5.542417    0.153715   -3.347247
  H      7.174326    0.404481   -1.335421
  H      6.014298   -0.959470   -1.467209
  H      7.638583   -1.246601   -1.938652

 Multiplicity           Mult            ....    1
 Number of Electrons    NEL             ....   18
 Basis Dimension        Dim             ....  172

ORBITAL ENERGIES
----------------

  NO   OCC          E(Eh)            E(eV)
   0   2.0000     -19.233328      -523.3655
   1   2.0000     -10.316058      -280.7142
   2   2.0000      -1.126188       -30.6451
   3   2.0000      -0.790711       -21.5163
   4   2.0000      -0.605882       -16.4869
   5   2.0000      -0.549152       -14.9432
   6   2.0000      -0.517844       -14.0912
   7   2.0000      -0.421794       -11.4776
   8   2.0000      -0.374607       -10.1936
   9   0.0000       0.079127         2.1531
  10   0.0000       0.114367         3.1121
  11   0.0000       0.146224         3.9790
  12   0.0000       0.177344         4.8258
  13   0.0000       0.184193         5.0121

MULLIKEN ATOMIC CHARGES
-----------------------
   0 C :    0.001152
   1 O :    0.000042
   2 H :    0.000001
   3 H :   -0.000054
   4 H :   -0.000839
   5 H :   -0.000984
   6 C :   -0.176510
   7 O :   -0.481834
   8 H :    0.322281
   9 H :    0.117399
  10 H :    0.107162
  11 H :    0.112183
Sum of atomic charges:    0.0000000

LOEWDIN ATOMIC CHARGES
----------------------
   0 C :   -0.004702
   1 O :   -0.000024
   2 H :   -0.000006
   3 H :   -0.000610
   4 H :   -0.001522
   5 H :   -0.000913
   6 C :   -0.390826
   7 O :   -0.099060
   8 H :    0.194306
   9 H :    0.091313
  10 H :    0.098331
  11 H :    0.113714

  Mayer bond orders larger than 0.1
B(  6-C ,  7-O ) :   1.0028 B(  6-C ,  9-H ) :   0.9759 B(  6-C , 10-H ) :   0.9817
B(  6-C , 11-H ) :   0.9717 B(  7-O ,  8-H ) :   0.8894

Dispersion correction           -0.000262265
FINAL SINGLE POINT ENERGY      -115.729555957129

DIPOLE MOMENT
-------------
                                X             Y             Z
Electronic contribution:     -0.27779       0.73445      -1.68575
Nuclear contribution   :     -0.25265      -0.86600       2.13708
                        -----------------------------------------
Total Dipole Moment    :     -0.53044      -0.13155       0.45133
                        -----------------------------------------
Magnitude (a.u.)       :      0.70878
Magnitude (Debye)      :      1.80158

Rotational constants in cm-1:     4.231212     0.814438     0.792196
Rotational constants in MHz : 126848.537920 24416.244951 23749.434161

                             ****ORCA TERMINATED NORMALLY****
TOTAL RUN TIME: 0 days 0 hours 1 minutes 1 seconds 134 msec
