                         Program Version 4.1.2  - RELEASE  -
|  1> #Run DFT-D3 single point of the dimer
|  2> ! wB97X-D3 def2-TZVP TIGHTSCF CHELPG PMODEL PAL8
|  3>
|  4> %base "22-183_DFT_AB"
|  5>
|  6> %scf
|  7> MaxIter 1000
|  8> end
|  9>
| 10> * xyz 0 1
| 11>   C                      -9.665503            -0.198202            1.765964
| 12>   O                      -8.653392            0.652441             1.222049
| 13>   H                      -7.938481            0.685364             1.859713
| 14>   H                      -10.419255           -0.264382            0.990156
| 15>   H                      -9.288481            -1.229895            1.780120
| 16>   H                      -10.088731           0.192472             2.753794
| 17>   C                      -5.692550            1.901608             3.566777
| 18>   O                      -7.040810            1.705457             3.262053
| 19>   H                      -7.466480            2.089699             4.000003
| 20>   H                      -5.360571            1.400540             4.493794
| 21>   H                      -5.074684            1.437243             2.750245
| 22>   H                      -5.512614            2.980023             3.658668
| 23> *
| 24>
| 25> #Run DFT-D3 single point of the molecule with dimer basis set
| 26> $new_job
| 27> %base "22-183_DFT_A"
| 28> ! wB97X-D3 def2-TZVP TIGHTSCF CHELPG PMODEL
| 29>
| 30> %scf
| 31> MaxIter 1000
| 32> end
| 33>
| 34> * xyz 0 1
| 35>   C                      -9.665503            -0.198202            1.765964
| 36>   O                      -8.653392            0.652441             1.222049
| 37>   H                      -7.938481            0.685364             1.859713
| 38>   H                      -10.419255           -0.264382            0.990156
| 39>   H                      -9.288481            -1.229895            1.780120
| 40>   H                      -10.088731           0.192472             2.753794
| 41>   C                    : -5.692550            1.901608             3.566777
| 42>   O                    : -7.040810            1.705457             3.262053
| 43>   H                    : -7.466480            2.089699             4.000003
| 44>   H                    : -5.360571            1.400540             4.493794
| 45>   H                    : -5.074684            1.437243             2.750245
| 46>   H                    : -5.512614            2.980023             3.658668
| 47> *
| 48>
| 49> #Run DFT-D3 single point of the particle with dimer basis set
| 50> $new_job
| 51> %base "22-183_DFT_B"
| 52> ! wB97X-D3 def2-TZVP TIGHTSCF CHELPG PMODEL
| 53>
| 54> %scf
| 55> MaxIter 1000
| 56> end
| 57>
| 58> * xyz 0 1
| 59>   C                    : -9.665503            -0.198202            1.765964
| 60>   O                    : -8.653392            0.652441             1.222049
| 61>   H                    : -7.938481            0.685364             1.859713
| 62>   H                    : -10.419255           -0.264382            0.990156
| 63>   H                    : -9.288481            -1.229895            1.780120
| 64>   H                    : -10.088731           0.192472             2.753794
| 65>   C                      -5.692550            1.901608             3.566777
| 66>   O                      -7.040810            1.705457             3.262053
| 67>   H                      -7.466480            2.089699             4.000003
| 68>   H                      -5.360571            1.400540             4.493794
| 69>   H                      -5.074684            1.437243             2.750245
| 70>   H                      -5.512614            2.980023             3.658668
| 71> *
| 72>
| 73>                          ****END OF INPUT****
 Total Charge           Charge          ....    0
 Multiplicity           Mult            ....    1
 Number of Electrons    NEL             ....   36
Dispersion correction           -0.001549644
FINAL SINGLE POINT ENERGY      -231.472969248872
Dispersion correction           -0.000248140
FINAL SINGLE POINT ENERGY      -115.733545192016

CARTESIAN COORDINATES (ANGSTROEM)
---------------------------------
  C     -9.665503   -0.198202    1.765964
  O     -8.653392    0.652441    1.222049
  H     -7.938481    0.685364    1.859713
  H    -10.419255   -0.264382    0.990156
  H     -9.288481   -1.229895    1.780120
  H    -10.088731    0.192472    2.753794
  C     -5.692550    1.901608    3.566777
  O     -7.040810    1.705457    3.262053
  H     -7.466480    2.089699    4.000003
  H     -5.360571    1.400540    4.493794
  H     -5.074684    1.437243    2.750245
  H     -5.512614    2.980023    3.658668

 Multiplicity           Mult            ....    1
 Number of Electrons    NEL             ....   18
 Basis Dimension        Dim             ....  172

ORBITAL ENERGIES
----------------

  NO   OCC          E(Eh)            E(eV)
   0   2.0000     -19.230605      -523.2914
   1   2.0000     -10.316577      -280.7283
   2   2.0000      -1.152699       -31.3665
   3   2.0000      -0.790543       -21.5118
   4   2.0000      -0.617008       -16.7896
   5   2.0000      -0.548948       -14.9376
   6   2.0000      -0.523984       -14.2583
   7   2.0000      -0.438927       -11.9438
   8   2.0000      -0.374636       -10.1944
   9   0.0000       0.099675         2.7123
  10   0.0000       0.123332         3.3560
  11   0.0000       0.157104         4.2750
  12   0.0000       0.183755         5.0002
  13   0.0000       0.201855         5.4928

MULLIKEN ATOMIC CHARGES
-----------------------
   0 C :    0.000300
   1 O :    0.003162
   2 H :   -0.014067
   3 H :   -0.000176
   4 H :   -0.000252
   5 H :   -0.001002
   6 C :   -0.167285
   7 O :   -0.444128
   8 H :    0.307488
   9 H :    0.097374
  10 H :    0.117693
  11 H :    0.100893
Sum of atomic charges:   -0.0000000

LOEWDIN ATOMIC CHARGES
----------------------
   0 C :   -0.003336
   1 O :   -0.007196
   2 H :   -0.039018
   3 H :   -0.000058
   4 H :   -0.000072
   5 H :   -0.000533
   6 C :   -0.401903
   7 O :   -0.010316
   8 H :    0.157259
   9 H :    0.094015
  10 H :    0.115536
  11 H :    0.095623

  Mayer bond orders larger than 0.1
B(  6-C ,  7-O ) :   0.9922 B(  6-C ,  9-H ) :   0.9687 B(  6-C , 10-H ) :   0.9765
B(  6-C , 11-H ) :   0.9780 B(  7-O ,  8-H ) :   0.9050

Dispersion correction           -0.000215729
FINAL SINGLE POINT ENERGY      -115.734025364257

DIPOLE MOMENT
-------------
                                X             Y             Z
Electronic contribution:     -1.74629      -0.29936      -0.51027
Nuclear contribution   :      1.98837       0.61287       1.08970
                        -----------------------------------------
Total Dipole Moment    :      0.24208       0.31351       0.57944
                        -----------------------------------------
Magnitude (a.u.)       :      0.70188
Magnitude (Debye)      :      1.78404

Rotational constants in cm-1:     4.174427     0.857946     0.823432
Rotational constants in MHz : 125146.187135 25720.573944 24685.862211

                             ****ORCA TERMINATED NORMALLY****
TOTAL RUN TIME: 0 days 0 hours 1 minutes 7 seconds 835 msec
