                         Program Version 4.1.2  - RELEASE  -
|  1> #Run DFT-D3 single point of the dimer
|  2> ! wB97X-D3 def2-TZVP TIGHTSCF CHELPG PMODEL PAL8
|  3>
|  4> %base "18-201_DFT_AB"
|  5>
|  6> %scf
|  7> MaxIter 1000
|  8> end
|  9>
| 10> * xyz 0 1
| 11>   C                      10.270753            3.406764             8.909736
| 12>   O                      9.444543             4.395521             9.484661
| 13>   H                      8.965214             3.925905             10.182131
| 14>   H                      10.040445            3.340167             7.897935
| 15>   H                      11.322750            3.584785             9.119544
| 16>   H                      10.101605            2.462617             9.374635
| 17>   C                      6.999901             5.861613             7.645949
| 18>   O                      7.965901             6.568074             8.477822
| 19>   H                      8.482590             5.768734             8.894697
| 20>   H                      7.159892             4.785389             7.721795
| 21>   H                      5.910100             6.019634             7.758942
| 22>   H                      7.232210             6.064417             6.560629
| 23> *
| 24>
| 25> #Run DFT-D3 single point of the molecule with dimer basis set
| 26> $new_job
| 27> %base "18-201_DFT_A"
| 28> ! wB97X-D3 def2-TZVP TIGHTSCF CHELPG PMODEL
| 29>
| 30> %scf
| 31> MaxIter 1000
| 32> end
| 33>
| 34> * xyz 0 1
| 35>   C                      10.270753            3.406764             8.909736
| 36>   O                      9.444543             4.395521             9.484661
| 37>   H                      8.965214             3.925905             10.182131
| 38>   H                      10.040445            3.340167             7.897935
| 39>   H                      11.322750            3.584785             9.119544
| 40>   H                      10.101605            2.462617             9.374635
| 41>   C                    : 6.999901             5.861613             7.645949
| 42>   O                    : 7.965901             6.568074             8.477822
| 43>   H                    : 8.482590             5.768734             8.894697
| 44>   H                    : 7.159892             4.785389             7.721795
| 45>   H                    : 5.910100             6.019634             7.758942
| 46>   H                    : 7.232210             6.064417             6.560629
| 47> *
| 48>
| 49> #Run DFT-D3 single point of the particle with dimer basis set
| 50> $new_job
| 51> %base "18-201_DFT_B"
| 52> ! wB97X-D3 def2-TZVP TIGHTSCF CHELPG PMODEL
| 53>
| 54> %scf
| 55> MaxIter 1000
| 56> end
| 57>
| 58> * xyz 0 1
| 59>   C                    : 10.270753            3.406764             8.909736
| 60>   O                    : 9.444543             4.395521             9.484661
| 61>   H                    : 8.965214             3.925905             10.182131
| 62>   H                    : 10.040445            3.340167             7.897935
| 63>   H                    : 11.322750            3.584785             9.119544
| 64>   H                    : 10.101605            2.462617             9.374635
| 65>   C                      6.999901             5.861613             7.645949
| 66>   O                      7.965901             6.568074             8.477822
| 67>   H                      8.482590             5.768734             8.894697
| 68>   H                      7.159892             4.785389             7.721795
| 69>   H                      5.910100             6.019634             7.758942
| 70>   H                      7.232210             6.064417             6.560629
| 71> *
| 72>
| 73>                          ****END OF INPUT****
 Total Charge           Charge          ....    0
 Multiplicity           Mult            ....    1
 Number of Electrons    NEL             ....   36
Dispersion correction           -0.001877556
FINAL SINGLE POINT ENERGY      -231.463842506287
Dispersion correction           -0.000220383
FINAL SINGLE POINT ENERGY      -115.731566219888

CARTESIAN COORDINATES (ANGSTROEM)
---------------------------------
  C     10.270753    3.406764    8.909736
  O      9.444543    4.395521    9.484661
  H      8.965214    3.925905   10.182131
  H     10.040445    3.340167    7.897935
  H     11.322750    3.584785    9.119544
  H     10.101605    2.462617    9.374635
  C      6.999901    5.861613    7.645949
  O      7.965901    6.568074    8.477822
  H      8.482590    5.768734    8.894697
  H      7.159892    4.785389    7.721795
  H      5.910100    6.019634    7.758942
  H      7.232210    6.064417    6.560629

 Multiplicity           Mult            ....    1
 Number of Electrons    NEL             ....   18
 Basis Dimension        Dim             ....  172

ORBITAL ENERGIES
----------------

  NO   OCC          E(Eh)            E(eV)
   0   2.0000     -19.243524      -523.6429
   1   2.0000     -10.321728      -280.8685
   2   2.0000      -1.116435       -30.3797
   3   2.0000      -0.788656       -21.4604
   4   2.0000      -0.597234       -16.2516
   5   2.0000      -0.532783       -14.4978
   6   2.0000      -0.518457       -14.1079
   7   2.0000      -0.438062       -11.9203
   8   2.0000      -0.375407       -10.2153
   9   0.0000       0.062129         1.6906
  10   0.0000       0.127943         3.4815
  11   0.0000       0.139846         3.8054
  12   0.0000       0.170585         4.6419
  13   0.0000       0.184340         5.0161

MULLIKEN ATOMIC CHARGES
-----------------------
   0 C :   -0.001540
   1 O :   -0.004940
   2 H :   -0.000613
   3 H :    0.000158
   4 H :    0.000140
   5 H :   -0.000012
   6 C :   -0.202339
   7 O :   -0.456528
   8 H :    0.319621
   9 H :    0.111653
  10 H :    0.122642
  11 H :    0.111757
Sum of atomic charges:   -0.0000000

LOEWDIN ATOMIC CHARGES
----------------------
   0 C :   -0.003623
   1 O :   -0.031236
   2 H :   -0.002595
   3 H :   -0.000401
   4 H :   -0.000063
   5 H :   -0.000078
   6 C :   -0.378263
   7 O :   -0.121919
   8 H :    0.233194
   9 H :    0.095695
  10 H :    0.103103
  11 H :    0.106186

  Mayer bond orders larger than 0.1
B(  6-C ,  7-O ) :   1.0017 B(  6-C ,  9-H ) :   0.9837 B(  6-C , 10-H ) :   0.9657
B(  6-C , 11-H ) :   0.9772 B(  7-O ,  8-H ) :   0.9011

Dispersion correction           -0.000276679
FINAL SINGLE POINT ENERGY      -115.722255181863

DIPOLE MOMENT
-------------
                                X             Y             Z
Electronic contribution:      1.09323       1.19992       1.18239
Nuclear contribution   :     -1.15933      -1.98103      -1.26385
                        -----------------------------------------
Total Dipole Moment    :     -0.06610      -0.78111      -0.08146
                        -----------------------------------------
Magnitude (a.u.)       :      0.78812
Magnitude (Debye)      :      2.00324

Rotational constants in cm-1:     4.152233     0.782717     0.752317
Rotational constants in MHz : 124480.815339 23465.254032 22553.882467

                             ****ORCA TERMINATED NORMALLY****
TOTAL RUN TIME: 0 days 0 hours 1 minutes 7 seconds 317 msec
