                         Program Version 4.1.2  - RELEASE  -
|  1> #Run DFT-D3 single point of the dimer
|  2> ! wB97X-D3 def2-TZVP TIGHTSCF CHELPG PMODEL PAL8
|  3>
|  4> %base "4-40_DFT_AB"
|  5>
|  6> %scf
|  7> MaxIter 1000
|  8> end
|  9>
| 10> * xyz 0 1
| 11>   C                      -5.192736            -2.225288            6.637700
| 12>   O                      -5.408181            -1.507434            5.386835
| 13>   H                      -4.517370            -1.420161            5.041826
| 14>   H                      -4.838058            -1.544956            7.408872
| 15>   H                      -6.004383            -2.688830            7.117625
| 16>   H                      -4.338427            -2.918640            6.592779
| 17>   C                      -6.102485            -6.266895            6.945588
| 18>   O                      -6.285412            -6.454846            8.329853
| 19>   H                      -6.569255            -7.332313            8.417810
| 20>   H                      -6.460808            -5.290275            6.675014
| 21>   H                      -5.134585            -6.498728            6.642934
| 22>   H                      -6.762195            -6.941984            6.386304
| 23> *
| 24>
| 25> #Run DFT-D3 single point of the molecule with dimer basis set
| 26> $new_job
| 27> %base "4-40_DFT_A"
| 28> ! wB97X-D3 def2-TZVP TIGHTSCF CHELPG PMODEL
| 29>
| 30> %scf
| 31> MaxIter 1000
| 32> end
| 33>
| 34> * xyz 0 1
| 35>   C                      -5.192736            -2.225288            6.637700
| 36>   O                      -5.408181            -1.507434            5.386835
| 37>   H                      -4.517370            -1.420161            5.041826
| 38>   H                      -4.838058            -1.544956            7.408872
| 39>   H                      -6.004383            -2.688830            7.117625
| 40>   H                      -4.338427            -2.918640            6.592779
| 41>   C                    : -6.102485            -6.266895            6.945588
| 42>   O                    : -6.285412            -6.454846            8.329853
| 43>   H                    : -6.569255            -7.332313            8.417810
| 44>   H                    : -6.460808            -5.290275            6.675014
| 45>   H                    : -5.134585            -6.498728            6.642934
| 46>   H                    : -6.762195            -6.941984            6.386304
| 47> *
| 48>
| 49> #Run DFT-D3 single point of the particle with dimer basis set
| 50> $new_job
| 51> %base "4-40_DFT_B"
| 52> ! wB97X-D3 def2-TZVP TIGHTSCF CHELPG PMODEL
| 53>
| 54> %scf
| 55> MaxIter 1000
| 56> end
| 57>
| 58> * xyz 0 1
| 59>   C                    : -5.192736            -2.225288            6.637700
| 60>   O                    : -5.408181            -1.507434            5.386835
| 61>   H                    : -4.517370            -1.420161            5.041826
| 62>   H                    : -4.838058            -1.544956            7.408872
| 63>   H                    : -6.004383            -2.688830            7.117625
| 64>   H                    : -4.338427            -2.918640            6.592779
| 65>   C                      -6.102485            -6.266895            6.945588
| 66>   O                      -6.285412            -6.454846            8.329853
| 67>   H                      -6.569255            -7.332313            8.417810
| 68>   H                      -6.460808            -5.290275            6.675014
| 69>   H                      -5.134585            -6.498728            6.642934
| 70>   H                      -6.762195            -6.941984            6.386304
| 71> *
| 72>
| 73>                          ****END OF INPUT****
 Total Charge           Charge          ....    0
 Multiplicity           Mult            ....    1
 Number of Electrons    NEL             ....   36
Dispersion correction           -0.001223056
FINAL SINGLE POINT ENERGY      -231.459117771328
Dispersion correction           -0.000252548
FINAL SINGLE POINT ENERGY      -115.726909959172

CARTESIAN COORDINATES (ANGSTROEM)
---------------------------------
  C     -5.192736   -2.225288    6.637700
  O     -5.408181   -1.507434    5.386835
  H     -4.517370   -1.420161    5.041826
  H     -4.838058   -1.544956    7.408872
  H     -6.004383   -2.688830    7.117625
  H     -4.338427   -2.918640    6.592779
  C     -6.102485   -6.266895    6.945588
  O     -6.285412   -6.454846    8.329853
  H     -6.569255   -7.332313    8.417810
  H     -6.460808   -5.290275    6.675014
  H     -5.134585   -6.498728    6.642934
  H     -6.762195   -6.941984    6.386304

 Multiplicity           Mult            ....    1
 Number of Electrons    NEL             ....   18
 Basis Dimension        Dim             ....  172

ORBITAL ENERGIES
----------------

  NO   OCC          E(Eh)            E(eV)
   0   2.0000     -19.225224      -523.1450
   1   2.0000     -10.305360      -280.4231
   2   2.0000      -1.145582       -31.1729
   3   2.0000      -0.801974       -21.8228
   4   2.0000      -0.616660       -16.7802
   5   2.0000      -0.557497       -15.1703
   6   2.0000      -0.523414       -14.2428
   7   2.0000      -0.433302       -11.7907
   8   2.0000      -0.377517       -10.2728
   9   0.0000       0.088994         2.4217
  10   0.0000       0.118355         3.2206
  11   0.0000       0.160113         4.3569
  12   0.0000       0.169128         4.6022
  13   0.0000       0.185127         5.0376

MULLIKEN ATOMIC CHARGES
-----------------------
   0 C :   -0.001020
   1 O :    0.000030
   2 H :   -0.000001
   3 H :    0.000047
   4 H :    0.001877
   5 H :   -0.000130
   6 C :   -0.155289
   7 O :   -0.465411
   8 H :    0.308543
   9 H :    0.112680
  10 H :    0.103621
  11 H :    0.095053
Sum of atomic charges:   -0.0000000

LOEWDIN ATOMIC CHARGES
----------------------
   0 C :   -0.002412
   1 O :   -0.000003
   2 H :   -0.000002
   3 H :   -0.000016
   4 H :   -0.001417
   5 H :   -0.000355
   6 C :   -0.372623
   7 O :   -0.057338
   8 H :    0.148317
   9 H :    0.103798
  10 H :    0.084611
  11 H :    0.097441

  Mayer bond orders larger than 0.1
B(  6-C ,  7-O ) :   1.0077 B(  6-C ,  9-H ) :   0.9750 B(  6-C , 10-H ) :   0.9756
B(  6-C , 11-H ) :   0.9910 B(  7-O ,  8-H ) :   0.9105

Dispersion correction           -0.000213991
FINAL SINGLE POINT ENERGY      -115.731131063712

DIPOLE MOMENT
-------------
                                X             Y             Z
Electronic contribution:     -0.04723      -0.03956       1.80383
Nuclear contribution   :     -0.08227      -0.46536      -2.30511
                        -----------------------------------------
Total Dipole Moment    :     -0.12950      -0.50492      -0.50128
                        -----------------------------------------
Magnitude (a.u.)       :      0.72319
Magnitude (Debye)      :      1.83819

Rotational constants in cm-1:     4.444386     0.846763     0.820970
Rotational constants in MHz : 133239.327516 25385.304833 24612.073340

                             ****ORCA TERMINATED NORMALLY****
TOTAL RUN TIME: 0 days 0 hours 1 minutes 25 seconds 975 msec
