                         Program Version 4.1.2  - RELEASE  -
|  1> #Run DFT-D3 single point of the dimer
|  2> ! wB97X-D3 def2-TZVP TIGHTSCF CHELPG PMODEL PAL8
|  3>
|  4> %base "3-62_DFT_AB"
|  5>
|  6> %scf
|  7> MaxIter 1000
|  8> end
|  9>
| 10> * xyz 0 1
| 11>   C                      -8.550756            3.122368             3.230009
| 12>   O                      -8.562572            2.964860             1.793958
| 13>   H                      -8.190921            3.761981             1.375839
| 14>   H                      -9.274297            2.452273             3.762807
| 15>   H                      -7.574168            2.767367             3.602449
| 16>   H                      -8.847867            4.108928             3.617314
| 17>   C                      -10.795326           6.445610             1.553650
| 18>   O                      -9.482808            6.092981             1.229966
| 19>   H                      -9.572663            5.395897             0.582545
| 20>   H                      -11.209848           5.887383             2.361897
| 21>   H                      -10.904608           7.502518             1.866225
| 22>   H                      -11.443020           6.359200             0.689975
| 23> *
| 24>
| 25> #Run DFT-D3 single point of the molecule with dimer basis set
| 26> $new_job
| 27> %base "3-62_DFT_A"
| 28> ! wB97X-D3 def2-TZVP TIGHTSCF CHELPG PMODEL
| 29>
| 30> %scf
| 31> MaxIter 1000
| 32> end
| 33>
| 34> * xyz 0 1
| 35>   C                      -8.550756            3.122368             3.230009
| 36>   O                      -8.562572            2.964860             1.793958
| 37>   H                      -8.190921            3.761981             1.375839
| 38>   H                      -9.274297            2.452273             3.762807
| 39>   H                      -7.574168            2.767367             3.602449
| 40>   H                      -8.847867            4.108928             3.617314
| 41>   C                    : -10.795326           6.445610             1.553650
| 42>   O                    : -9.482808            6.092981             1.229966
| 43>   H                    : -9.572663            5.395897             0.582545
| 44>   H                    : -11.209848           5.887383             2.361897
| 45>   H                    : -10.904608           7.502518             1.866225
| 46>   H                    : -11.443020           6.359200             0.689975
| 47> *
| 48>
| 49> #Run DFT-D3 single point of the particle with dimer basis set
| 50> $new_job
| 51> %base "3-62_DFT_B"
| 52> ! wB97X-D3 def2-TZVP TIGHTSCF CHELPG PMODEL
| 53>
| 54> %scf
| 55> MaxIter 1000
| 56> end
| 57>
| 58> * xyz 0 1
| 59>   C                    : -8.550756            3.122368             3.230009
| 60>   O                    : -8.562572            2.964860             1.793958
| 61>   H                    : -8.190921            3.761981             1.375839
| 62>   H                    : -9.274297            2.452273             3.762807
| 63>   H                    : -7.574168            2.767367             3.602449
| 64>   H                    : -8.847867            4.108928             3.617314
| 65>   C                      -10.795326           6.445610             1.553650
| 66>   O                      -9.482808            6.092981             1.229966
| 67>   H                      -9.572663            5.395897             0.582545
| 68>   H                      -11.209848           5.887383             2.361897
| 69>   H                      -10.904608           7.502518             1.866225
| 70>   H                      -11.443020           6.359200             0.689975
| 71> *
| 72>
| 73>                          ****END OF INPUT****
 Total Charge           Charge          ....    0
 Multiplicity           Mult            ....    1
 Number of Electrons    NEL             ....   36
Dispersion correction           -0.001859020
FINAL SINGLE POINT ENERGY      -231.469077707130
Dispersion correction           -0.000281362
FINAL SINGLE POINT ENERGY      -115.731705900122

CARTESIAN COORDINATES (ANGSTROEM)
---------------------------------
  C     -8.550756    3.122368    3.230009
  O     -8.562572    2.964860    1.793958
  H     -8.190921    3.761981    1.375839
  H     -9.274297    2.452273    3.762807
  H     -7.574168    2.767367    3.602449
  H     -8.847867    4.108928    3.617314
  C    -10.795326    6.445610    1.553650
  O     -9.482808    6.092981    1.229966
  H     -9.572663    5.395897    0.582545
  H    -11.209848    5.887383    2.361897
  H    -10.904608    7.502518    1.866225
  H    -11.443020    6.359200    0.689975

 Multiplicity           Mult            ....    1
 Number of Electrons    NEL             ....   18
 Basis Dimension        Dim             ....  172

ORBITAL ENERGIES
----------------

  NO   OCC          E(Eh)            E(eV)
   0   2.0000     -19.233647      -523.3741
   1   2.0000     -10.308571      -280.5105
   2   2.0000      -1.146218       -31.1902
   3   2.0000      -0.797221       -21.6935
   4   2.0000      -0.616357       -16.7719
   5   2.0000      -0.548194       -14.9171
   6   2.0000      -0.530933       -14.4474
   7   2.0000      -0.433346       -11.7920
   8   2.0000      -0.376466       -10.2442
   9   0.0000       0.088871         2.4183
  10   0.0000       0.126124         3.4320
  11   0.0000       0.146586         3.9888
  12   0.0000       0.186943         5.0870
  13   0.0000       0.192611         5.2412

MULLIKEN ATOMIC CHARGES
-----------------------
   0 C :    0.001308
   1 O :   -0.001229
   2 H :   -0.005104
   3 H :    0.000099
   4 H :   -0.000162
   5 H :   -0.002986
   6 C :   -0.175943
   7 O :   -0.455541
   8 H :    0.319500
   9 H :    0.104421
  10 H :    0.111889
  11 H :    0.103749
Sum of atomic charges:   -0.0000000

LOEWDIN ATOMIC CHARGES
----------------------
   0 C :   -0.003623
   1 O :   -0.002371
   2 H :   -0.007613
   3 H :   -0.000023
   4 H :   -0.000041
   5 H :   -0.002109
   6 C :   -0.400470
   7 O :   -0.048599
   8 H :    0.173004
   9 H :    0.088578
  10 H :    0.109129
  11 H :    0.094138

  Mayer bond orders larger than 0.1
B(  6-C ,  7-O ) :   1.0142 B(  6-C ,  9-H ) :   0.9718 B(  6-C , 10-H ) :   0.9746
B(  6-C , 11-H ) :   0.9893 B(  7-O ,  8-H ) :   0.8976

Dispersion correction           -0.000231389
FINAL SINGLE POINT ENERGY      -115.734401034944

DIPOLE MOMENT
-------------
                                X             Y             Z
Electronic contribution:      1.83236      -0.42230      -0.31983
Nuclear contribution   :     -2.40771       0.13565       0.01891
                        -----------------------------------------
Total Dipole Moment    :     -0.57534      -0.28665      -0.30091
                        -----------------------------------------
Magnitude (a.u.)       :      0.70974
Magnitude (Debye)      :      1.80403

Rotational constants in cm-1:     4.431327     0.845733     0.814867
Rotational constants in MHz : 132847.833899 25354.440164 24429.100364

                             ****ORCA TERMINATED NORMALLY****
TOTAL RUN TIME: 0 days 0 hours 6 minutes 5 seconds 87 msec
