                         Program Version 4.1.2  - RELEASE  -
|  1> #Run DFT-D3 single point of the dimer
|  2> ! wB97X-D3 def2-TZVP TIGHTSCF CHELPG PMODEL PAL8
|  3>
|  4> %base "20-72_DFT_AB"
|  5>
|  6> %scf
|  7> MaxIter 1000
|  8> end
|  9>
| 10> * xyz 0 1
| 11>   C                      7.632217             9.699304             -7.585289
| 12>   O                      8.220885             8.717487             -8.487322
| 13>   H                      8.292732             7.918457             -7.923862
| 14>   H                      7.388094             10.683171            -8.048767
| 15>   H                      6.886025             9.245156             -6.974468
| 16>   H                      8.453979             9.988415             -6.909452
| 17>   C                      3.870062             9.588237             -6.431992
| 18>   O                      4.333502             8.226179             -6.452210
| 19>   H                      4.139159             7.860522             -7.309450
| 20>   H                      4.710507             10.342658            -6.567665
| 21>   H                      3.127605             9.907514             -7.176449
| 22>   H                      3.433877             9.691790             -5.417177
| 23> *
| 24>
| 25> #Run DFT-D3 single point of the molecule with dimer basis set
| 26> $new_job
| 27> %base "20-72_DFT_A"
| 28> ! wB97X-D3 def2-TZVP TIGHTSCF CHELPG PMODEL
| 29>
| 30> %scf
| 31> MaxIter 1000
| 32> end
| 33>
| 34> * xyz 0 1
| 35>   C                      7.632217             9.699304             -7.585289
| 36>   O                      8.220885             8.717487             -8.487322
| 37>   H                      8.292732             7.918457             -7.923862
| 38>   H                      7.388094             10.683171            -8.048767
| 39>   H                      6.886025             9.245156             -6.974468
| 40>   H                      8.453979             9.988415             -6.909452
| 41>   C                    : 3.870062             9.588237             -6.431992
| 42>   O                    : 4.333502             8.226179             -6.452210
| 43>   H                    : 4.139159             7.860522             -7.309450
| 44>   H                    : 4.710507             10.342658            -6.567665
| 45>   H                    : 3.127605             9.907514             -7.176449
| 46>   H                    : 3.433877             9.691790             -5.417177
| 47> *
| 48>
| 49> #Run DFT-D3 single point of the particle with dimer basis set
| 50> $new_job
| 51> %base "20-72_DFT_B"
| 52> ! wB97X-D3 def2-TZVP TIGHTSCF CHELPG PMODEL
| 53>
| 54> %scf
| 55> MaxIter 1000
| 56> end
| 57>
| 58> * xyz 0 1
| 59>   C                    : 7.632217             9.699304             -7.585289
| 60>   O                    : 8.220885             8.717487             -8.487322
| 61>   H                    : 8.292732             7.918457             -7.923862
| 62>   H                    : 7.388094             10.683171            -8.048767
| 63>   H                    : 6.886025             9.245156             -6.974468
| 64>   H                    : 8.453979             9.988415             -6.909452
| 65>   C                      3.870062             9.588237             -6.431992
| 66>   O                      4.333502             8.226179             -6.452210
| 67>   H                      4.139159             7.860522             -7.309450
| 68>   H                      4.710507             10.342658            -6.567665
| 69>   H                      3.127605             9.907514             -7.176449
| 70>   H                      3.433877             9.691790             -5.417177
| 71> *
| 72>
| 73>                          ****END OF INPUT****
 Total Charge           Charge          ....    0
 Multiplicity           Mult            ....    1
 Number of Electrons    NEL             ....   36
Dispersion correction           -0.001658286
FINAL SINGLE POINT ENERGY      -231.462832376122
Dispersion correction           -0.000233072
FINAL SINGLE POINT ENERGY      -115.727822464170

CARTESIAN COORDINATES (ANGSTROEM)
---------------------------------
  C      7.632217    9.699304   -7.585289
  O      8.220885    8.717487   -8.487322
  H      8.292732    7.918457   -7.923862
  H      7.388094   10.683171   -8.048767
  H      6.886025    9.245156   -6.974468
  H      8.453979    9.988415   -6.909452
  C      3.870062    9.588237   -6.431992
  O      4.333502    8.226179   -6.452210
  H      4.139159    7.860522   -7.309450
  H      4.710507   10.342658   -6.567665
  H      3.127605    9.907514   -7.176449
  H      3.433877    9.691790   -5.417177

 Multiplicity           Mult            ....    1
 Number of Electrons    NEL             ....   18
 Basis Dimension        Dim             ....  172

ORBITAL ENERGIES
----------------

  NO   OCC          E(Eh)            E(eV)
   0   2.0000     -19.233241      -523.3631
   1   2.0000     -10.321859      -280.8721
   2   2.0000      -1.132468       -30.8160
   3   2.0000      -0.793293       -21.5866
   4   2.0000      -0.613553       -16.6956
   5   2.0000      -0.531323       -14.4580
   6   2.0000      -0.515077       -14.0160
   7   2.0000      -0.442022       -12.0280
   8   2.0000      -0.374392       -10.1877
   9   0.0000       0.089120         2.4251
  10   0.0000       0.124894         3.3985
  11   0.0000       0.143476         3.9042
  12   0.0000       0.173248         4.7143
  13   0.0000       0.191275         5.2049

MULLIKEN ATOMIC CHARGES
-----------------------
   0 C :   -0.001431
   1 O :    0.000079
   2 H :   -0.000185
   3 H :   -0.000828
   4 H :   -0.000402
   5 H :    0.000025
   6 C :   -0.182108
   7 O :   -0.472228
   8 H :    0.313800
   9 H :    0.101808
  10 H :    0.116947
  11 H :    0.124522
Sum of atomic charges:   -0.0000000

LOEWDIN ATOMIC CHARGES
----------------------
   0 C :   -0.005027
   1 O :   -0.000037
   2 H :   -0.000092
   3 H :   -0.000499
   4 H :   -0.006300
   5 H :   -0.000025
   6 C :   -0.378058
   7 O :   -0.083066
   8 H :    0.161278
   9 H :    0.104223
  10 H :    0.096901
  11 H :    0.110703

  Mayer bond orders larger than 0.1
B(  6-C ,  7-O ) :   0.9947 B(  6-C ,  9-H ) :   0.9702 B(  6-C , 10-H ) :   0.9691
B(  6-C , 11-H ) :   0.9806 B(  7-O ,  8-H ) :   0.9024

Dispersion correction           -0.000281105
FINAL SINGLE POINT ENERGY      -115.732345943360

DIPOLE MOMENT
-------------
                                X             Y             Z
Electronic contribution:      0.57908      -1.79737       0.01467
Nuclear contribution   :     -0.92159       2.09092      -0.57108
                        -----------------------------------------
Total Dipole Moment    :     -0.34251       0.29355      -0.55641
                        -----------------------------------------
Magnitude (a.u.)       :      0.71629
Magnitude (Debye)      :      1.82067

Rotational constants in cm-1:     4.232891     0.799041     0.773290
Rotational constants in MHz : 126898.870653 23954.634385 23182.645896

                             ****ORCA TERMINATED NORMALLY****
TOTAL RUN TIME: 0 days 0 hours 1 minutes 4 seconds 562 msec
