                         Program Version 4.1.2  - RELEASE  -
|  1> #Run DFT-D3 single point of the dimer
|  2> ! wB97X-D3 def2-TZVP TIGHTSCF CHELPG PMODEL PAL8
|  3>
|  4> %base "1-125_DFT_AB"
|  5>
|  6> %scf
|  7> MaxIter 1000
|  8> end
|  9>
| 10> * xyz 0 1
| 11>   C                      8.306979             -1.199292            -5.182348
| 12>   O                      7.537905             -1.703815            -6.246899
| 13>   H                      7.832907             -1.390369            -7.097220
| 14>   H                      8.184739             -0.143854            -5.200148
| 15>   H                      8.096430             -1.585496            -4.205000
| 16>   H                      9.355720             -1.370345            -5.333518
| 17>   C                      9.668061             -3.866281            -6.976412
| 18>   O                      8.552818             -3.581596            -6.200644
| 19>   H                      8.019114             -2.985444            -6.708306
| 20>   H                      10.315615            -4.650284            -6.516347
| 21>   H                      9.364548             -4.279350            -7.979582
| 22>   H                      10.229104            -2.945901            -7.121084
| 23> *
| 24>
| 25> #Run DFT-D3 single point of the molecule with dimer basis set
| 26> $new_job
| 27> %base "1-125_DFT_A"
| 28> ! wB97X-D3 def2-TZVP TIGHTSCF CHELPG PMODEL
| 29>
| 30> %scf
| 31> MaxIter 1000
| 32> end
| 33>
| 34> * xyz 0 1
| 35>   C                      8.306979             -1.199292            -5.182348
| 36>   O                      7.537905             -1.703815            -6.246899
| 37>   H                      7.832907             -1.390369            -7.097220
| 38>   H                      8.184739             -0.143854            -5.200148
| 39>   H                      8.096430             -1.585496            -4.205000
| 40>   H                      9.355720             -1.370345            -5.333518
| 41>   C                    : 9.668061             -3.866281            -6.976412
| 42>   O                    : 8.552818             -3.581596            -6.200644
| 43>   H                    : 8.019114             -2.985444            -6.708306
| 44>   H                    : 10.315615            -4.650284            -6.516347
| 45>   H                    : 9.364548             -4.279350            -7.979582
| 46>   H                    : 10.229104            -2.945901            -7.121084
| 47> *
| 48>
| 49> #Run DFT-D3 single point of the particle with dimer basis set
| 50> $new_job
| 51> %base "1-125_DFT_B"
| 52> ! wB97X-D3 def2-TZVP TIGHTSCF CHELPG PMODEL
| 53>
| 54> %scf
| 55> MaxIter 1000
| 56> end
| 57>
| 58> * xyz 0 1
| 59>   C                    : 8.306979             -1.199292            -5.182348
| 60>   O                    : 7.537905             -1.703815            -6.246899
| 61>   H                    : 7.832907             -1.390369            -7.097220
| 62>   H                    : 8.184739             -0.143854            -5.200148
| 63>   H                    : 8.096430             -1.585496            -4.205000
| 64>   H                    : 9.355720             -1.370345            -5.333518
| 65>   C                      9.668061             -3.866281            -6.976412
| 66>   O                      8.552818             -3.581596            -6.200644
| 67>   H                      8.019114             -2.985444            -6.708306
| 68>   H                      10.315615            -4.650284            -6.516347
| 69>   H                      9.364548             -4.279350            -7.979582
| 70>   H                      10.229104            -2.945901            -7.121084
| 71> *
| 72>
| 73>                          ****END OF INPUT****
 Total Charge           Charge          ....    0
 Multiplicity           Mult            ....    1
 Number of Electrons    NEL             ....   36
Dispersion correction           -0.002222369
FINAL SINGLE POINT ENERGY      -231.430900632117
Dispersion correction           -0.000227317
FINAL SINGLE POINT ENERGY      -115.732058728859

CARTESIAN COORDINATES (ANGSTROEM)
---------------------------------
  C      8.306979   -1.199292   -5.182348
  O      7.537905   -1.703815   -6.246899
  H      7.832907   -1.390369   -7.097220
  H      8.184739   -0.143854   -5.200148
  H      8.096430   -1.585496   -4.205000
  H      9.355720   -1.370345   -5.333518
  C      9.668061   -3.866281   -6.976412
  O      8.552818   -3.581596   -6.200644
  H      8.019114   -2.985444   -6.708306
  H     10.315615   -4.650284   -6.516347
  H      9.364548   -4.279350   -7.979582
  H     10.229104   -2.945901   -7.121084

 Multiplicity           Mult            ....    1
 Number of Electrons    NEL             ....   18
 Basis Dimension        Dim             ....  172

ORBITAL ENERGIES
----------------

  NO   OCC          E(Eh)            E(eV)
   0   2.0000     -19.231275      -523.3096
   1   2.0000     -10.317068      -280.7417
   2   2.0000      -1.149814       -31.2880
   3   2.0000      -0.791278       -21.5318
   4   2.0000      -0.615623       -16.7519
   5   2.0000      -0.548756       -14.9324
   6   2.0000      -0.530941       -14.4476
   7   2.0000      -0.431904       -11.7527
   8   2.0000      -0.372909       -10.1474
   9   0.0000       0.083141         2.2624
  10   0.0000       0.138946         3.7809
  11   0.0000       0.151829         4.1315
  12   0.0000       0.180604         4.9145
  13   0.0000       0.194054         5.2805

MULLIKEN ATOMIC CHARGES
-----------------------
   0 C :    0.000982
   1 O :   -0.022238
   2 H :   -0.001697
   3 H :   -0.000568
   4 H :   -0.002177
   5 H :   -0.005975
   6 C :   -0.171922
   7 O :   -0.437699
   8 H :    0.320092
   9 H :    0.120347
  10 H :    0.095956
  11 H :    0.104898
Sum of atomic charges:    0.0000000

LOEWDIN ATOMIC CHARGES
----------------------
   0 C :   -0.045584
   1 O :   -0.084617
   2 H :   -0.010818
   3 H :   -0.000749
   4 H :   -0.003435
   5 H :   -0.007453
   6 C :   -0.401419
   7 O :    0.037281
   8 H :    0.209833
   9 H :    0.113522
  10 H :    0.099008
  11 H :    0.094430

  Mayer bond orders larger than 0.1
B(  6-C ,  7-O ) :   1.0004 B(  6-C ,  9-H ) :   0.9717 B(  6-C , 10-H ) :   0.9820
B(  6-C , 11-H ) :   0.9762 B(  7-O ,  8-H ) :   0.8948

Dispersion correction           -0.000220055
FINAL SINGLE POINT ENERGY      -115.735569551359

DIPOLE MOMENT
-------------
                                X             Y             Z
Electronic contribution:     -1.37683       0.28084       1.18788
Nuclear contribution   :      1.47175      -0.03614      -1.79186
                        -----------------------------------------
Total Dipole Moment    :      0.09492       0.24471      -0.60398
                        -----------------------------------------
Magnitude (a.u.)       :      0.65855
Magnitude (Debye)      :      1.67389

Rotational constants in cm-1:     4.195735     0.857071     0.826589
Rotational constants in MHz : 125784.972428 25694.335578 24780.500064

                             ****ORCA TERMINATED NORMALLY****
TOTAL RUN TIME: 0 days 0 hours 5 minutes 45 seconds 468 msec
