                         Program Version 4.1.2  - RELEASE  -
|  1> #Run DFT-D3 single point of the dimer
|  2> ! wB97X-D3 def2-TZVP TIGHTSCF CHELPG PMODEL PAL8
|  3>
|  4> %base "21-133_DFT_AB"
|  5>
|  6> %scf
|  7> MaxIter 1000
|  8> end
|  9>
| 10> * xyz 0 1
| 11>   C                      -8.175844            -6.461726            -9.529841
| 12>   O                      -6.888502            -6.628987            -8.963924
| 13>   H                      -6.925999            -7.424524            -8.347092
| 14>   H                      -8.688891            -7.439171            -9.596102
| 15>   H                      -8.830355            -5.949237            -8.826932
| 16>   H                      -8.134614            -6.010198            -10.551838
| 17>   C                      -10.292282           -10.298115           -7.803485
| 18>   O                      -9.893971            -9.092329            -7.274887
| 19>   H                      -10.588177           -8.420497            -7.344512
| 20>   H                      -10.948231           -10.860862           -7.085478
| 21>   H                      -10.845330           -10.100252           -8.775210
| 22>   H                      -9.436841            -10.959219           -8.103490
| 23> *
| 24>
| 25> #Run DFT-D3 single point of the molecule with dimer basis set
| 26> $new_job
| 27> %base "21-133_DFT_A"
| 28> ! wB97X-D3 def2-TZVP TIGHTSCF CHELPG PMODEL
| 29>
| 30> %scf
| 31> MaxIter 1000
| 32> end
| 33>
| 34> * xyz 0 1
| 35>   C                      -8.175844            -6.461726            -9.529841
| 36>   O                      -6.888502            -6.628987            -8.963924
| 37>   H                      -6.925999            -7.424524            -8.347092
| 38>   H                      -8.688891            -7.439171            -9.596102
| 39>   H                      -8.830355            -5.949237            -8.826932
| 40>   H                      -8.134614            -6.010198            -10.551838
| 41>   C                    : -10.292282           -10.298115           -7.803485
| 42>   O                    : -9.893971            -9.092329            -7.274887
| 43>   H                    : -10.588177           -8.420497            -7.344512
| 44>   H                    : -10.948231           -10.860862           -7.085478
| 45>   H                    : -10.845330           -10.100252           -8.775210
| 46>   H                    : -9.436841            -10.959219           -8.103490
| 47> *
| 48>
| 49> #Run DFT-D3 single point of the particle with dimer basis set
| 50> $new_job
| 51> %base "21-133_DFT_B"
| 52> ! wB97X-D3 def2-TZVP TIGHTSCF CHELPG PMODEL
| 53>
| 54> %scf
| 55> MaxIter 1000
| 56> end
| 57>
| 58> * xyz 0 1
| 59>   C                    : -8.175844            -6.461726            -9.529841
| 60>   O                    : -6.888502            -6.628987            -8.963924
| 61>   H                    : -6.925999            -7.424524            -8.347092
| 62>   H                    : -8.688891            -7.439171            -9.596102
| 63>   H                    : -8.830355            -5.949237            -8.826932
| 64>   H                    : -8.134614            -6.010198            -10.551838
| 65>   C                      -10.292282           -10.298115           -7.803485
| 66>   O                      -9.893971            -9.092329            -7.274887
| 67>   H                      -10.588177           -8.420497            -7.344512
| 68>   H                      -10.948231           -10.860862           -7.085478
| 69>   H                      -10.845330           -10.100252           -8.775210
| 70>   H                      -9.436841            -10.959219           -8.103490
| 71> *
| 72>
| 73>                          ****END OF INPUT****
 Total Charge           Charge          ....    0
 Multiplicity           Mult            ....    1
 Number of Electrons    NEL             ....   36
Dispersion correction           -0.001431896
FINAL SINGLE POINT ENERGY      -231.465885159956
Dispersion correction           -0.000240568
FINAL SINGLE POINT ENERGY      -115.730428509653

CARTESIAN COORDINATES (ANGSTROEM)
---------------------------------
  C     -8.175844   -6.461726   -9.529841
  O     -6.888502   -6.628987   -8.963924
  H     -6.925999   -7.424524   -8.347092
  H     -8.688891   -7.439171   -9.596102
  H     -8.830355   -5.949237   -8.826932
  H     -8.134614   -6.010198  -10.551838
  C    -10.292282  -10.298115   -7.803485
  O     -9.893971   -9.092329   -7.274887
  H    -10.588177   -8.420497   -7.344512
  H    -10.948231  -10.860862   -7.085478
  H    -10.845330  -10.100252   -8.775210
  H     -9.436841  -10.959219   -8.103490

 Multiplicity           Mult            ....    1
 Number of Electrons    NEL             ....   18
 Basis Dimension        Dim             ....  172

ORBITAL ENERGIES
----------------

  NO   OCC          E(Eh)            E(eV)
   0   2.0000     -19.231235      -523.3085
   1   2.0000     -10.320895      -280.8458
   2   2.0000      -1.146225       -31.1904
   3   2.0000      -0.788134       -21.4462
   4   2.0000      -0.614461       -16.7203
   5   2.0000      -0.544959       -14.8291
   6   2.0000      -0.533026       -14.5044
   7   2.0000      -0.419580       -11.4173
   8   2.0000      -0.371434       -10.1072
   9   0.0000       0.087759         2.3880
  10   0.0000       0.123476         3.3600
  11   0.0000       0.148867         4.0509
  12   0.0000       0.171413         4.6644
  13   0.0000       0.197596         5.3769

MULLIKEN ATOMIC CHARGES
-----------------------
   0 C :    0.003424
   1 O :    0.000188
   2 H :   -0.001496
   3 H :   -0.006768
   4 H :   -0.001340
   5 H :   -0.000344
   6 C :   -0.163330
   7 O :   -0.469596
   8 H :    0.324169
   9 H :    0.099510
  10 H :    0.096425
  11 H :    0.119157
Sum of atomic charges:   -0.0000000

LOEWDIN ATOMIC CHARGES
----------------------
   0 C :   -0.003289
   1 O :   -0.000045
   2 H :   -0.001074
   3 H :   -0.003783
   4 H :   -0.000504
   5 H :   -0.000044
   6 C :   -0.426939
   7 O :   -0.050778
   8 H :    0.178271
   9 H :    0.096723
  10 H :    0.099603
  11 H :    0.111858

  Mayer bond orders larger than 0.1
B(  6-C ,  7-O ) :   0.9970 B(  6-C ,  9-H ) :   0.9705 B(  6-C , 10-H ) :   0.9855
B(  6-C , 11-H ) :   0.9690 B(  7-O ,  8-H ) :   0.8884

Dispersion correction           -0.000243310
FINAL SINGLE POINT ENERGY      -115.732787670353

DIPOLE MOMENT
-------------
                                X             Y             Z
Electronic contribution:      0.69011       1.53732       0.81522
Nuclear contribution   :     -1.27572      -1.55240      -1.06422
                        -----------------------------------------
Total Dipole Moment    :     -0.58561      -0.01508      -0.24900
                        -----------------------------------------
Magnitude (a.u.)       :      0.63653
Magnitude (Debye)      :      1.61792

Rotational constants in cm-1:     4.144845     0.852415     0.828809
Rotational constants in MHz : 124259.318913 25554.759978 24847.071885

                             ****ORCA TERMINATED NORMALLY****
TOTAL RUN TIME: 0 days 0 hours 0 minutes 56 seconds 44 msec
