                         Program Version 4.1.2  - RELEASE  -
|  1> #Run DFT-D3 single point of the dimer
|  2> ! wB97X-D3 def2-TZVP TIGHTSCF CHELPG PMODEL PAL8
|  3>
|  4> %base "3-4_DFT_AB"
|  5>
|  6> %scf
|  7> MaxIter 1000
|  8> end
|  9>
| 10> * xyz 0 1
| 11>   C                      -7.942409            -2.379003            -9.459658
| 12>   O                      -7.867683            -3.795945            -9.391160
| 13>   H                      -8.719740            -4.186714            -9.465420
| 14>   H                      -7.748901            -1.924920            -8.467208
| 15>   H                      -7.233413            -1.909138            -10.170256
| 16>   H                      -8.967834            -2.145940            -9.738359
| 17>   C                      -3.888145            1.871441             -9.901667
| 18>   O                      -2.887328            1.541876             -10.844331
| 19>   H                      -2.057649            1.745419             -10.528720
| 20>   H                      -4.007914            2.958215             -9.898934
| 21>   H                      -4.899281            1.516543             -10.079027
| 22>   H                      -3.612215            1.511664             -8.924497
| 23> *
| 24>
| 25> #Run DFT-D3 single point of the molecule with dimer basis set
| 26> $new_job
| 27> %base "3-4_DFT_A"
| 28> ! wB97X-D3 def2-TZVP TIGHTSCF CHELPG PMODEL
| 29>
| 30> %scf
| 31> MaxIter 1000
| 32> end
| 33>
| 34> * xyz 0 1
| 35>   C                      -7.942409            -2.379003            -9.459658
| 36>   O                      -7.867683            -3.795945            -9.391160
| 37>   H                      -8.719740            -4.186714            -9.465420
| 38>   H                      -7.748901            -1.924920            -8.467208
| 39>   H                      -7.233413            -1.909138            -10.170256
| 40>   H                      -8.967834            -2.145940            -9.738359
| 41>   C                    : -3.888145            1.871441             -9.901667
| 42>   O                    : -2.887328            1.541876             -10.844331
| 43>   H                    : -2.057649            1.745419             -10.528720
| 44>   H                    : -4.007914            2.958215             -9.898934
| 45>   H                    : -4.899281            1.516543             -10.079027
| 46>   H                    : -3.612215            1.511664             -8.924497
| 47> *
| 48>
| 49> #Run DFT-D3 single point of the particle with dimer basis set
| 50> $new_job
| 51> %base "3-4_DFT_B"
| 52> ! wB97X-D3 def2-TZVP TIGHTSCF CHELPG PMODEL
| 53>
| 54> %scf
| 55> MaxIter 1000
| 56> end
| 57>
| 58> * xyz 0 1
| 59>   C                    : -7.942409            -2.379003            -9.459658
| 60>   O                    : -7.867683            -3.795945            -9.391160
| 61>   H                    : -8.719740            -4.186714            -9.465420
| 62>   H                    : -7.748901            -1.924920            -8.467208
| 63>   H                    : -7.233413            -1.909138            -10.170256
| 64>   H                    : -8.967834            -2.145940            -9.738359
| 65>   C                      -3.888145            1.871441             -9.901667
| 66>   O                      -2.887328            1.541876             -10.844331
| 67>   H                      -2.057649            1.745419             -10.528720
| 68>   H                      -4.007914            2.958215             -9.898934
| 69>   H                      -4.899281            1.516543             -10.079027
| 70>   H                      -3.612215            1.511664             -8.924497
| 71> *
| 72>
| 73>                          ****END OF INPUT****
 Total Charge           Charge          ....    0
 Multiplicity           Mult            ....    1
 Number of Electrons    NEL             ....   36
Dispersion correction           -0.000603259
FINAL SINGLE POINT ENERGY      -231.462917152646
Dispersion correction           -0.000250608
FINAL SINGLE POINT ENERGY      -115.732995067786

CARTESIAN COORDINATES (ANGSTROEM)
---------------------------------
  C     -7.942409   -2.379003   -9.459658
  O     -7.867683   -3.795945   -9.391160
  H     -8.719740   -4.186714   -9.465420
  H     -7.748901   -1.924920   -8.467208
  H     -7.233413   -1.909138  -10.170256
  H     -8.967834   -2.145940   -9.738359
  C     -3.888145    1.871441   -9.901667
  O     -2.887328    1.541876  -10.844331
  H     -2.057649    1.745419  -10.528720
  H     -4.007914    2.958215   -9.898934
  H     -4.899281    1.516543  -10.079027
  H     -3.612215    1.511664   -8.924497

 Multiplicity           Mult            ....    1
 Number of Electrons    NEL             ....   18
 Basis Dimension        Dim             ....  172

ORBITAL ENERGIES
----------------

  NO   OCC          E(Eh)            E(eV)
   0   2.0000     -19.223194      -523.0897
   1   2.0000     -10.312072      -280.6057
   2   2.0000      -1.143738       -31.1227
   3   2.0000      -0.804485       -21.8911
   4   2.0000      -0.616226       -16.7684
   5   2.0000      -0.546410       -14.8686
   6   2.0000      -0.534783       -14.5522
   7   2.0000      -0.426396       -11.6028
   8   2.0000      -0.373698       -10.1688
   9   0.0000       0.087163         2.3718
  10   0.0000       0.120854         3.2886
  11   0.0000       0.145980         3.9723
  12   0.0000       0.170741         4.6461
  13   0.0000       0.195462         5.3188

MULLIKEN ATOMIC CHARGES
-----------------------
   0 C :   -0.000012
   1 O :   -0.000000
   2 H :   -0.000000
   3 H :   -0.000007
   4 H :   -0.000016
   5 H :   -0.000000
   6 C :   -0.154347
   7 O :   -0.474945
   8 H :    0.308626
   9 H :    0.101738
  10 H :    0.119369
  11 H :    0.099595
Sum of atomic charges:    0.0000000

LOEWDIN ATOMIC CHARGES
----------------------
   0 C :   -0.000023
   1 O :   -0.000000
   2 H :   -0.000000
   3 H :   -0.000004
   4 H :   -0.000035
   5 H :   -0.000000
   6 C :   -0.375676
   7 O :   -0.054783
   8 H :    0.135519
   9 H :    0.096028
  10 H :    0.106926
  11 H :    0.092049

  Mayer bond orders larger than 0.1
B(  6-C ,  7-O ) :   0.9897 B(  6-C ,  9-H ) :   0.9830 B(  6-C , 10-H ) :   0.9706
B(  6-C , 11-H ) :   0.9841 B(  7-O ,  8-H ) :   0.9075

Dispersion correction           -0.000236832
FINAL SINGLE POINT ENERGY      -115.729878113237

DIPOLE MOMENT
-------------
                                X             Y             Z
Electronic contribution:      1.19086      -0.55344      -1.29953
Nuclear contribution   :     -1.06830       0.81679       1.90320
                        -----------------------------------------
Total Dipole Moment    :      0.12255       0.26335       0.60367
                        -----------------------------------------
Magnitude (a.u.)       :      0.66992
Magnitude (Debye)      :      1.70279

Rotational constants in cm-1:     4.575326     0.822413     0.802220
Rotational constants in MHz : 137164.836013 24655.324936 24049.944614

                             ****ORCA TERMINATED NORMALLY****
TOTAL RUN TIME: 0 days 0 hours 6 minutes 20 seconds 82 msec
