                         Program Version 4.1.2  - RELEASE  -
|  1> #Run DFT-D3 single point of the dimer
|  2> ! wB97X-D3 def2-TZVP TIGHTSCF CHELPG PMODEL PAL8
|  3>
|  4> %base "22-116_DFT_AB"
|  5>
|  6> %scf
|  7> MaxIter 1000
|  8> end
|  9>
| 10> * xyz 0 1
| 11>   C                      -10.699421           -9.454129            0.693487
| 12>   O                      -9.719492            -10.177955           -0.115839
| 13>   H                      -8.820935            -10.003981           0.121232
| 14>   H                      -11.625706           -10.048634           0.665409
| 15>   H                      -10.303192           -9.351032            1.709668
| 16>   H                      -10.915611           -8.543939            0.197331
| 17>   C                      -6.562551            -9.594440            -0.983579
| 18>   O                      -7.015849            -9.670442            0.292974
| 19>   H                      -6.502563            -9.019146            0.782750
| 20>   H                      -5.468592            -9.857157            -1.010024
| 21>   H                      -7.115819            -10.191508           -1.692347
| 22>   H                      -6.727303            -8.508277            -1.277775
| 23> *
| 24>
| 25> #Run DFT-D3 single point of the molecule with dimer basis set
| 26> $new_job
| 27> %base "22-116_DFT_A"
| 28> ! wB97X-D3 def2-TZVP TIGHTSCF CHELPG PMODEL
| 29>
| 30> %scf
| 31> MaxIter 1000
| 32> end
| 33>
| 34> * xyz 0 1
| 35>   C                      -10.699421           -9.454129            0.693487
| 36>   O                      -9.719492            -10.177955           -0.115839
| 37>   H                      -8.820935            -10.003981           0.121232
| 38>   H                      -11.625706           -10.048634           0.665409
| 39>   H                      -10.303192           -9.351032            1.709668
| 40>   H                      -10.915611           -8.543939            0.197331
| 41>   C                    : -6.562551            -9.594440            -0.983579
| 42>   O                    : -7.015849            -9.670442            0.292974
| 43>   H                    : -6.502563            -9.019146            0.782750
| 44>   H                    : -5.468592            -9.857157            -1.010024
| 45>   H                    : -7.115819            -10.191508           -1.692347
| 46>   H                    : -6.727303            -8.508277            -1.277775
| 47> *
| 48>
| 49> #Run DFT-D3 single point of the particle with dimer basis set
| 50> $new_job
| 51> %base "22-116_DFT_B"
| 52> ! wB97X-D3 def2-TZVP TIGHTSCF CHELPG PMODEL
| 53>
| 54> %scf
| 55> MaxIter 1000
| 56> end
| 57>
| 58> * xyz 0 1
| 59>   C                    : -10.699421           -9.454129            0.693487
| 60>   O                    : -9.719492            -10.177955           -0.115839
| 61>   H                    : -8.820935            -10.003981           0.121232
| 62>   H                    : -11.625706           -10.048634           0.665409
| 63>   H                    : -10.303192           -9.351032            1.709668
| 64>   H                    : -10.915611           -8.543939            0.197331
| 65>   C                      -6.562551            -9.594440            -0.983579
| 66>   O                      -7.015849            -9.670442            0.292974
| 67>   H                      -6.502563            -9.019146            0.782750
| 68>   H                      -5.468592            -9.857157            -1.010024
| 69>   H                      -7.115819            -10.191508           -1.692347
| 70>   H                      -6.727303            -8.508277            -1.277775
| 71> *
| 72>
| 73>                          ****END OF INPUT****
 Total Charge           Charge          ....    0
 Multiplicity           Mult            ....    1
 Number of Electrons    NEL             ....   36
Dispersion correction           -0.001692703
FINAL SINGLE POINT ENERGY      -231.469123783441
Dispersion correction           -0.000253649
FINAL SINGLE POINT ENERGY      -115.732799751572

CARTESIAN COORDINATES (ANGSTROEM)
---------------------------------
  C    -10.699421   -9.454129    0.693487
  O     -9.719492  -10.177955   -0.115839
  H     -8.820935  -10.003981    0.121232
  H    -11.625706  -10.048634    0.665409
  H    -10.303192   -9.351032    1.709668
  H    -10.915611   -8.543939    0.197331
  C     -6.562551   -9.594440   -0.983579
  O     -7.015849   -9.670442    0.292974
  H     -6.502563   -9.019146    0.782750
  H     -5.468592   -9.857157   -1.010024
  H     -7.115819  -10.191508   -1.692347
  H     -6.727303   -8.508277   -1.277775

 Multiplicity           Mult            ....    1
 Number of Electrons    NEL             ....   18
 Basis Dimension        Dim             ....  172

ORBITAL ENERGIES
----------------

  NO   OCC          E(Eh)            E(eV)
   0   2.0000     -19.229544      -523.2625
   1   2.0000     -10.315498      -280.6990
   2   2.0000      -1.157863       -31.5071
   3   2.0000      -0.786510       -21.4020
   4   2.0000      -0.615832       -16.7576
   5   2.0000      -0.550373       -14.9764
   6   2.0000      -0.542238       -14.7550
   7   2.0000      -0.427755       -11.6398
   8   2.0000      -0.366115        -9.9625
   9   0.0000       0.096632         2.6295
  10   0.0000       0.120526         3.2797
  11   0.0000       0.156492         4.2584
  12   0.0000       0.190188         5.1753
  13   0.0000       0.194679         5.2975

MULLIKEN ATOMIC CHARGES
-----------------------
   0 C :   -0.002564
   1 O :   -0.002403
   2 H :    0.000865
   3 H :   -0.000212
   4 H :   -0.000753
   5 H :    0.000147
   6 C :   -0.157612
   7 O :   -0.459207
   8 H :    0.318537
   9 H :    0.095270
  10 H :    0.118765
  11 H :    0.089167
Sum of atomic charges:   -0.0000000

LOEWDIN ATOMIC CHARGES
----------------------
   0 C :   -0.002443
   1 O :   -0.006124
   2 H :   -0.048099
   3 H :   -0.000061
   4 H :   -0.000440
   5 H :   -0.000060
   6 C :   -0.428581
   7 O :    0.002873
   8 H :    0.179271
   9 H :    0.099056
  10 H :    0.104148
  11 H :    0.100462

  Mayer bond orders larger than 0.1
B(  6-C ,  7-O ) :   0.9800 B(  6-C ,  9-H ) :   0.9701 B(  6-C , 10-H ) :   0.9743
B(  6-C , 11-H ) :   0.9911 B(  7-O ,  8-H ) :   0.8935

Dispersion correction           -0.000198710
FINAL SINGLE POINT ENERGY      -115.729437333761

DIPOLE MOMENT
-------------
                                X             Y             Z
Electronic contribution:     -0.74013      -0.38819       1.62999
Nuclear contribution   :      1.20333       0.79894      -1.77850
                        -----------------------------------------
Total Dipole Moment    :      0.46320       0.41075      -0.14851
                        -----------------------------------------
Magnitude (a.u.)       :      0.63665
Magnitude (Debye)      :      1.61824

Rotational constants in cm-1:     4.096915     0.892339     0.864550
Rotational constants in MHz : 122822.428870 26751.639998 25918.571865

                             ****ORCA TERMINATED NORMALLY****
TOTAL RUN TIME: 0 days 0 hours 1 minutes 9 seconds 340 msec
