                         Program Version 4.1.2  - RELEASE  -
|  1> #Run DFT-D3 single point of the dimer
|  2> ! wB97X-D3 def2-TZVP TIGHTSCF  CHELPG PAL8
|  3>
|  4> %base "199_charges"
|  5>
|  6> %scf
|  7> MaxIter 1000
|  8> end
|  9> %output
| 10>   Print[ P_Mayer ] 1
| 11>   Print[ P_NatPop ] 1
| 12>   Print[ P_Hirshfeld ] 1
| 13>   Print[ P_Mulliken ] 1
| 14>   Print [ P_Loewdin ] 1
| 15> end
| 16>
| 17> * xyz 0 1
| 18>   C                      -8.911687            3.075292             -2.493319
| 19>   O                      -8.598312            3.600536             -1.230369
| 20>   H                      -7.694995            3.846846             -1.310943
| 21>   H                      -8.196241            2.366286             -2.792120
| 22>   H                      -9.753539            2.443139             -2.483027
| 23>   H                      -9.006679            3.788565             -3.307491
| 24> *
| 25>
| 26>                          ****END OF INPUT****

CARTESIAN COORDINATES (ANGSTROEM)
---------------------------------
  C     -8.911687    3.075292   -2.493319
  O     -8.598312    3.600536   -1.230369
  H     -7.694995    3.846846   -1.310943
  H     -8.196241    2.366286   -2.792120
  H     -9.753539    2.443139   -2.483027
  H     -9.006679    3.788565   -3.307491

 Total Charge           Charge          ....    0
 Multiplicity           Mult            ....    1
 Number of Electrons    NEL             ....   18
 Basis Dimension        Dim             ....   86

ORBITAL ENERGIES
----------------

  NO   OCC          E(Eh)            E(eV)
   0   2.0000     -19.231370      -523.3122
   1   2.0000     -10.301649      -280.3221
   2   2.0000      -1.147061       -31.2131
   3   2.0000      -0.805595       -21.9213
   4   2.0000      -0.617357       -16.7991
   5   2.0000      -0.549807       -14.9610
   6   2.0000      -0.530743       -14.4423
   7   2.0000      -0.436163       -11.8686
   8   2.0000      -0.378031       -10.2867
   9   0.0000       0.118692         3.2298
  10   0.0000       0.156391         4.2556
  11   0.0000       0.208578         5.6757
  12   0.0000       0.211332         5.7506
  13   0.0000       0.229661         6.2494

MULLIKEN ATOMIC CHARGES
-----------------------
   0 C :   -0.169492
   1 O :   -0.461915
   2 H :    0.313319
   3 H :    0.105021
   4 H :    0.115639
   5 H :    0.097428
Sum of atomic charges:    0.0000000

LOEWDIN ATOMIC CHARGES
----------------------
   0 C :   -0.390540
   1 O :   -0.054129
   2 H :    0.160746
   3 H :    0.089526
   4 H :    0.100833
   5 H :    0.093564

  Mayer bond orders larger than 0.1
B(  0-C ,  1-O ) :   1.0072 B(  0-C ,  3-H ) :   0.9852 B(  0-C ,  4-H ) :   0.9759
B(  0-C ,  5-H ) :   0.9731 B(  1-O ,  2-H ) :   0.9056

Dispersion correction           -0.000223839
FINAL SINGLE POINT ENERGY      -115.729903600016

DIPOLE MOMENT
-------------
                                X             Y             Z
Electronic contribution:      0.22909       0.76658       1.75113
Nuclear contribution   :      0.23092      -0.86254      -2.29181
                        -----------------------------------------
Total Dipole Moment    :      0.46002      -0.09596      -0.54068
                        -----------------------------------------
Magnitude (a.u.)       :      0.71636
Magnitude (Debye)      :      1.82083

Rotational constants in cm-1:     4.636264     0.840009     0.816790
Rotational constants in MHz : 138991.691645 25182.835421 24486.755789

                             ****ORCA TERMINATED NORMALLY****
TOTAL RUN TIME: 0 days 0 hours 0 minutes 42 seconds 131 msec
