                         Program Version 4.1.2  - RELEASE  -
|  1> #Run DFT-D3 single point of the dimer
|  2> ! wB97X-D3 def2-TZVP TIGHTSCF CHELPG PMODEL PAL8
|  3>
|  4> %base "16-97_DFT_AB"
|  5>
|  6> %scf
|  7> MaxIter 1000
|  8> end
|  9>
| 10> * xyz 0 1
| 11>   C                      5.434958             2.875792             -9.733265
| 12>   O                      6.885886             2.877586             -9.509406
| 13>   H                      7.289825             2.013666             -9.590393
| 14>   H                      5.137906             3.799958             -10.234967
| 15>   H                      5.202899             1.890700             -10.161595
| 16>   H                      4.848795             2.960356             -8.769228
| 17>   C                      1.742059             5.679924             -8.971994
| 18>   O                      3.127111             5.813905             -9.286515
| 19>   H                      3.180131             5.773078             -10.237820
| 20>   H                      1.430800             4.618980             -8.738060
| 21>   H                      1.491968             6.374196             -8.186645
| 22>   H                      1.099198             6.029533             -9.862843
| 23> *
| 24>
| 25> #Run DFT-D3 single point of the molecule with dimer basis set
| 26> $new_job
| 27> %base "16-97_DFT_A"
| 28> ! wB97X-D3 def2-TZVP TIGHTSCF CHELPG PMODEL
| 29>
| 30> %scf
| 31> MaxIter 1000
| 32> end
| 33>
| 34> * xyz 0 1
| 35>   C                      5.434958             2.875792             -9.733265
| 36>   O                      6.885886             2.877586             -9.509406
| 37>   H                      7.289825             2.013666             -9.590393
| 38>   H                      5.137906             3.799958             -10.234967
| 39>   H                      5.202899             1.890700             -10.161595
| 40>   H                      4.848795             2.960356             -8.769228
| 41>   C                    : 1.742059             5.679924             -8.971994
| 42>   O                    : 3.127111             5.813905             -9.286515
| 43>   H                    : 3.180131             5.773078             -10.237820
| 44>   H                    : 1.430800             4.618980             -8.738060
| 45>   H                    : 1.491968             6.374196             -8.186645
| 46>   H                    : 1.099198             6.029533             -9.862843
| 47> *
| 48>
| 49> #Run DFT-D3 single point of the particle with dimer basis set
| 50> $new_job
| 51> %base "16-97_DFT_B"
| 52> ! wB97X-D3 def2-TZVP TIGHTSCF CHELPG PMODEL
| 53>
| 54> %scf
| 55> MaxIter 1000
| 56> end
| 57>
| 58> * xyz 0 1
| 59>   C                    : 5.434958             2.875792             -9.733265
| 60>   O                    : 6.885886             2.877586             -9.509406
| 61>   H                    : 7.289825             2.013666             -9.590393
| 62>   H                    : 5.137906             3.799958             -10.234967
| 63>   H                    : 5.202899             1.890700             -10.161595
| 64>   H                    : 4.848795             2.960356             -8.769228
| 65>   C                      1.742059             5.679924             -8.971994
| 66>   O                      3.127111             5.813905             -9.286515
| 67>   H                      3.180131             5.773078             -10.237820
| 68>   H                      1.430800             4.618980             -8.738060
| 69>   H                      1.491968             6.374196             -8.186645
| 70>   H                      1.099198             6.029533             -9.862843
| 71> *
| 72>
| 73>                          ****END OF INPUT****
 Total Charge           Charge          ....    0
 Multiplicity           Mult            ....    1
 Number of Electrons    NEL             ....   36
Dispersion correction           -0.001344817
FINAL SINGLE POINT ENERGY      -231.460674280286
Dispersion correction           -0.000273540
FINAL SINGLE POINT ENERGY      -115.727243390202

CARTESIAN COORDINATES (ANGSTROEM)
---------------------------------
  C      5.434958    2.875792   -9.733265
  O      6.885886    2.877586   -9.509406
  H      7.289825    2.013666   -9.590393
  H      5.137906    3.799958  -10.234967
  H      5.202899    1.890700  -10.161595
  H      4.848795    2.960356   -8.769228
  C      1.742059    5.679924   -8.971994
  O      3.127111    5.813905   -9.286515
  H      3.180131    5.773078  -10.237820
  H      1.430800    4.618980   -8.738060
  H      1.491968    6.374196   -8.186645
  H      1.099198    6.029533   -9.862843

 Multiplicity           Mult            ....    1
 Number of Electrons    NEL             ....   18
 Basis Dimension        Dim             ....  172

ORBITAL ENERGIES
----------------

  NO   OCC          E(Eh)            E(eV)
   0   2.0000     -19.232594      -523.3455
   1   2.0000     -10.323464      -280.9157
   2   2.0000      -1.136853       -30.9353
   3   2.0000      -0.790566       -21.5124
   4   2.0000      -0.607870       -16.5410
   5   2.0000      -0.543074       -14.7778
   6   2.0000      -0.522058       -14.2059
   7   2.0000      -0.432158       -11.7596
   8   2.0000      -0.377395       -10.2695
   9   0.0000       0.091565         2.4916
  10   0.0000       0.116865         3.1801
  11   0.0000       0.149697         4.0735
  12   0.0000       0.170297         4.6340
  13   0.0000       0.196713         5.3528

MULLIKEN ATOMIC CHARGES
-----------------------
   0 C :    0.003916
   1 O :   -0.000186
   2 H :   -0.000024
   3 H :   -0.008063
   4 H :   -0.000195
   5 H :   -0.002465
   6 C :   -0.180531
   7 O :   -0.461478
   8 H :    0.317882
   9 H :    0.106167
  10 H :    0.124528
  11 H :    0.100450
Sum of atomic charges:    0.0000000

LOEWDIN ATOMIC CHARGES
----------------------
   0 C :   -0.004089
   1 O :   -0.000024
   2 H :   -0.000011
   3 H :   -0.004147
   4 H :   -0.000028
   5 H :   -0.001411
   6 C :   -0.386223
   7 O :   -0.077286
   8 H :    0.165976
   9 H :    0.101649
  10 H :    0.100657
  11 H :    0.104938

  Mayer bond orders larger than 0.1
B(  6-C ,  7-O ) :   1.0077 B(  6-C ,  9-H ) :   0.9649 B(  6-C , 10-H ) :   0.9729
B(  6-C , 11-H ) :   0.9842 B(  7-O ,  8-H ) :   0.9005

Dispersion correction           -0.000257745
FINAL SINGLE POINT ENERGY      -115.732763891850

DIPOLE MOMENT
-------------
                                X             Y             Z
Electronic contribution:      1.87502       0.14878      -0.13752
Nuclear contribution   :     -2.39334      -0.18769      -0.34526
                        -----------------------------------------
Total Dipole Moment    :     -0.51831      -0.03891      -0.48278
                        -----------------------------------------
Magnitude (a.u.)       :      0.70940
Magnitude (Debye)      :      1.80314

Rotational constants in cm-1:     4.117738     0.813436     0.790604
Rotational constants in MHz : 123446.673012 24386.205947 23701.699789

                             ****ORCA TERMINATED NORMALLY****
TOTAL RUN TIME: 0 days 0 hours 0 minutes 52 seconds 142 msec
