                         Program Version 4.1.2  - RELEASE  -
|  1> #Run DFT-D3 single point of the dimer
|  2> ! wB97X-D3 def2-TZVP TIGHTSCF CHELPG PMODEL PAL8
|  3>
|  4> %base "6-194_DFT_AB"
|  5>
|  6> %scf
|  7> MaxIter 1000
|  8> end
|  9>
| 10> * xyz 0 1
| 11>   C                      1.922953             -3.077625            2.484926
| 12>   O                      1.345528             -3.086113            1.131528
| 13>   H                      1.970459             -2.601192            0.562478
| 14>   H                      2.975251             -2.827903            2.476688
| 15>   H                      1.326520             -2.461149            3.132407
| 16>   H                      1.791371             -4.136435            2.840835
| 17>   C                      0.036738             -2.975285            -1.879113
| 18>   O                      -0.289875            -3.769806            -0.803203
| 19>   H                      -0.111579            -3.333165            0.069700
| 20>   H                      -0.020576            -3.523164            -2.818727
| 21>   H                      -0.692018            -2.146091            -1.976053
| 22>   H                      1.025757             -2.531572            -1.896348
| 23> *
| 24>
| 25> #Run DFT-D3 single point of the molecule with dimer basis set
| 26> $new_job
| 27> %base "6-194_DFT_A"
| 28> ! wB97X-D3 def2-TZVP TIGHTSCF CHELPG PMODEL
| 29>
| 30> %scf
| 31> MaxIter 1000
| 32> end
| 33>
| 34> * xyz 0 1
| 35>   C                      1.922953             -3.077625            2.484926
| 36>   O                      1.345528             -3.086113            1.131528
| 37>   H                      1.970459             -2.601192            0.562478
| 38>   H                      2.975251             -2.827903            2.476688
| 39>   H                      1.326520             -2.461149            3.132407
| 40>   H                      1.791371             -4.136435            2.840835
| 41>   C                    : 0.036738             -2.975285            -1.879113
| 42>   O                    : -0.289875            -3.769806            -0.803203
| 43>   H                    : -0.111579            -3.333165            0.069700
| 44>   H                    : -0.020576            -3.523164            -2.818727
| 45>   H                    : -0.692018            -2.146091            -1.976053
| 46>   H                    : 1.025757             -2.531572            -1.896348
| 47> *
| 48>
| 49> #Run DFT-D3 single point of the particle with dimer basis set
| 50> $new_job
| 51> %base "6-194_DFT_B"
| 52> ! wB97X-D3 def2-TZVP TIGHTSCF CHELPG PMODEL
| 53>
| 54> %scf
| 55> MaxIter 1000
| 56> end
| 57>
| 58> * xyz 0 1
| 59>   C                    : 1.922953             -3.077625            2.484926
| 60>   O                    : 1.345528             -3.086113            1.131528
| 61>   H                    : 1.970459             -2.601192            0.562478
| 62>   H                    : 2.975251             -2.827903            2.476688
| 63>   H                    : 1.326520             -2.461149            3.132407
| 64>   H                    : 1.791371             -4.136435            2.840835
| 65>   C                      0.036738             -2.975285            -1.879113
| 66>   O                      -0.289875            -3.769806            -0.803203
| 67>   H                      -0.111579            -3.333165            0.069700
| 68>   H                      -0.020576            -3.523164            -2.818727
| 69>   H                      -0.692018            -2.146091            -1.976053
| 70>   H                      1.025757             -2.531572            -1.896348
| 71> *
| 72>
| 73>                          ****END OF INPUT****
 Total Charge           Charge          ....    0
 Multiplicity           Mult            ....    1
 Number of Electrons    NEL             ....   36
Dispersion correction           -0.001712694
FINAL SINGLE POINT ENERGY      -231.470400344642
Dispersion correction           -0.000260909
FINAL SINGLE POINT ENERGY      -115.732707930757

CARTESIAN COORDINATES (ANGSTROEM)
---------------------------------
  C      1.922953   -3.077625    2.484926
  O      1.345528   -3.086113    1.131528
  H      1.970459   -2.601192    0.562478
  H      2.975251   -2.827903    2.476688
  H      1.326520   -2.461149    3.132407
  H      1.791371   -4.136435    2.840835
  C      0.036738   -2.975285   -1.879113
  O     -0.289875   -3.769806   -0.803203
  H     -0.111579   -3.333165    0.069700
  H     -0.020576   -3.523164   -2.818727
  H     -0.692018   -2.146091   -1.976053
  H      1.025757   -2.531572   -1.896348

 Multiplicity           Mult            ....    1
 Number of Electrons    NEL             ....   18
 Basis Dimension        Dim             ....  172

ORBITAL ENERGIES
----------------

  NO   OCC          E(Eh)            E(eV)
   0   2.0000     -19.234788      -523.4052
   1   2.0000     -10.309581      -280.5380
   2   2.0000      -1.140786       -31.0424
   3   2.0000      -0.795209       -21.6387
   4   2.0000      -0.617772       -16.8104
   5   2.0000      -0.542699       -14.7676
   6   2.0000      -0.532275       -14.4839
   7   2.0000      -0.425137       -11.5686
   8   2.0000      -0.371366       -10.1054
   9   0.0000       0.072545         1.9740
  10   0.0000       0.128680         3.5016
  11   0.0000       0.148679         4.0458
  12   0.0000       0.172344         4.6897
  13   0.0000       0.197244         5.3673

MULLIKEN ATOMIC CHARGES
-----------------------
   0 C :   -0.002753
   1 O :   -0.011066
   2 H :   -0.000110
   3 H :    0.000054
   4 H :    0.000029
   5 H :    0.000135
   6 C :   -0.154399
   7 O :   -0.465464
   8 H :    0.325120
   9 H :    0.117231
  10 H :    0.093356
  11 H :    0.097866
Sum of atomic charges:    0.0000000

LOEWDIN ATOMIC CHARGES
----------------------
   0 C :   -0.002292
   1 O :   -0.034085
   2 H :   -0.004182
   3 H :   -0.000059
   4 H :   -0.000096
   5 H :   -0.000112
   6 C :   -0.417296
   7 O :   -0.041502
   8 H :    0.204960
   9 H :    0.108346
  10 H :    0.094947
  11 H :    0.091371

  Mayer bond orders larger than 0.1
B(  6-C ,  7-O ) :   1.0139 B(  6-C ,  9-H ) :   0.9713 B(  6-C , 10-H ) :   0.9876
B(  6-C , 11-H ) :   0.9693 B(  7-O ,  8-H ) :   0.8846

Dispersion correction           -0.000251975
FINAL SINGLE POINT ENERGY      -115.734047986764

DIPOLE MOMENT
-------------
                                X             Y             Z
Electronic contribution:     -0.40940      -1.22469       1.40228
Nuclear contribution   :      0.65436       1.78381      -1.27444
                        -----------------------------------------
Total Dipole Moment    :      0.24496       0.55912       0.12785
                        -----------------------------------------
Magnitude (a.u.)       :      0.62367
Magnitude (Debye)      :      1.58524

Rotational constants in cm-1:     4.429991     0.848823     0.821377
Rotational constants in MHz : 132807.785945 25447.066934 24624.269646

                             ****ORCA TERMINATED NORMALLY****
TOTAL RUN TIME: 0 days 0 hours 1 minutes 8 seconds 900 msec
