                         Program Version 4.1.2  - RELEASE  -
|  1> #Run DFT-D3 single point of the dimer
|  2> ! wB97X-D3 def2-TZVP TIGHTSCF CHELPG PMODEL PAL8
|  3>
|  4> %base "6-74_DFT_AB"
|  5>
|  6> %scf
|  7> MaxIter 1000
|  8> end
|  9>
| 10> * xyz 0 1
| 11>   C                      -3.007502            9.442801             -7.537317
| 12>   O                      -3.771246            10.636848            -7.389227
| 13>   H                      -4.466168            10.347383            -6.812460
| 14>   H                      -3.662800            8.684267             -8.136335
| 15>   H                      -2.027431            9.581203             -7.950742
| 16>   H                      -2.782450            9.003005             -6.589918
| 17>   C                      1.054554             7.166949             -10.057511
| 18>   O                      0.013884             7.930987             -9.509324
| 19>   H                      0.122709             8.774668             -9.988812
| 20>   H                      0.604711             6.235615             -10.439637
| 21>   H                      1.505781             7.688542             -10.914145
| 22>   H                      1.946637             7.027048             -9.366863
| 23> *
| 24>
| 25> #Run DFT-D3 single point of the molecule with dimer basis set
| 26> $new_job
| 27> %base "6-74_DFT_A"
| 28> ! wB97X-D3 def2-TZVP TIGHTSCF CHELPG PMODEL
| 29>
| 30> %scf
| 31> MaxIter 1000
| 32> end
| 33>
| 34> * xyz 0 1
| 35>   C                      -3.007502            9.442801             -7.537317
| 36>   O                      -3.771246            10.636848            -7.389227
| 37>   H                      -4.466168            10.347383            -6.812460
| 38>   H                      -3.662800            8.684267             -8.136335
| 39>   H                      -2.027431            9.581203             -7.950742
| 40>   H                      -2.782450            9.003005             -6.589918
| 41>   C                    : 1.054554             7.166949             -10.057511
| 42>   O                    : 0.013884             7.930987             -9.509324
| 43>   H                    : 0.122709             8.774668             -9.988812
| 44>   H                    : 0.604711             6.235615             -10.439637
| 45>   H                    : 1.505781             7.688542             -10.914145
| 46>   H                    : 1.946637             7.027048             -9.366863
| 47> *
| 48>
| 49> #Run DFT-D3 single point of the particle with dimer basis set
| 50> $new_job
| 51> %base "6-74_DFT_B"
| 52> ! wB97X-D3 def2-TZVP TIGHTSCF CHELPG PMODEL
| 53>
| 54> %scf
| 55> MaxIter 1000
| 56> end
| 57>
| 58> * xyz 0 1
| 59>   C                    : -3.007502            9.442801             -7.537317
| 60>   O                    : -3.771246            10.636848            -7.389227
| 61>   H                    : -4.466168            10.347383            -6.812460
| 62>   H                    : -3.662800            8.684267             -8.136335
| 63>   H                    : -2.027431            9.581203             -7.950742
| 64>   H                    : -2.782450            9.003005             -6.589918
| 65>   C                      1.054554             7.166949             -10.057511
| 66>   O                      0.013884             7.930987             -9.509324
| 67>   H                      0.122709             8.774668             -9.988812
| 68>   H                      0.604711             6.235615             -10.439637
| 69>   H                      1.505781             7.688542             -10.914145
| 70>   H                      1.946637             7.027048             -9.366863
| 71> *
| 72>
| 73>                          ****END OF INPUT****
 Total Charge           Charge          ....    0
 Multiplicity           Mult            ....    1
 Number of Electrons    NEL             ....   36
Dispersion correction           -0.001006355
FINAL SINGLE POINT ENERGY      -231.460670446349
Dispersion correction           -0.000226279
FINAL SINGLE POINT ENERGY      -115.729022671901

CARTESIAN COORDINATES (ANGSTROEM)
---------------------------------
  C     -3.007502    9.442801   -7.537317
  O     -3.771246   10.636848   -7.389227
  H     -4.466168   10.347383   -6.812460
  H     -3.662800    8.684267   -8.136335
  H     -2.027431    9.581203   -7.950742
  H     -2.782450    9.003005   -6.589918
  C      1.054554    7.166949  -10.057511
  O      0.013884    7.930987   -9.509324
  H      0.122709    8.774668   -9.988812
  H      0.604711    6.235615  -10.439637
  H      1.505781    7.688542  -10.914145
  H      1.946637    7.027048   -9.366863

 Multiplicity           Mult            ....    1
 Number of Electrons    NEL             ....   18
 Basis Dimension        Dim             ....  172

ORBITAL ENERGIES
----------------

  NO   OCC          E(Eh)            E(eV)
   0   2.0000     -19.234142      -523.3876
   1   2.0000     -10.318553      -280.7821
   2   2.0000      -1.142767       -31.0963
   3   2.0000      -0.785718       -21.3805
   4   2.0000      -0.615078       -16.7371
   5   2.0000      -0.544768       -14.8239
   6   2.0000      -0.520391       -14.1606
   7   2.0000      -0.434821       -11.8321
   8   2.0000      -0.374580       -10.1928
   9   0.0000       0.093535         2.5452
  10   0.0000       0.111284         3.0282
  11   0.0000       0.151853         4.1321
  12   0.0000       0.181804         4.9471
  13   0.0000       0.196285         5.3412

MULLIKEN ATOMIC CHARGES
-----------------------
   0 C :    0.001057
   1 O :   -0.000038
   2 H :   -0.000007
   3 H :   -0.000263
   4 H :   -0.004173
   5 H :   -0.000301
   6 C :   -0.173593
   7 O :   -0.452090
   8 H :    0.319667
   9 H :    0.111891
  10 H :    0.097647
  11 H :    0.100204
Sum of atomic charges:   -0.0000000

LOEWDIN ATOMIC CHARGES
----------------------
   0 C :   -0.002020
   1 O :   -0.000014
   2 H :   -0.000006
   3 H :   -0.000153
   4 H :   -0.002687
   5 H :   -0.000055
   6 C :   -0.407480
   7 O :   -0.075068
   8 H :    0.185312
   9 H :    0.104048
  10 H :    0.094646
  11 H :    0.103476

  Mayer bond orders larger than 0.1
B(  6-C ,  7-O ) :   1.0132 B(  6-C ,  9-H ) :   0.9768 B(  6-C , 10-H ) :   0.9887
B(  6-C , 11-H ) :   0.9650 B(  7-O ,  8-H ) :   0.8981

Dispersion correction           -0.000236568
FINAL SINGLE POINT ENERGY      -115.730220125658

DIPOLE MOMENT
-------------
                                X             Y             Z
Electronic contribution:     -1.45703       0.82558       0.87423
Nuclear contribution   :      1.91082      -0.55872      -1.41607
                        -----------------------------------------
Total Dipole Moment    :      0.45379       0.26686      -0.54184
                        -----------------------------------------
Magnitude (a.u.)       :      0.75547
Magnitude (Debye)      :      1.92025

Rotational constants in cm-1:     4.084327     0.843385     0.818210
Rotational constants in MHz : 122445.050854 25284.032610 24529.328332

                             ****ORCA TERMINATED NORMALLY****
TOTAL RUN TIME: 0 days 0 hours 1 minutes 4 seconds 169 msec
