                         Program Version 4.1.2  - RELEASE  -
|  1> #Run DFT-D3 single point of the dimer
|  2> ! wB97X-D3 def2-TZVP TIGHTSCF CHELPG PMODEL PAL8
|  3>
|  4> %base "1-30_DFT_AB"
|  5>
|  6> %scf
|  7> MaxIter 1000
|  8> end
|  9>
| 10> * xyz 0 1
| 11>   C                      -2.354992            4.220558             -11.114118
| 12>   O                      -3.266662            5.290288             -11.142796
| 13>   H                      -4.137291            4.981376             -11.457363
| 14>   H                      -1.583191            4.453698             -10.358504
| 15>   H                      -2.862234            3.277000             -10.825924
| 16>   H                      -1.849931            4.156217             -12.122973
| 17>   C                      -5.418018            -0.007236            -10.923150
| 18>   O                      -5.591947            0.277668             -9.601627
| 19>   H                      -6.368987            -0.173418            -9.187840
| 20>   H                      -5.751665            -0.998123            -11.135027
| 21>   H                      -6.004835            0.665018             -11.547061
| 22>   H                      -4.359219            -0.088258            -11.079899
| 23> *
| 24>
| 25> #Run DFT-D3 single point of the molecule with dimer basis set
| 26> $new_job
| 27> %base "1-30_DFT_A"
| 28> ! wB97X-D3 def2-TZVP TIGHTSCF CHELPG PMODEL
| 29>
| 30> %scf
| 31> MaxIter 1000
| 32> end
| 33>
| 34> * xyz 0 1
| 35>   C                      -2.354992            4.220558             -11.114118
| 36>   O                      -3.266662            5.290288             -11.142796
| 37>   H                      -4.137291            4.981376             -11.457363
| 38>   H                      -1.583191            4.453698             -10.358504
| 39>   H                      -2.862234            3.277000             -10.825924
| 40>   H                      -1.849931            4.156217             -12.122973
| 41>   C                    : -5.418018            -0.007236            -10.923150
| 42>   O                    : -5.591947            0.277668             -9.601627
| 43>   H                    : -6.368987            -0.173418            -9.187840
| 44>   H                    : -5.751665            -0.998123            -11.135027
| 45>   H                    : -6.004835            0.665018             -11.547061
| 46>   H                    : -4.359219            -0.088258            -11.079899
| 47> *
| 48>
| 49> #Run DFT-D3 single point of the particle with dimer basis set
| 50> $new_job
| 51> %base "1-30_DFT_B"
| 52> ! wB97X-D3 def2-TZVP TIGHTSCF CHELPG PMODEL
| 53>
| 54> %scf
| 55> MaxIter 1000
| 56> end
| 57>
| 58> * xyz 0 1
| 59>   C                    : -2.354992            4.220558             -11.114118
| 60>   O                    : -3.266662            5.290288             -11.142796
| 61>   H                    : -4.137291            4.981376             -11.457363
| 62>   H                    : -1.583191            4.453698             -10.358504
| 63>   H                    : -2.862234            3.277000             -10.825924
| 64>   H                    : -1.849931            4.156217             -12.122973
| 65>   C                      -5.418018            -0.007236            -10.923150
| 66>   O                      -5.591947            0.277668             -9.601627
| 67>   H                      -6.368987            -0.173418            -9.187840
| 68>   H                      -5.751665            -0.998123            -11.135027
| 69>   H                      -6.004835            0.665018             -11.547061
| 70>   H                      -4.359219            -0.088258            -11.079899
| 71> *
| 72>
| 73>                          ****END OF INPUT****
 Total Charge           Charge          ....    0
 Multiplicity           Mult            ....    1
 Number of Electrons    NEL             ....   36
Dispersion correction           -0.000754367
FINAL SINGLE POINT ENERGY      -231.464157944826
Dispersion correction           -0.000244943
FINAL SINGLE POINT ENERGY      -115.734834463223

CARTESIAN COORDINATES (ANGSTROEM)
---------------------------------
  C     -2.354992    4.220558  -11.114118
  O     -3.266662    5.290288  -11.142796
  H     -4.137291    4.981376  -11.457363
  H     -1.583191    4.453698  -10.358504
  H     -2.862234    3.277000  -10.825924
  H     -1.849931    4.156217  -12.122973
  C     -5.418018   -0.007236  -10.923150
  O     -5.591947    0.277668   -9.601627
  H     -6.368987   -0.173418   -9.187840
  H     -5.751665   -0.998123  -11.135027
  H     -6.004835    0.665018  -11.547061
  H     -4.359219   -0.088258  -11.079899

 Multiplicity           Mult            ....    1
 Number of Electrons    NEL             ....   18
 Basis Dimension        Dim             ....  172

ORBITAL ENERGIES
----------------

  NO   OCC          E(Eh)            E(eV)
   0   2.0000     -19.225517      -523.1529
   1   2.0000     -10.301714      -280.3239
   2   2.0000      -1.142022       -31.0760
   3   2.0000      -0.795562       -21.6483
   4   2.0000      -0.618847       -16.8397
   5   2.0000      -0.559999       -15.2383
   6   2.0000      -0.524550       -14.2737
   7   2.0000      -0.417039       -11.3482
   8   2.0000      -0.370092       -10.0707
   9   0.0000       0.091139         2.4800
  10   0.0000       0.112803         3.0695
  11   0.0000       0.156591         4.2610
  12   0.0000       0.167982         4.5710
  13   0.0000       0.191745         5.2176

MULLIKEN ATOMIC CHARGES
-----------------------
   0 C :   -0.000250
   1 O :    0.000003
   2 H :   -0.000006
   3 H :    0.000006
   4 H :    0.000363
   5 H :    0.000013
   6 C :   -0.128825
   7 O :   -0.489455
   8 H :    0.321222
   9 H :    0.092405
  10 H :    0.090606
  11 H :    0.113919
Sum of atomic charges:   -0.0000000

LOEWDIN ATOMIC CHARGES
----------------------
   0 C :   -0.000052
   1 O :   -0.000002
   2 H :   -0.000004
   3 H :   -0.000000
   4 H :   -0.000076
   5 H :   -0.000001
   6 C :   -0.416972
   7 O :   -0.058073
   8 H :    0.186724
   9 H :    0.088836
  10 H :    0.093835
  11 H :    0.105785

  Mayer bond orders larger than 0.1
B(  6-C ,  7-O ) :   1.0010 B(  6-C ,  9-H ) :   0.9896 B(  6-C , 10-H ) :   0.9754
B(  6-C , 11-H ) :   0.9733 B(  7-O ,  8-H ) :   0.8880

Dispersion correction           -0.000221978
FINAL SINGLE POINT ENERGY      -115.728704928836

DIPOLE MOMENT
-------------
                                X             Y             Z
Electronic contribution:     -0.09734       0.54150       1.63032
Nuclear contribution   :     -0.34146      -0.99553      -1.85763
                        -----------------------------------------
Total Dipole Moment    :     -0.43880      -0.45403      -0.22732
                        -----------------------------------------
Magnitude (a.u.)       :      0.67109
Magnitude (Debye)      :      1.70579

Rotational constants in cm-1:     4.362636     0.879407     0.857698
Rotational constants in MHz : 130788.540465 26363.957329 25713.133805

                             ****ORCA TERMINATED NORMALLY****
TOTAL RUN TIME: 0 days 0 hours 4 minutes 15 seconds 233 msec
