                         Program Version 4.1.2  - RELEASE  -
|  1> #Run DFT-D3 single point of the dimer
|  2> ! wB97X-D3 def2-TZVP TIGHTSCF CHELPG PMODEL PAL8
|  3>
|  4> %base "22-50_DFT_AB"
|  5>
|  6> %scf
|  7> MaxIter 1000
|  8> end
|  9>
| 10> * xyz 0 1
| 11>   C                      5.509219             -5.286384            -2.629828
| 12>   O                      6.356411             -4.322206            -3.312786
| 13>   H                      5.806492             -3.659072            -3.753185
| 14>   H                      4.710320             -5.785805            -3.279945
| 15>   H                      6.199272             -6.152955            -2.356879
| 16>   H                      4.910016             -4.863904            -1.771712
| 17>   C                      9.218978             -7.987972            -5.915427
| 18>   O                      9.819521             -9.176341            -5.595037
| 19>   H                      10.185162            -9.170977            -4.710851
| 20>   H                      8.622314             -7.578588            -5.051792
| 21>   H                      9.991690             -7.261423            -6.133714
| 22>   H                      8.580099             -8.173163            -6.801020
| 23> *
| 24>
| 25> #Run DFT-D3 single point of the molecule with dimer basis set
| 26> $new_job
| 27> %base "22-50_DFT_A"
| 28> ! wB97X-D3 def2-TZVP TIGHTSCF CHELPG PMODEL
| 29>
| 30> %scf
| 31> MaxIter 1000
| 32> end
| 33>
| 34> * xyz 0 1
| 35>   C                      5.509219             -5.286384            -2.629828
| 36>   O                      6.356411             -4.322206            -3.312786
| 37>   H                      5.806492             -3.659072            -3.753185
| 38>   H                      4.710320             -5.785805            -3.279945
| 39>   H                      6.199272             -6.152955            -2.356879
| 40>   H                      4.910016             -4.863904            -1.771712
| 41>   C                    : 9.218978             -7.987972            -5.915427
| 42>   O                    : 9.819521             -9.176341            -5.595037
| 43>   H                    : 10.185162            -9.170977            -4.710851
| 44>   H                    : 8.622314             -7.578588            -5.051792
| 45>   H                    : 9.991690             -7.261423            -6.133714
| 46>   H                    : 8.580099             -8.173163            -6.801020
| 47> *
| 48>
| 49> #Run DFT-D3 single point of the particle with dimer basis set
| 50> $new_job
| 51> %base "22-50_DFT_B"
| 52> ! wB97X-D3 def2-TZVP TIGHTSCF CHELPG PMODEL
| 53>
| 54> %scf
| 55> MaxIter 1000
| 56> end
| 57>
| 58> * xyz 0 1
| 59>   C                    : 5.509219             -5.286384            -2.629828
| 60>   O                    : 6.356411             -4.322206            -3.312786
| 61>   H                    : 5.806492             -3.659072            -3.753185
| 62>   H                    : 4.710320             -5.785805            -3.279945
| 63>   H                    : 6.199272             -6.152955            -2.356879
| 64>   H                    : 4.910016             -4.863904            -1.771712
| 65>   C                      9.218978             -7.987972            -5.915427
| 66>   O                      9.819521             -9.176341            -5.595037
| 67>   H                      10.185162            -9.170977            -4.710851
| 68>   H                      8.622314             -7.578588            -5.051792
| 69>   H                      9.991690             -7.261423            -6.133714
| 70>   H                      8.580099             -8.173163            -6.801020
| 71> *
| 72>
| 73>                          ****END OF INPUT****
 Total Charge           Charge          ....    0
 Multiplicity           Mult            ....    1
 Number of Electrons    NEL             ....   36
Dispersion correction           -0.000716526
FINAL SINGLE POINT ENERGY      -231.464360772026
Dispersion correction           -0.000300120
FINAL SINGLE POINT ENERGY      -115.730036582245

CARTESIAN COORDINATES (ANGSTROEM)
---------------------------------
  C      5.509219   -5.286384   -2.629828
  O      6.356411   -4.322206   -3.312786
  H      5.806492   -3.659072   -3.753185
  H      4.710320   -5.785805   -3.279945
  H      6.199272   -6.152955   -2.356879
  H      4.910016   -4.863904   -1.771712
  C      9.218978   -7.987972   -5.915427
  O      9.819521   -9.176341   -5.595037
  H     10.185162   -9.170977   -4.710851
  H      8.622314   -7.578588   -5.051792
  H      9.991690   -7.261423   -6.133714
  H      8.580099   -8.173163   -6.801020

 Multiplicity           Mult            ....    1
 Number of Electrons    NEL             ....   18
 Basis Dimension        Dim             ....  172

ORBITAL ENERGIES
----------------

  NO   OCC          E(Eh)            E(eV)
   0   2.0000     -19.225422      -523.1503
   1   2.0000     -10.312324      -280.6126
   2   2.0000      -1.147870       -31.2351
   3   2.0000      -0.792079       -21.5536
   4   2.0000      -0.618550       -16.8316
   5   2.0000      -0.545427       -14.8418
   6   2.0000      -0.531912       -14.4740
   7   2.0000      -0.426567       -11.6075
   8   2.0000      -0.367450        -9.9988
   9   0.0000       0.081139         2.2079
  10   0.0000       0.114757         3.1227
  11   0.0000       0.153610         4.1799
  12   0.0000       0.162607         4.4248
  13   0.0000       0.178679         4.8621

MULLIKEN ATOMIC CHARGES
-----------------------
   0 C :   -0.000061
   1 O :    0.000013
   2 H :    0.000001
   3 H :   -0.000005
   4 H :   -0.000095
   5 H :   -0.000006
   6 C :   -0.146843
   7 O :   -0.475064
   8 H :    0.316550
   9 H :    0.092608
  10 H :    0.096366
  11 H :    0.116537
Sum of atomic charges:   -0.0000000

LOEWDIN ATOMIC CHARGES
----------------------
   0 C :   -0.000130
   1 O :   -0.000014
   2 H :   -0.000002
   3 H :   -0.000005
   4 H :   -0.000117
   5 H :   -0.000003
   6 C :   -0.418421
   7 O :   -0.048232
   8 H :    0.167856
   9 H :    0.097337
  10 H :    0.089671
  11 H :    0.112059

  Mayer bond orders larger than 0.1
B(  6-C ,  7-O ) :   0.9967 B(  6-C ,  9-H ) :   0.9798 B(  6-C , 10-H ) :   0.9778
B(  6-C , 11-H ) :   0.9709 B(  7-O ,  8-H ) :   0.8950

Dispersion correction           -0.000222634
FINAL SINGLE POINT ENERGY      -115.733815622697

DIPOLE MOMENT
-------------
                                X             Y             Z
Electronic contribution:      0.72690      -1.58667       0.26240
Nuclear contribution   :     -0.70826       2.02756       0.19245
                        -----------------------------------------
Total Dipole Moment    :      0.01864       0.44089       0.45486
                        -----------------------------------------
Magnitude (a.u.)       :      0.63374
Magnitude (Debye)      :      1.61085

Rotational constants in cm-1:     4.195385     0.879942     0.841534
Rotational constants in MHz : 125774.473449 26380.004576 25228.546844

                             ****ORCA TERMINATED NORMALLY****
TOTAL RUN TIME: 0 days 0 hours 0 minutes 52 seconds 527 msec
