                         Program Version 4.1.2  - RELEASE  -
|  1> #Run DFT-D3 single point of the dimer
|  2> ! wB97X-D3 def2-TZVP TIGHTSCF  CHELPG PAL8
|  3>
|  4> %base "38_charges"
|  5>
|  6> %scf
|  7> MaxIter 1000
|  8> end
|  9> %output
| 10>   Print[ P_Mayer ] 1
| 11>   Print[ P_NatPop ] 1
| 12>   Print[ P_Hirshfeld ] 1
| 13>   Print[ P_Mulliken ] 1
| 14>   Print [ P_Loewdin ] 1
| 15> end
| 16>
| 17> * xyz 0 1
| 18>   C                      -0.045250            -8.769703            10.129262
| 19>   O                      -0.711824            -9.562924            9.105138
| 20>   H                      -1.361612            -8.980587            8.737988
| 21>   H                      0.637919             -9.437258            10.673104
| 22>   H                      0.634481             -7.941675            9.761795
| 23>   H                      -0.761298            -8.363546            10.823555
| 24> *
| 25>
| 26>                          ****END OF INPUT****

CARTESIAN COORDINATES (ANGSTROEM)
---------------------------------
  C     -0.045250   -8.769703   10.129262
  O     -0.711824   -9.562924    9.105138
  H     -1.361612   -8.980587    8.737988
  H      0.637919   -9.437258   10.673104
  H      0.634481   -7.941675    9.761795
  H     -0.761298   -8.363546   10.823555

 Total Charge           Charge          ....    0
 Multiplicity           Mult            ....    1
 Number of Electrons    NEL             ....   18
 Basis Dimension        Dim             ....   86

ORBITAL ENERGIES
----------------

  NO   OCC          E(Eh)            E(eV)
   0   2.0000     -19.232165      -523.3338
   1   2.0000     -10.319668      -280.8124
   2   2.0000      -1.129518       -30.7358
   3   2.0000      -0.795906       -21.6577
   4   2.0000      -0.604585       -16.4516
   5   2.0000      -0.538742       -14.6599
   6   2.0000      -0.517049       -14.0696
   7   2.0000      -0.441309       -12.0086
   8   2.0000      -0.377943       -10.2844
   9   0.0000       0.117160         3.1881
  10   0.0000       0.149836         4.0772
  11   0.0000       0.199258         5.4221
  12   0.0000       0.203121         5.5272
  13   0.0000       0.221899         6.0382

MULLIKEN ATOMIC CHARGES
-----------------------
   0 C :   -0.181757
   1 O :   -0.468489
   2 H :    0.309519
   3 H :    0.122192
   4 H :    0.104267
   5 H :    0.114268
Sum of atomic charges:    0.0000000

LOEWDIN ATOMIC CHARGES
----------------------
   0 C :   -0.363451
   1 O :   -0.097390
   2 H :    0.156868
   3 H :    0.109727
   4 H :    0.101816
   5 H :    0.092431

  Mayer bond orders larger than 0.1
B(  0-C ,  1-O ) :   1.0004 B(  0-C ,  3-H ) :   0.9764 B(  0-C ,  4-H ) :   0.9655
B(  0-C ,  5-H ) :   0.9755 B(  1-O ,  2-H ) :   0.9072

Dispersion correction           -0.000266032
FINAL SINGLE POINT ENERGY      -115.733823936889

DIPOLE MOMENT
-------------
                                X             Y             Z
Electronic contribution:     -0.83475      -1.09474      -1.27826
Nuclear contribution   :      0.69531       1.77203       1.48468
                        -----------------------------------------
Total Dipole Moment    :     -0.13944       0.67729       0.20642
                        -----------------------------------------
Magnitude (a.u.)       :      0.72165
Magnitude (Debye)      :      1.83429

Rotational constants in cm-1:     4.276918     0.788724     0.763666
Rotational constants in MHz : 128218.775308 23645.360117 22894.132304

                             ****ORCA TERMINATED NORMALLY****
TOTAL RUN TIME: 0 days 0 hours 0 minutes 41 seconds 946 msec
