                         Program Version 4.1.2  - RELEASE  -
|  1> #Run DFT-D3 single point of the dimer
|  2> ! wB97X-D3 def2-TZVP TIGHTSCF CHELPG PMODEL PAL8
|  3>
|  4> %base "9-66_DFT_AB"
|  5>
|  6> %scf
|  7> MaxIter 1000
|  8> end
|  9>
| 10> * xyz 0 1
| 11>   C                      8.125646             0.140868             0.205538
| 12>   O                      9.020085             0.985751             0.913121
| 13>   H                      8.829592             1.132982             1.835882
| 14>   H                      7.075105             0.521568             0.141395
| 15>   H                      8.639908             -0.057721            -0.755773
| 16>   H                      8.148752             -0.882839            0.640323
| 17>   C                      5.169951             -2.392256            4.426165
| 18>   O                      5.050276             -1.626652            5.567194
| 19>   H                      5.002982             -2.195026            6.310976
| 20>   H                      4.576403             -3.364558            4.442787
| 21>   H                      4.923934             -1.717072            3.609020
| 22>   H                      6.212556             -2.725092            4.253027
| 23> *
| 24>
| 25> #Run DFT-D3 single point of the molecule with dimer basis set
| 26> $new_job
| 27> %base "9-66_DFT_A"
| 28> ! wB97X-D3 def2-TZVP TIGHTSCF CHELPG PMODEL
| 29>
| 30> %scf
| 31> MaxIter 1000
| 32> end
| 33>
| 34> * xyz 0 1
| 35>   C                      8.125646             0.140868             0.205538
| 36>   O                      9.020085             0.985751             0.913121
| 37>   H                      8.829592             1.132982             1.835882
| 38>   H                      7.075105             0.521568             0.141395
| 39>   H                      8.639908             -0.057721            -0.755773
| 40>   H                      8.148752             -0.882839            0.640323
| 41>   C                    : 5.169951             -2.392256            4.426165
| 42>   O                    : 5.050276             -1.626652            5.567194
| 43>   H                    : 5.002982             -2.195026            6.310976
| 44>   H                    : 4.576403             -3.364558            4.442787
| 45>   H                    : 4.923934             -1.717072            3.609020
| 46>   H                    : 6.212556             -2.725092            4.253027
| 47> *
| 48>
| 49> #Run DFT-D3 single point of the particle with dimer basis set
| 50> $new_job
| 51> %base "9-66_DFT_B"
| 52> ! wB97X-D3 def2-TZVP TIGHTSCF CHELPG PMODEL
| 53>
| 54> %scf
| 55> MaxIter 1000
| 56> end
| 57>
| 58> * xyz 0 1
| 59>   C                    : 8.125646             0.140868             0.205538
| 60>   O                    : 9.020085             0.985751             0.913121
| 61>   H                    : 8.829592             1.132982             1.835882
| 62>   H                    : 7.075105             0.521568             0.141395
| 63>   H                    : 8.639908             -0.057721            -0.755773
| 64>   H                    : 8.148752             -0.882839            0.640323
| 65>   C                      5.169951             -2.392256            4.426165
| 66>   O                      5.050276             -1.626652            5.567194
| 67>   H                      5.002982             -2.195026            6.310976
| 68>   H                      4.576403             -3.364558            4.442787
| 69>   H                      4.923934             -1.717072            3.609020
| 70>   H                      6.212556             -2.725092            4.253027
| 71> *
| 72>
| 73>                          ****END OF INPUT****
 Total Charge           Charge          ....    0
 Multiplicity           Mult            ....    1
 Number of Electrons    NEL             ....   36
Dispersion correction           -0.000655511
FINAL SINGLE POINT ENERGY      -231.465111979797
Dispersion correction           -0.000272531
FINAL SINGLE POINT ENERGY      -115.731674635510

CARTESIAN COORDINATES (ANGSTROEM)
---------------------------------
  C      8.125646    0.140868    0.205538
  O      9.020085    0.985751    0.913121
  H      8.829592    1.132982    1.835882
  H      7.075105    0.521568    0.141395
  H      8.639908   -0.057721   -0.755773
  H      8.148752   -0.882839    0.640323
  C      5.169951   -2.392256    4.426165
  O      5.050276   -1.626652    5.567194
  H      5.002982   -2.195026    6.310976
  H      4.576403   -3.364558    4.442787
  H      4.923934   -1.717072    3.609020
  H      6.212556   -2.725092    4.253027

 Multiplicity           Mult            ....    1
 Number of Electrons    NEL             ....   18
 Basis Dimension        Dim             ....  172

ORBITAL ENERGIES
----------------

  NO   OCC          E(Eh)            E(eV)
   0   2.0000     -19.228944      -523.2462
   1   2.0000     -10.315489      -280.6987
   2   2.0000      -1.152432       -31.3593
   3   2.0000      -0.793649       -21.5963
   4   2.0000      -0.622192       -16.9307
   5   2.0000      -0.535689       -14.5768
   6   2.0000      -0.531831       -14.4719
   7   2.0000      -0.437551       -11.9064
   8   2.0000      -0.368875       -10.0376
   9   0.0000       0.086085         2.3425
  10   0.0000       0.116397         3.1673
  11   0.0000       0.153714         4.1828
  12   0.0000       0.164927         4.4879
  13   0.0000       0.187744         5.1088

MULLIKEN ATOMIC CHARGES
-----------------------
   0 C :    0.000015
   1 O :    0.000000
   2 H :   -0.000003
   3 H :   -0.000011
   4 H :   -0.000002
   5 H :   -0.000051
   6 C :   -0.151670
   7 O :   -0.460853
   8 H :    0.310480
   9 H :    0.093726
  10 H :    0.119064
  11 H :    0.089303
Sum of atomic charges:   -0.0000000

LOEWDIN ATOMIC CHARGES
----------------------
   0 C :   -0.000016
   1 O :   -0.000000
   2 H :   -0.000001
   3 H :   -0.000006
   4 H :   -0.000000
   5 H :   -0.000025
   6 C :   -0.416364
   7 O :   -0.039850
   8 H :    0.155901
   9 H :    0.100145
  10 H :    0.108275
  11 H :    0.091943

  Mayer bond orders larger than 0.1
B(  6-C ,  7-O ) :   1.0065 B(  6-C ,  9-H ) :   0.9750 B(  6-C , 10-H ) :   0.9763
B(  6-C , 11-H ) :   0.9723 B(  7-O ,  8-H ) :   0.9043

Dispersion correction           -0.000236864
FINAL SINGLE POINT ENERGY      -115.733107619406

DIPOLE MOMENT
-------------
                                X             Y             Z
Electronic contribution:     -0.23793       1.14335       1.44863
Nuclear contribution   :      0.25292      -1.78359      -1.38275
                        -----------------------------------------
Total Dipole Moment    :      0.01499      -0.64023       0.06587
                        -----------------------------------------
Magnitude (a.u.)       :      0.64379
Magnitude (Debye)      :      1.63638

Rotational constants in cm-1:     4.223145     0.868996     0.827108
Rotational constants in MHz : 126606.706400 26051.850895 24796.070069

                             ****ORCA TERMINATED NORMALLY****
TOTAL RUN TIME: 0 days 0 hours 0 minutes 39 seconds 165 msec
