                         Program Version 4.1.2  - RELEASE  -
|  1> #Run DFT-D3 single point of the dimer
|  2> ! wB97X-D3 def2-TZVP TIGHTSCF CHELPG PMODEL PAL8
|  3>
|  4> %base "22-30_DFT_AB"
|  5>
|  6> %scf
|  7> MaxIter 1000
|  8> end
|  9>
| 10> * xyz 0 1
| 11>   C                      -7.103731            6.653923             -1.669574
| 12>   O                      -6.894566            5.210805             -1.789627
| 13>   H                      -7.334692            4.689197             -1.072243
| 14>   H                      -8.194465            6.918869             -1.815733
| 15>   H                      -6.801057            7.072376             -0.661411
| 16>   H                      -6.560077            7.160748             -2.438667
| 17>   C                      -8.834874            3.164755             -6.942499
| 18>   O                      -8.510381            4.027767             -5.913860
| 19>   H                      -7.614563            3.811434             -5.733662
| 20>   H                      -9.347348            2.242143             -6.621761
| 21>   H                      -9.521020            3.604805             -7.657690
| 22>   H                      -7.931253            2.856065             -7.511476
| 23> *
| 24>
| 25> #Run DFT-D3 single point of the molecule with dimer basis set
| 26> $new_job
| 27> %base "22-30_DFT_A"
| 28> ! wB97X-D3 def2-TZVP TIGHTSCF CHELPG PMODEL
| 29>
| 30> %scf
| 31> MaxIter 1000
| 32> end
| 33>
| 34> * xyz 0 1
| 35>   C                      -7.103731            6.653923             -1.669574
| 36>   O                      -6.894566            5.210805             -1.789627
| 37>   H                      -7.334692            4.689197             -1.072243
| 38>   H                      -8.194465            6.918869             -1.815733
| 39>   H                      -6.801057            7.072376             -0.661411
| 40>   H                      -6.560077            7.160748             -2.438667
| 41>   C                    : -8.834874            3.164755             -6.942499
| 42>   O                    : -8.510381            4.027767             -5.913860
| 43>   H                    : -7.614563            3.811434             -5.733662
| 44>   H                    : -9.347348            2.242143             -6.621761
| 45>   H                    : -9.521020            3.604805             -7.657690
| 46>   H                    : -7.931253            2.856065             -7.511476
| 47> *
| 48>
| 49> #Run DFT-D3 single point of the particle with dimer basis set
| 50> $new_job
| 51> %base "22-30_DFT_B"
| 52> ! wB97X-D3 def2-TZVP TIGHTSCF CHELPG PMODEL
| 53>
| 54> %scf
| 55> MaxIter 1000
| 56> end
| 57>
| 58> * xyz 0 1
| 59>   C                    : -7.103731            6.653923             -1.669574
| 60>   O                    : -6.894566            5.210805             -1.789627
| 61>   H                    : -7.334692            4.689197             -1.072243
| 62>   H                    : -8.194465            6.918869             -1.815733
| 63>   H                    : -6.801057            7.072376             -0.661411
| 64>   H                    : -6.560077            7.160748             -2.438667
| 65>   C                      -8.834874            3.164755             -6.942499
| 66>   O                      -8.510381            4.027767             -5.913860
| 67>   H                      -7.614563            3.811434             -5.733662
| 68>   H                      -9.347348            2.242143             -6.621761
| 69>   H                      -9.521020            3.604805             -7.657690
| 70>   H                      -7.931253            2.856065             -7.511476
| 71> *
| 72>
| 73>                          ****END OF INPUT****
 Total Charge           Charge          ....    0
 Multiplicity           Mult            ....    1
 Number of Electrons    NEL             ....   36
Dispersion correction           -0.000701170
FINAL SINGLE POINT ENERGY      -231.465374091929
Dispersion correction           -0.000295650
FINAL SINGLE POINT ENERGY      -115.731677228363

CARTESIAN COORDINATES (ANGSTROEM)
---------------------------------
  C     -7.103731    6.653923   -1.669574
  O     -6.894566    5.210805   -1.789627
  H     -7.334692    4.689197   -1.072243
  H     -8.194465    6.918869   -1.815733
  H     -6.801057    7.072376   -0.661411
  H     -6.560077    7.160748   -2.438667
  C     -8.834874    3.164755   -6.942499
  O     -8.510381    4.027767   -5.913860
  H     -7.614563    3.811434   -5.733662
  H     -9.347348    2.242143   -6.621761
  H     -9.521020    3.604805   -7.657690
  H     -7.931253    2.856065   -7.511476

 Multiplicity           Mult            ....    1
 Number of Electrons    NEL             ....   18
 Basis Dimension        Dim             ....  172

ORBITAL ENERGIES
----------------

  NO   OCC          E(Eh)            E(eV)
   0   2.0000     -19.232242      -523.3359
   1   2.0000     -10.312417      -280.6151
   2   2.0000      -1.156225       -31.4625
   3   2.0000      -0.793739       -21.5987
   4   2.0000      -0.621055       -16.8998
   5   2.0000      -0.541383       -14.7318
   6   2.0000      -0.536428       -14.5970
   7   2.0000      -0.437038       -11.8924
   8   2.0000      -0.373445       -10.1620
   9   0.0000       0.088100         2.3973
  10   0.0000       0.114835         3.1248
  11   0.0000       0.154795         4.2122
  12   0.0000       0.166754         4.5376
  13   0.0000       0.198970         5.4142

MULLIKEN ATOMIC CHARGES
-----------------------
   0 C :   -0.000154
   1 O :    0.000002
   2 H :   -0.000010
   3 H :    0.000009
   4 H :   -0.000002
   5 H :    0.000016
   6 C :   -0.173006
   7 O :   -0.449524
   8 H :    0.315796
   9 H :    0.094579
  10 H :    0.115140
  11 H :    0.097154
Sum of atomic charges:    0.0000000

LOEWDIN ATOMIC CHARGES
----------------------
   0 C :   -0.000048
   1 O :   -0.000024
   2 H :   -0.000010
   3 H :   -0.000006
   4 H :   -0.000002
   5 H :   -0.000003
   6 C :   -0.417003
   7 O :   -0.040051
   8 H :    0.163445
   9 H :    0.094090
  10 H :    0.101311
  11 H :    0.098301

  Mayer bond orders larger than 0.1
B(  6-C ,  7-O ) :   1.0155 B(  6-C ,  9-H ) :   0.9711 B(  6-C , 10-H ) :   0.9762
B(  6-C , 11-H ) :   0.9890 B(  7-O ,  8-H ) :   0.9044

Dispersion correction           -0.000229602
FINAL SINGLE POINT ENERGY      -115.733158671440

DIPOLE MOMENT
-------------
                                X             Y             Z
Electronic contribution:      0.30782       1.28906       1.44504
Nuclear contribution   :      0.15281      -1.72920      -1.71867
                        -----------------------------------------
Total Dipole Moment    :      0.46063      -0.44014      -0.27363
                        -----------------------------------------
Magnitude (a.u.)       :      0.69338
Magnitude (Debye)      :      1.76244

Rotational constants in cm-1:     4.348075     0.863486     0.828149
Rotational constants in MHz : 130352.003083 25886.651960 24827.268269

                             ****ORCA TERMINATED NORMALLY****
TOTAL RUN TIME: 0 days 0 hours 0 minutes 49 seconds 954 msec
