                         Program Version 4.1.2  - RELEASE  -
|  1> #Run DFT-D3 single point of the dimer
|  2> ! wB97X-D3 def2-TZVP TIGHTSCF CHELPG PMODEL PAL8
|  3>
|  4> %base "17-56_DFT_AB"
|  5>
|  6> %scf
|  7> MaxIter 1000
|  8> end
|  9>
| 10> * xyz 0 1
| 11>   C                      -8.719428            -0.806688            2.256153
| 12>   O                      -10.041191           -1.234781            2.494380
| 13>   H                      -10.144787           -1.521010            3.361301
| 14>   H                      -8.220031            -0.383521            3.209562
| 15>   H                      -8.128405            -1.587988            1.732554
| 16>   H                      -8.726105            0.059084             1.528395
| 17>   C                      -7.895082            -0.450816            -3.438418
| 18>   O                      -6.790914            -1.236352            -2.968042
| 19>   H                      -6.962837            -1.616194            -2.049960
| 20>   H                      -8.781143            -1.121909            -3.639668
| 21>   H                      -8.113031            0.359831             -2.751344
| 22>   H                      -7.681932            -0.008726            -4.411791
| 23> *
| 24>
| 25> #Run DFT-D3 single point of the molecule with dimer basis set
| 26> $new_job
| 27> %base "17-56_DFT_A"
| 28> ! wB97X-D3 def2-TZVP TIGHTSCF CHELPG PMODEL
| 29>
| 30> %scf
| 31> MaxIter 1000
| 32> end
| 33>
| 34> * xyz 0 1
| 35>   C                      -8.719428            -0.806688            2.256153
| 36>   O                      -10.041191           -1.234781            2.494380
| 37>   H                      -10.144787           -1.521010            3.361301
| 38>   H                      -8.220031            -0.383521            3.209562
| 39>   H                      -8.128405            -1.587988            1.732554
| 40>   H                      -8.726105            0.059084             1.528395
| 41>   C                    : -7.895082            -0.450816            -3.438418
| 42>   O                    : -6.790914            -1.236352            -2.968042
| 43>   H                    : -6.962837            -1.616194            -2.049960
| 44>   H                    : -8.781143            -1.121909            -3.639668
| 45>   H                    : -8.113031            0.359831             -2.751344
| 46>   H                    : -7.681932            -0.008726            -4.411791
| 47> *
| 48>
| 49> #Run DFT-D3 single point of the particle with dimer basis set
| 50> $new_job
| 51> %base "17-56_DFT_B"
| 52> ! wB97X-D3 def2-TZVP TIGHTSCF CHELPG PMODEL
| 53>
| 54> %scf
| 55> MaxIter 1000
| 56> end
| 57>
| 58> * xyz 0 1
| 59>   C                    : -8.719428            -0.806688            2.256153
| 60>   O                    : -10.041191           -1.234781            2.494380
| 61>   H                    : -10.144787           -1.521010            3.361301
| 62>   H                    : -8.220031            -0.383521            3.209562
| 63>   H                    : -8.128405            -1.587988            1.732554
| 64>   H                    : -8.726105            0.059084             1.528395
| 65>   C                      -7.895082            -0.450816            -3.438418
| 66>   O                      -6.790914            -1.236352            -2.968042
| 67>   H                      -6.962837            -1.616194            -2.049960
| 68>   H                      -8.781143            -1.121909            -3.639668
| 69>   H                      -8.113031            0.359831             -2.751344
| 70>   H                      -7.681932            -0.008726            -4.411791
| 71> *
| 72>
| 73>                          ****END OF INPUT****
 Total Charge           Charge          ....    0
 Multiplicity           Mult            ....    1
 Number of Electrons    NEL             ....   36
Dispersion correction           -0.000725856
FINAL SINGLE POINT ENERGY      -231.462826879180
Dispersion correction           -0.000267392
FINAL SINGLE POINT ENERGY      -115.730444145402

CARTESIAN COORDINATES (ANGSTROEM)
---------------------------------
  C     -8.719428   -0.806688    2.256153
  O    -10.041191   -1.234781    2.494380
  H    -10.144787   -1.521010    3.361301
  H     -8.220031   -0.383521    3.209562
  H     -8.128405   -1.587988    1.732554
  H     -8.726105    0.059084    1.528395
  C     -7.895082   -0.450816   -3.438418
  O     -6.790914   -1.236352   -2.968042
  H     -6.962837   -1.616194   -2.049960
  H     -8.781143   -1.121909   -3.639668
  H     -8.113031    0.359831   -2.751344
  H     -7.681932   -0.008726   -4.411791

 Multiplicity           Mult            ....    1
 Number of Electrons    NEL             ....   18
 Basis Dimension        Dim             ....  172

ORBITAL ENERGIES
----------------

  NO   OCC          E(Eh)            E(eV)
   0   2.0000     -19.231336      -523.3112
   1   2.0000     -10.317101      -280.7426
   2   2.0000      -1.117884       -30.4192
   3   2.0000      -0.792056       -21.5529
   4   2.0000      -0.597225       -16.2513
   5   2.0000      -0.542306       -14.7569
   6   2.0000      -0.524811       -14.2808
   7   2.0000      -0.423764       -11.5312
   8   2.0000      -0.372275       -10.1301
   9   0.0000       0.075820         2.0632
  10   0.0000       0.110337         3.0024
  11   0.0000       0.147801         4.0219
  12   0.0000       0.163209         4.4412
  13   0.0000       0.188847         5.1388

MULLIKEN ATOMIC CHARGES
-----------------------
   0 C :    0.000058
   1 O :   -0.000001
   2 H :   -0.000000
   3 H :   -0.000003
   4 H :   -0.000126
   5 H :   -0.000029
   6 C :   -0.155270
   7 O :   -0.495027
   8 H :    0.320406
   9 H :    0.100842
  10 H :    0.108534
  11 H :    0.120616
Sum of atomic charges:   -0.0000000

LOEWDIN ATOMIC CHARGES
----------------------
   0 C :   -0.000035
   1 O :   -0.000002
   2 H :   -0.000000
   3 H :   -0.000000
   4 H :   -0.000069
   5 H :   -0.000015
   6 C :   -0.375888
   7 O :   -0.119136
   8 H :    0.193131
   9 H :    0.101564
  10 H :    0.093252
  11 H :    0.107200

  Mayer bond orders larger than 0.1
B(  6-C ,  7-O ) :   0.9936 B(  6-C ,  9-H ) :   0.9776 B(  6-C , 10-H ) :   0.9747
B(  6-C , 11-H ) :   0.9708 B(  7-O ,  8-H ) :   0.8877

Dispersion correction           -0.000265219
FINAL SINGLE POINT ENERGY      -115.732129529779

DIPOLE MOMENT
-------------
                                X             Y             Z
Electronic contribution:      1.47408      -0.88331       0.50431
Nuclear contribution   :     -2.02687       0.98764      -0.13946
                        -----------------------------------------
Total Dipole Moment    :     -0.55278       0.10433       0.36485
                        -----------------------------------------
Magnitude (a.u.)       :      0.67050
Magnitude (Debye)      :      1.70427

Rotational constants in cm-1:     4.215488     0.799062     0.778904
Rotational constants in MHz : 126377.164935 23955.266502 23350.940537

                             ****ORCA TERMINATED NORMALLY****
TOTAL RUN TIME: 0 days 0 hours 1 minutes 5 seconds 139 msec
