                         Program Version 4.1.2  - RELEASE  -
|  1> #Run DFT-D3 single point of the dimer
|  2> ! wB97X-D3 def2-TZVP TIGHTSCF CHELPG PMODEL PAL8
|  3>
|  4> %base "9-118_DFT_AB"
|  5>
|  6> %scf
|  7> MaxIter 1000
|  8> end
|  9>
| 10> * xyz 0 1
| 11>   C                      5.356239             0.575091             7.861730
| 12>   O                      5.092971             1.322461             6.696982
| 13>   H                      4.968646             0.716571             5.949532
| 14>   H                      5.774221             1.189268             8.691426
| 15>   H                      4.499093             0.072589             8.225889
| 16>   H                      6.158912             -0.140826            7.547524
| 17>   C                      3.132644             3.222198             4.076111
| 18>   O                      3.585129             2.151059             3.263239
| 19>   H                      3.399874             1.306535             3.659591
| 20>   H                      3.644355             4.164192             3.816641
| 21>   H                      2.066095             3.216518             4.075413
| 22>   H                      3.409220             3.129167             5.137535
| 23> *
| 24>
| 25> #Run DFT-D3 single point of the molecule with dimer basis set
| 26> $new_job
| 27> %base "9-118_DFT_A"
| 28> ! wB97X-D3 def2-TZVP TIGHTSCF CHELPG PMODEL
| 29>
| 30> %scf
| 31> MaxIter 1000
| 32> end
| 33>
| 34> * xyz 0 1
| 35>   C                      5.356239             0.575091             7.861730
| 36>   O                      5.092971             1.322461             6.696982
| 37>   H                      4.968646             0.716571             5.949532
| 38>   H                      5.774221             1.189268             8.691426
| 39>   H                      4.499093             0.072589             8.225889
| 40>   H                      6.158912             -0.140826            7.547524
| 41>   C                    : 3.132644             3.222198             4.076111
| 42>   O                    : 3.585129             2.151059             3.263239
| 43>   H                    : 3.399874             1.306535             3.659591
| 44>   H                    : 3.644355             4.164192             3.816641
| 45>   H                    : 2.066095             3.216518             4.075413
| 46>   H                    : 3.409220             3.129167             5.137535
| 47> *
| 48>
| 49> #Run DFT-D3 single point of the particle with dimer basis set
| 50> $new_job
| 51> %base "9-118_DFT_B"
| 52> ! wB97X-D3 def2-TZVP TIGHTSCF CHELPG PMODEL
| 53>
| 54> %scf
| 55> MaxIter 1000
| 56> end
| 57>
| 58> * xyz 0 1
| 59>   C                    : 5.356239             0.575091             7.861730
| 60>   O                    : 5.092971             1.322461             6.696982
| 61>   H                    : 4.968646             0.716571             5.949532
| 62>   H                    : 5.774221             1.189268             8.691426
| 63>   H                    : 4.499093             0.072589             8.225889
| 64>   H                    : 6.158912             -0.140826            7.547524
| 65>   C                      3.132644             3.222198             4.076111
| 66>   O                      3.585129             2.151059             3.263239
| 67>   H                      3.399874             1.306535             3.659591
| 68>   H                      3.644355             4.164192             3.816641
| 69>   H                      2.066095             3.216518             4.075413
| 70>   H                      3.409220             3.129167             5.137535
| 71> *
| 72>
| 73>                          ****END OF INPUT****
 Total Charge           Charge          ....    0
 Multiplicity           Mult            ....    1
 Number of Electrons    NEL             ....   36
Dispersion correction           -0.001392070
FINAL SINGLE POINT ENERGY      -231.465656838628
Dispersion correction           -0.000228374
FINAL SINGLE POINT ENERGY      -115.732519471078

CARTESIAN COORDINATES (ANGSTROEM)
---------------------------------
  C      5.356239    0.575091    7.861730
  O      5.092971    1.322461    6.696982
  H      4.968646    0.716571    5.949532
  H      5.774221    1.189268    8.691426
  H      4.499093    0.072589    8.225889
  H      6.158912   -0.140826    7.547524
  C      3.132644    3.222198    4.076111
  O      3.585129    2.151059    3.263239
  H      3.399874    1.306535    3.659591
  H      3.644355    4.164192    3.816641
  H      2.066095    3.216518    4.075413
  H      3.409220    3.129167    5.137535

 Multiplicity           Mult            ....    1
 Number of Electrons    NEL             ....   18
 Basis Dimension        Dim             ....  172

ORBITAL ENERGIES
----------------

  NO   OCC          E(Eh)            E(eV)
   0   2.0000     -19.227620      -523.2102
   1   2.0000     -10.313016      -280.6314
   2   2.0000      -1.133866       -30.8541
   3   2.0000      -0.799477       -21.7549
   4   2.0000      -0.613803       -16.7024
   5   2.0000      -0.552869       -15.0443
   6   2.0000      -0.516364       -14.0510
   7   2.0000      -0.429295       -11.6817
   8   2.0000      -0.373310       -10.1583
   9   0.0000       0.079753         2.1702
  10   0.0000       0.118892         3.2352
  11   0.0000       0.151114         4.1120
  12   0.0000       0.177159         4.8207
  13   0.0000       0.190660         5.1881

MULLIKEN ATOMIC CHARGES
-----------------------
   0 C :    0.000224
   1 O :    0.000736
   2 H :   -0.003068
   3 H :   -0.000025
   4 H :    0.000005
   5 H :   -0.000012
   6 C :   -0.161207
   7 O :   -0.482791
   8 H :    0.315356
   9 H :    0.122779
  10 H :    0.111781
  11 H :    0.096221
Sum of atomic charges:   -0.0000000

LOEWDIN ATOMIC CHARGES
----------------------
   0 C :   -0.000203
   1 O :   -0.001674
   2 H :   -0.002180
   3 H :   -0.000010
   4 H :   -0.000007
   5 H :   -0.000008
   6 C :   -0.378585
   7 O :   -0.077122
   8 H :    0.160816
   9 H :    0.113235
  10 H :    0.090870
  11 H :    0.094868

  Mayer bond orders larger than 0.1
B(  6-C ,  7-O ) :   0.9934 B(  6-C ,  9-H ) :   0.9705 B(  6-C , 10-H ) :   0.9823
B(  6-C , 11-H ) :   0.9733 B(  7-O ,  8-H ) :   0.8979

Dispersion correction           -0.000244959
FINAL SINGLE POINT ENERGY      -115.732367617624

DIPOLE MOMENT
-------------
                                X             Y             Z
Electronic contribution:      0.55994      -1.22912      -1.22420
Nuclear contribution   :     -0.85355       1.12016       1.83247
                        -----------------------------------------
Total Dipole Moment    :     -0.29361      -0.10896       0.60827
                        -----------------------------------------
Magnitude (a.u.)       :      0.68416
Magnitude (Debye)      :      1.73899

Rotational constants in cm-1:     4.403227     0.822972     0.792894
Rotational constants in MHz : 132005.412269 24672.094070 23770.375770

                             ****ORCA TERMINATED NORMALLY****
TOTAL RUN TIME: 0 days 0 hours 0 minutes 41 seconds 272 msec
