                         Program Version 4.1.2  - RELEASE  -
|  1> #Run DFT-D3 single point of the dimer
|  2> ! wB97X-D3 def2-TZVP TIGHTSCF CHELPG PMODEL PAL8
|  3>
|  4> %base "19-221_DFT_AB"
|  5>
|  6> %scf
|  7> MaxIter 1000
|  8> end
|  9>
| 10> * xyz 0 1
| 11>   C                      0.438339             -6.342064            -3.795153
| 12>   O                      0.295904             -4.919318            -3.776308
| 13>   H                      -0.644205            -4.755559            -3.947735
| 14>   H                      0.092764             -6.864128            -2.859132
| 15>   H                      -0.227476            -6.734490            -4.555237
| 16>   H                      1.460221             -6.717462            -3.842822
| 17>   C                      -3.412686            -4.523992            -2.785309
| 18>   O                      -2.477537            -4.119576            -3.778693
| 19>   H                      -2.608273            -3.215468            -4.123627
| 20>   H                      -3.306883            -5.572252            -2.486987
| 21>   H                      -3.452466            -3.824920            -1.917810
| 22>   H                      -4.370876            -4.457348            -3.269788
| 23> *
| 24>
| 25> #Run DFT-D3 single point of the molecule with dimer basis set
| 26> $new_job
| 27> %base "19-221_DFT_A"
| 28> ! wB97X-D3 def2-TZVP TIGHTSCF CHELPG PMODEL
| 29>
| 30> %scf
| 31> MaxIter 1000
| 32> end
| 33>
| 34> * xyz 0 1
| 35>   C                      0.438339             -6.342064            -3.795153
| 36>   O                      0.295904             -4.919318            -3.776308
| 37>   H                      -0.644205            -4.755559            -3.947735
| 38>   H                      0.092764             -6.864128            -2.859132
| 39>   H                      -0.227476            -6.734490            -4.555237
| 40>   H                      1.460221             -6.717462            -3.842822
| 41>   C                    : -3.412686            -4.523992            -2.785309
| 42>   O                    : -2.477537            -4.119576            -3.778693
| 43>   H                    : -2.608273            -3.215468            -4.123627
| 44>   H                    : -3.306883            -5.572252            -2.486987
| 45>   H                    : -3.452466            -3.824920            -1.917810
| 46>   H                    : -4.370876            -4.457348            -3.269788
| 47> *
| 48>
| 49> #Run DFT-D3 single point of the particle with dimer basis set
| 50> $new_job
| 51> %base "19-221_DFT_B"
| 52> ! wB97X-D3 def2-TZVP TIGHTSCF CHELPG PMODEL
| 53>
| 54> %scf
| 55> MaxIter 1000
| 56> end
| 57>
| 58> * xyz 0 1
| 59>   C                    : 0.438339             -6.342064            -3.795153
| 60>   O                    : 0.295904             -4.919318            -3.776308
| 61>   H                    : -0.644205            -4.755559            -3.947735
| 62>   H                    : 0.092764             -6.864128            -2.859132
| 63>   H                    : -0.227476            -6.734490            -4.555237
| 64>   H                    : 1.460221             -6.717462            -3.842822
| 65>   C                      -3.412686            -4.523992            -2.785309
| 66>   O                      -2.477537            -4.119576            -3.778693
| 67>   H                      -2.608273            -3.215468            -4.123627
| 68>   H                      -3.306883            -5.572252            -2.486987
| 69>   H                      -3.452466            -3.824920            -1.917810
| 70>   H                      -4.370876            -4.457348            -3.269788
| 71> *
| 72>
| 73>                          ****END OF INPUT****
 Total Charge           Charge          ....    0
 Multiplicity           Mult            ....    1
 Number of Electrons    NEL             ....   36
Dispersion correction           -0.001702008
FINAL SINGLE POINT ENERGY      -231.471130538544
Dispersion correction           -0.000251152
FINAL SINGLE POINT ENERGY      -115.730637727355

CARTESIAN COORDINATES (ANGSTROEM)
---------------------------------
  C      0.438339   -6.342064   -3.795153
  O      0.295904   -4.919318   -3.776308
  H     -0.644205   -4.755559   -3.947735
  H      0.092764   -6.864128   -2.859132
  H     -0.227476   -6.734490   -4.555237
  H      1.460221   -6.717462   -3.842822
  C     -3.412686   -4.523992   -2.785309
  O     -2.477537   -4.119576   -3.778693
  H     -2.608273   -3.215468   -4.123627
  H     -3.306883   -5.572252   -2.486987
  H     -3.452466   -3.824920   -1.917810
  H     -4.370876   -4.457348   -3.269788

 Multiplicity           Mult            ....    1
 Number of Electrons    NEL             ....   18
 Basis Dimension        Dim             ....  172

ORBITAL ENERGIES
----------------

  NO   OCC          E(Eh)            E(eV)
   0   2.0000     -19.227057      -523.1948
   1   2.0000     -10.315400      -280.6963
   2   2.0000      -1.125468       -30.6255
   3   2.0000      -0.796789       -21.6817
   4   2.0000      -0.607073       -16.5193
   5   2.0000      -0.538368       -14.6497
   6   2.0000      -0.532849       -14.4995
   7   2.0000      -0.424506       -11.5514
   8   2.0000      -0.368697       -10.0327
   9   0.0000       0.098714         2.6861
  10   0.0000       0.121955         3.3186
  11   0.0000       0.149902         4.0791
  12   0.0000       0.190905         5.1948
  13   0.0000       0.201509         5.4833

MULLIKEN ATOMIC CHARGES
-----------------------
   0 C :    0.001014
   1 O :   -0.001916
   2 H :   -0.007068
   3 H :   -0.000268
   4 H :   -0.001210
   5 H :   -0.000094
   6 C :   -0.148016
   7 O :   -0.493849
   8 H :    0.320853
   9 H :    0.126809
  10 H :    0.099552
  11 H :    0.104192
Sum of atomic charges:    0.0000000

LOEWDIN ATOMIC CHARGES
----------------------
   0 C :   -0.001691
   1 O :   -0.006318
   2 H :   -0.044552
   3 H :   -0.000077
   4 H :   -0.000402
   5 H :   -0.000024
   6 C :   -0.372820
   7 O :   -0.054433
   8 H :    0.177008
   9 H :    0.110989
  10 H :    0.098054
  11 H :    0.094266

  Mayer bond orders larger than 0.1
B(  6-C ,  7-O ) :   0.9769 B(  6-C ,  9-H ) :   0.9703 B(  6-C , 10-H ) :   0.9715
B(  6-C , 11-H ) :   0.9842 B(  7-O ,  8-H ) :   0.8865

Dispersion correction           -0.000250011
FINAL SINGLE POINT ENERGY      -115.731407967035

DIPOLE MOMENT
-------------
                                X             Y             Z
Electronic contribution:      1.30825       0.32009      -1.13876
Nuclear contribution   :     -1.81726       0.08616       1.31553
                        -----------------------------------------
Total Dipole Moment    :     -0.50901       0.40625       0.17677
                        -----------------------------------------
Magnitude (a.u.)       :      0.67482
Magnitude (Debye)      :      1.71525

Rotational constants in cm-1:     4.348683     0.816727     0.785250
Rotational constants in MHz : 130370.230066 24484.866706 23541.195007

                             ****ORCA TERMINATED NORMALLY****
TOTAL RUN TIME: 0 days 0 hours 0 minutes 50 seconds 196 msec
