                         Program Version 4.1.2  - RELEASE  -
|  1> #Run DFT-D3 single point of the dimer
|  2> ! wB97X-D3 def2-TZVP TIGHTSCF CHELPG PMODEL PAL8
|  3>
|  4> %base "19-106_DFT_AB"
|  5>
|  6> %scf
|  7> MaxIter 1000
|  8> end
|  9>
| 10> * xyz 0 1
| 11>   C                      10.695585            5.804026             -9.585432
| 12>   O                      10.520854            4.713502             -8.722632
| 13>   H                      10.299957            5.135141             -7.866166
| 14>   H                      11.089620            5.402777             -10.519049
| 15>   H                      9.779639             6.421214             -9.795723
| 16>   H                      11.544549            6.403537             -9.255654
| 17>   C                      9.207416             1.059955             -5.662795
| 18>   O                      9.499571             2.188477             -4.833587
| 19>   H                      10.413787            2.350852             -5.055094
| 20>   H                      8.210262             0.629077             -5.659522
| 21>   H                      9.343700             1.313772             -6.703385
| 22>   H                      9.797149             0.186247             -5.424328
| 23> *
| 24>
| 25> #Run DFT-D3 single point of the molecule with dimer basis set
| 26> $new_job
| 27> %base "19-106_DFT_A"
| 28> ! wB97X-D3 def2-TZVP TIGHTSCF CHELPG PMODEL
| 29>
| 30> %scf
| 31> MaxIter 1000
| 32> end
| 33>
| 34> * xyz 0 1
| 35>   C                      10.695585            5.804026             -9.585432
| 36>   O                      10.520854            4.713502             -8.722632
| 37>   H                      10.299957            5.135141             -7.866166
| 38>   H                      11.089620            5.402777             -10.519049
| 39>   H                      9.779639             6.421214             -9.795723
| 40>   H                      11.544549            6.403537             -9.255654
| 41>   C                    : 9.207416             1.059955             -5.662795
| 42>   O                    : 9.499571             2.188477             -4.833587
| 43>   H                    : 10.413787            2.350852             -5.055094
| 44>   H                    : 8.210262             0.629077             -5.659522
| 45>   H                    : 9.343700             1.313772             -6.703385
| 46>   H                    : 9.797149             0.186247             -5.424328
| 47> *
| 48>
| 49> #Run DFT-D3 single point of the particle with dimer basis set
| 50> $new_job
| 51> %base "19-106_DFT_B"
| 52> ! wB97X-D3 def2-TZVP TIGHTSCF CHELPG PMODEL
| 53>
| 54> %scf
| 55> MaxIter 1000
| 56> end
| 57>
| 58> * xyz 0 1
| 59>   C                    : 10.695585            5.804026             -9.585432
| 60>   O                    : 10.520854            4.713502             -8.722632
| 61>   H                    : 10.299957            5.135141             -7.866166
| 62>   H                    : 11.089620            5.402777             -10.519049
| 63>   H                    : 9.779639             6.421214             -9.795723
| 64>   H                    : 11.544549            6.403537             -9.255654
| 65>   C                      9.207416             1.059955             -5.662795
| 66>   O                      9.499571             2.188477             -4.833587
| 67>   H                      10.413787            2.350852             -5.055094
| 68>   H                      8.210262             0.629077             -5.659522
| 69>   H                      9.343700             1.313772             -6.703385
| 70>   H                      9.797149             0.186247             -5.424328
| 71> *
| 72>
| 73>                          ****END OF INPUT****
 Total Charge           Charge          ....    0
 Multiplicity           Mult            ....    1
 Number of Electrons    NEL             ....   36
Dispersion correction           -0.000717695
FINAL SINGLE POINT ENERGY      -231.464207846726
Dispersion correction           -0.000234765
FINAL SINGLE POINT ENERGY      -115.733382719858

CARTESIAN COORDINATES (ANGSTROEM)
---------------------------------
  C     10.695585    5.804026   -9.585432
  O     10.520854    4.713502   -8.722632
  H     10.299957    5.135141   -7.866166
  H     11.089620    5.402777  -10.519049
  H      9.779639    6.421214   -9.795723
  H     11.544549    6.403537   -9.255654
  C      9.207416    1.059955   -5.662795
  O      9.499571    2.188477   -4.833587
  H     10.413787    2.350852   -5.055094
  H      8.210262    0.629077   -5.659522
  H      9.343700    1.313772   -6.703385
  H      9.797149    0.186247   -5.424328

 Multiplicity           Mult            ....    1
 Number of Electrons    NEL             ....   18
 Basis Dimension        Dim             ....  172

ORBITAL ENERGIES
----------------

  NO   OCC          E(Eh)            E(eV)
   0   2.0000     -19.234661      -523.4017
   1   2.0000     -10.311099      -280.5793
   2   2.0000      -1.137985       -30.9662
   3   2.0000      -0.800419       -21.7805
   4   2.0000      -0.606446       -16.5022
   5   2.0000      -0.546020       -14.8580
   6   2.0000      -0.530396       -14.4328
   7   2.0000      -0.434790       -11.8312
   8   2.0000      -0.378112       -10.2889
   9   0.0000       0.084182         2.2907
  10   0.0000       0.113497         3.0884
  11   0.0000       0.149686         4.0732
  12   0.0000       0.170642         4.6434
  13   0.0000       0.194416         5.2903

MULLIKEN ATOMIC CHARGES
-----------------------
   0 C :    0.000053
   1 O :    0.000025
   2 H :   -0.000531
   3 H :    0.000000
   4 H :   -0.000004
   5 H :   -0.000005
   6 C :   -0.191559
   7 O :   -0.463445
   8 H :    0.317001
   9 H :    0.121494
  10 H :    0.108988
  11 H :    0.107982
Sum of atomic charges:    0.0000000

LOEWDIN ATOMIC CHARGES
----------------------
   0 C :   -0.000011
   1 O :   -0.000032
   2 H :   -0.000272
   3 H :   -0.000001
   4 H :   -0.000000
   5 H :   -0.000000
   6 C :   -0.383191
   7 O :   -0.082409
   8 H :    0.170425
   9 H :    0.108003
  10 H :    0.093919
  11 H :    0.093570

  Mayer bond orders larger than 0.1
B(  6-C ,  7-O ) :   0.9962 B(  6-C ,  9-H ) :   0.9722 B(  6-C , 10-H ) :   0.9822
B(  6-C , 11-H ) :   0.9766 B(  7-O ,  8-H ) :   0.9016

Dispersion correction           -0.000238549
FINAL SINGLE POINT ENERGY      -115.729763605283

DIPOLE MOMENT
-------------
                                X             Y             Z
Electronic contribution:      0.21217       1.54481       1.23187
Nuclear contribution   :      0.22130      -1.90942      -1.70429
                        -----------------------------------------
Total Dipole Moment    :      0.43347      -0.36460      -0.47242
                        -----------------------------------------
Magnitude (a.u.)       :      0.73757
Magnitude (Debye)      :      1.87476

Rotational constants in cm-1:     4.533959     0.807228     0.785197
Rotational constants in MHz : 135924.669431 24200.096639 23539.603272

                             ****ORCA TERMINATED NORMALLY****
TOTAL RUN TIME: 0 days 0 hours 0 minutes 49 seconds 6 msec
