                         Program Version 4.1.2  - RELEASE  -
|  1> #Run DFT-D3 single point of the dimer
|  2> ! wB97X-D3 def2-TZVP TIGHTSCF CHELPG PMODEL PAL8
|  3>
|  4> %base "6-11_DFT_AB"
|  5>
|  6> %scf
|  7> MaxIter 1000
|  8> end
|  9>
| 10> * xyz 0 1
| 11>   C                      -8.943252            -7.348248            2.064146
| 12>   O                      -8.854877            -8.616783            1.511822
| 13>   H                      -9.785357            -8.938947            1.557192
| 14>   H                      -7.983475            -6.876313            1.956709
| 15>   H                      -9.635888            -6.670991            1.500144
| 16>   H                      -9.236388            -7.364689            3.074729
| 17>   C                      -10.609718           -6.506409            5.896428
| 18>   O                      -11.093761           -5.800162            4.800761
| 19>   H                      -11.835064           -5.252951            5.266487
| 20>   H                      -10.686594           -7.567486            5.695055
| 21>   H                      -9.632253            -6.324988            6.243751
| 22>   H                      -11.223079           -6.309885            6.777493
| 23> *
| 24>
| 25> #Run DFT-D3 single point of the molecule with dimer basis set
| 26> $new_job
| 27> %base "6-11_DFT_A"
| 28> ! wB97X-D3 def2-TZVP TIGHTSCF CHELPG PMODEL
| 29>
| 30> %scf
| 31> MaxIter 1000
| 32> end
| 33>
| 34> * xyz 0 1
| 35>   C                      -8.943252            -7.348248            2.064146
| 36>   O                      -8.854877            -8.616783            1.511822
| 37>   H                      -9.785357            -8.938947            1.557192
| 38>   H                      -7.983475            -6.876313            1.956709
| 39>   H                      -9.635888            -6.670991            1.500144
| 40>   H                      -9.236388            -7.364689            3.074729
| 41>   C                    : -10.609718           -6.506409            5.896428
| 42>   O                    : -11.093761           -5.800162            4.800761
| 43>   H                    : -11.835064           -5.252951            5.266487
| 44>   H                    : -10.686594           -7.567486            5.695055
| 45>   H                    : -9.632253            -6.324988            6.243751
| 46>   H                    : -11.223079           -6.309885            6.777493
| 47> *
| 48>
| 49> #Run DFT-D3 single point of the particle with dimer basis set
| 50> $new_job
| 51> %base "6-11_DFT_B"
| 52> ! wB97X-D3 def2-TZVP TIGHTSCF CHELPG PMODEL
| 53>
| 54> %scf
| 55> MaxIter 1000
| 56> end
| 57>
| 58> * xyz 0 1
| 59>   C                    : -8.943252            -7.348248            2.064146
| 60>   O                    : -8.854877            -8.616783            1.511822
| 61>   H                    : -9.785357            -8.938947            1.557192
| 62>   H                    : -7.983475            -6.876313            1.956709
| 63>   H                    : -9.635888            -6.670991            1.500144
| 64>   H                    : -9.236388            -7.364689            3.074729
| 65>   C                      -10.609718           -6.506409            5.896428
| 66>   O                      -11.093761           -5.800162            4.800761
| 67>   H                      -11.835064           -5.252951            5.266487
| 68>   H                      -10.686594           -7.567486            5.695055
| 69>   H                      -9.632253            -6.324988            6.243751
| 70>   H                      -11.223079           -6.309885            6.777493
| 71> *
| 72>
| 73>                          ****END OF INPUT****
 Total Charge           Charge          ....    0
 Multiplicity           Mult            ....    1
 Number of Electrons    NEL             ....   36
Dispersion correction           -0.001320473
FINAL SINGLE POINT ENERGY      -231.458441517309
Dispersion correction           -0.000214062
FINAL SINGLE POINT ENERGY      -115.733313297808

CARTESIAN COORDINATES (ANGSTROEM)
---------------------------------
  C     -8.943252   -7.348248    2.064146
  O     -8.854877   -8.616783    1.511822
  H     -9.785357   -8.938947    1.557192
  H     -7.983475   -6.876313    1.956709
  H     -9.635888   -6.670991    1.500144
  H     -9.236388   -7.364689    3.074729
  C    -10.609718   -6.506409    5.896428
  O    -11.093761   -5.800162    4.800761
  H    -11.835064   -5.252951    5.266487
  H    -10.686594   -7.567486    5.695055
  H     -9.632253   -6.324988    6.243751
  H    -11.223079   -6.309885    6.777493

 Multiplicity           Mult            ....    1
 Number of Electrons    NEL             ....   18
 Basis Dimension        Dim             ....  172

ORBITAL ENERGIES
----------------

  NO   OCC          E(Eh)            E(eV)
   0   2.0000     -19.239266      -523.5270
   1   2.0000     -10.304765      -280.4069
   2   2.0000      -1.137961       -30.9655
   3   2.0000      -0.791491       -21.5376
   4   2.0000      -0.611508       -16.6400
   5   2.0000      -0.545896       -14.8546
   6   2.0000      -0.530388       -14.4326
   7   2.0000      -0.433889       -11.8067
   8   2.0000      -0.373209       -10.1555
   9   0.0000       0.090556         2.4642
  10   0.0000       0.109640         2.9834
  11   0.0000       0.152774         4.1572
  12   0.0000       0.175364         4.7719
  13   0.0000       0.192995         5.2517

MULLIKEN ATOMIC CHARGES
-----------------------
   0 C :   -0.004101
   1 O :    0.000014
   2 H :   -0.000002
   3 H :   -0.000007
   4 H :   -0.000254
   5 H :    0.004635
   6 C :   -0.184862
   7 O :   -0.453550
   8 H :    0.321871
   9 H :    0.111376
  10 H :    0.105231
  11 H :    0.099648
Sum of atomic charges:    0.0000000

LOEWDIN ATOMIC CHARGES
----------------------
   0 C :   -0.002167
   1 O :   -0.000016
   2 H :   -0.000005
   3 H :   -0.000018
   4 H :   -0.000387
   5 H :   -0.001538
   6 C :   -0.415450
   7 O :   -0.083123
   8 H :    0.219468
   9 H :    0.099291
  10 H :    0.087548
  11 H :    0.096396

  Mayer bond orders larger than 0.1
B(  6-C ,  7-O ) :   1.0222 B(  6-C ,  9-H ) :   0.9827 B(  6-C , 10-H ) :   0.9694
B(  6-C , 11-H ) :   0.9929 B(  7-O ,  8-H ) :   0.8941

Dispersion correction           -0.000227389
FINAL SINGLE POINT ENERGY      -115.723561205589

DIPOLE MOMENT
-------------
                                X             Y             Z
Electronic contribution:     -0.41661       0.93026      -1.66633
Nuclear contribution   :      0.13447      -0.85065       2.37039
                        -----------------------------------------
Total Dipole Moment    :     -0.28214       0.07961       0.70406
                        -----------------------------------------
Magnitude (a.u.)       :      0.76265
Magnitude (Debye)      :      1.93850

Rotational constants in cm-1:     4.303215     0.861627     0.820144
Rotational constants in MHz : 129007.147058 25830.932108 24587.301097

                             ****ORCA TERMINATED NORMALLY****
TOTAL RUN TIME: 0 days 0 hours 1 minutes 6 seconds 406 msec
