                         Program Version 4.1.2  - RELEASE  -
|  1> #Run DFT-D3 single point of the dimer
|  2> ! wB97X-D3 def2-TZVP TIGHTSCF CHELPG PMODEL PAL8
|  3>
|  4> %base "20-164_DFT_AB"
|  5>
|  6> %scf
|  7> MaxIter 1000
|  8> end
|  9>
| 10> * xyz 0 1
| 11>   C                      -4.577794            -8.204555            0.758113
| 12>   O                      -3.963812            -6.878370            0.949898
| 13>   H                      -4.601478            -6.202893            0.636504
| 14>   H                      -4.823748            -8.459030            -0.313163
| 15>   H                      -3.861738            -8.947558            1.107325
| 16>   H                      -5.539757            -8.212242            1.264604
| 17>   C                      -1.246376            -6.785112            3.235569
| 18>   O                      -1.731775            -5.723574            2.361640
| 19>   H                      -2.029969            -6.162378            1.487465
| 20>   H                      -1.333332            -7.757998            2.824304
| 21>   H                      -0.201581            -6.541920            3.488338
| 22>   H                      -1.815348            -6.841643            4.134731
| 23> *
| 24>
| 25> #Run DFT-D3 single point of the molecule with dimer basis set
| 26> $new_job
| 27> %base "20-164_DFT_A"
| 28> ! wB97X-D3 def2-TZVP TIGHTSCF CHELPG PMODEL
| 29>
| 30> %scf
| 31> MaxIter 1000
| 32> end
| 33>
| 34> * xyz 0 1
| 35>   C                      -4.577794            -8.204555            0.758113
| 36>   O                      -3.963812            -6.878370            0.949898
| 37>   H                      -4.601478            -6.202893            0.636504
| 38>   H                      -4.823748            -8.459030            -0.313163
| 39>   H                      -3.861738            -8.947558            1.107325
| 40>   H                      -5.539757            -8.212242            1.264604
| 41>   C                    : -1.246376            -6.785112            3.235569
| 42>   O                    : -1.731775            -5.723574            2.361640
| 43>   H                    : -2.029969            -6.162378            1.487465
| 44>   H                    : -1.333332            -7.757998            2.824304
| 45>   H                    : -0.201581            -6.541920            3.488338
| 46>   H                    : -1.815348            -6.841643            4.134731
| 47> *
| 48>
| 49> #Run DFT-D3 single point of the particle with dimer basis set
| 50> $new_job
| 51> %base "20-164_DFT_B"
| 52> ! wB97X-D3 def2-TZVP TIGHTSCF CHELPG PMODEL
| 53>
| 54> %scf
| 55> MaxIter 1000
| 56> end
| 57>
| 58> * xyz 0 1
| 59>   C                    : -4.577794            -8.204555            0.758113
| 60>   O                    : -3.963812            -6.878370            0.949898
| 61>   H                    : -4.601478            -6.202893            0.636504
| 62>   H                    : -4.823748            -8.459030            -0.313163
| 63>   H                    : -3.861738            -8.947558            1.107325
| 64>   H                    : -5.539757            -8.212242            1.264604
| 65>   C                      -1.246376            -6.785112            3.235569
| 66>   O                      -1.731775            -5.723574            2.361640
| 67>   H                      -2.029969            -6.162378            1.487465
| 68>   H                      -1.333332            -7.757998            2.824304
| 69>   H                      -0.201581            -6.541920            3.488338
| 70>   H                      -1.815348            -6.841643            4.134731
| 71> *
| 72>
| 73>                          ****END OF INPUT****
 Total Charge           Charge          ....    0
 Multiplicity           Mult            ....    1
 Number of Electrons    NEL             ....   36
Dispersion correction           -0.001746928
FINAL SINGLE POINT ENERGY      -231.467161539925
Dispersion correction           -0.000269330
FINAL SINGLE POINT ENERGY      -115.732952118291

CARTESIAN COORDINATES (ANGSTROEM)
---------------------------------
  C     -4.577794   -8.204555    0.758113
  O     -3.963812   -6.878370    0.949898
  H     -4.601478   -6.202893    0.636504
  H     -4.823748   -8.459030   -0.313163
  H     -3.861738   -8.947558    1.107325
  H     -5.539757   -8.212242    1.264604
  C     -1.246376   -6.785112    3.235569
  O     -1.731775   -5.723574    2.361640
  H     -2.029969   -6.162378    1.487465
  H     -1.333332   -7.757998    2.824304
  H     -0.201581   -6.541920    3.488338
  H     -1.815348   -6.841643    4.134731

 Multiplicity           Mult            ....    1
 Number of Electrons    NEL             ....   18
 Basis Dimension        Dim             ....  172

ORBITAL ENERGIES
----------------

  NO   OCC          E(Eh)            E(eV)
   0   2.0000     -19.235640      -523.4284
   1   2.0000     -10.310230      -280.5556
   2   2.0000      -1.112004       -30.2592
   3   2.0000      -0.797541       -21.7022
   4   2.0000      -0.600609       -16.3434
   5   2.0000      -0.536801       -14.6071
   6   2.0000      -0.519046       -14.1240
   7   2.0000      -0.439137       -11.9495
   8   2.0000      -0.373228       -10.1561
   9   0.0000       0.070428         1.9164
  10   0.0000       0.124813         3.3963
  11   0.0000       0.140841         3.8325
  12   0.0000       0.172084         4.6827
  13   0.0000       0.189125         5.1464

MULLIKEN ATOMIC CHARGES
-----------------------
   0 C :   -0.002208
   1 O :   -0.006636
   2 H :   -0.001285
   3 H :    0.000057
   4 H :    0.000118
   5 H :    0.000083
   6 C :   -0.172802
   7 O :   -0.482995
   8 H :    0.319833
   9 H :    0.115376
  10 H :    0.116074
  11 H :    0.114384
Sum of atomic charges:   -0.0000000

LOEWDIN ATOMIC CHARGES
----------------------
   0 C :   -0.001918
   1 O :   -0.018264
   2 H :   -0.001868
   3 H :   -0.000035
   4 H :   -0.000273
   5 H :   -0.000045
   6 C :   -0.352181
   7 O :   -0.123962
   8 H :    0.205582
   9 H :    0.091243
  10 H :    0.105863
  11 H :    0.095856

  Mayer bond orders larger than 0.1
B(  6-C ,  7-O ) :   0.9975 B(  6-C ,  9-H ) :   0.9792 B(  6-C , 10-H ) :   0.9807
B(  6-C , 11-H ) :   0.9732 B(  7-O ,  8-H ) :   0.8929

Dispersion correction           -0.000264318
FINAL SINGLE POINT ENERGY      -115.729588749515

DIPOLE MOMENT
-------------
                                X             Y             Z
Electronic contribution:     -0.56796       1.38047      -0.96418
Nuclear contribution   :      0.58240      -2.11523       0.80532
                        -----------------------------------------
Total Dipole Moment    :      0.01444      -0.73476      -0.15886
                        -----------------------------------------
Magnitude (a.u.)       :      0.75187
Magnitude (Debye)      :      1.91111

Rotational constants in cm-1:     4.288800     0.791516     0.761643
Rotational constants in MHz : 128574.996837 23729.066839 22833.468504

                             ****ORCA TERMINATED NORMALLY****
TOTAL RUN TIME: 0 days 0 hours 1 minutes 1 seconds 220 msec
