                         Program Version 4.1.2  - RELEASE  -
|  1> #Run DFT-D3 single point of the dimer
|  2> ! wB97X-D3 def2-TZVP TIGHTSCF  CHELPG PAL8
|  3>
|  4> %base "72_charges"
|  5>
|  6> %scf
|  7> MaxIter 1000
|  8> end
|  9> %output
| 10>   Print[ P_Mayer ] 1
| 11>   Print[ P_NatPop ] 1
| 12>   Print[ P_Hirshfeld ] 1
| 13>   Print[ P_Mulliken ] 1
| 14>   Print [ P_Loewdin ] 1
| 15> end
| 16>
| 17> * xyz 0 1
| 18>   C                      -7.693137            -5.792770            -11.463808
| 19>   O                      -7.793203            -7.125872            -11.789566
| 20>   H                      -7.056885            -7.257222            -12.389568
| 21>   H                      -6.684132            -5.567017            -11.094131
| 22>   H                      -7.947729            -5.105516            -12.298987
| 23>   H                      -8.448555            -5.589554            -10.732546
| 24> *
| 25>
| 26>                          ****END OF INPUT****

CARTESIAN COORDINATES (ANGSTROEM)
---------------------------------
  C     -7.693137   -5.792770  -11.463808
  O     -7.793203   -7.125872  -11.789566
  H     -7.056885   -7.257222  -12.389568
  H     -6.684132   -5.567017  -11.094131
  H     -7.947729   -5.105516  -12.298987
  H     -8.448555   -5.589554  -10.732546

 Total Charge           Charge          ....    0
 Multiplicity           Mult            ....    1
 Number of Electrons    NEL             ....   18
 Basis Dimension        Dim             ....   86

ORBITAL ENERGIES
----------------

  NO   OCC          E(Eh)            E(eV)
   0   2.0000     -19.231081      -523.3043
   1   2.0000     -10.308901      -280.5195
   2   2.0000      -1.152861       -31.3710
   3   2.0000      -0.791688       -21.5429
   4   2.0000      -0.617589       -16.8054
   5   2.0000      -0.549188       -14.9442
   6   2.0000      -0.529627       -14.4119
   7   2.0000      -0.437611       -11.9080
   8   2.0000      -0.371606       -10.1119
   9   0.0000       0.114683         3.1207
  10   0.0000       0.160161         4.3582
  11   0.0000       0.203558         5.5391
  12   0.0000       0.204988         5.5780
  13   0.0000       0.228586         6.2202

MULLIKEN ATOMIC CHARGES
-----------------------
   0 C :   -0.157583
   1 O :   -0.457248
   2 H :    0.313509
   3 H :    0.094737
   4 H :    0.090906
   5 H :    0.115678
Sum of atomic charges:    0.0000000

LOEWDIN ATOMIC CHARGES
----------------------
   0 C :   -0.418649
   1 O :   -0.046905
   2 H :    0.173571
   3 H :    0.093875
   4 H :    0.094298
   5 H :    0.103811

  Mayer bond orders larger than 0.1
B(  0-C ,  1-O ) :   1.0080 B(  0-C ,  3-H ) :   0.9822 B(  0-C ,  4-H ) :   0.9710
B(  0-C ,  5-H ) :   0.9763 B(  1-O ,  2-H ) :   0.9027

Dispersion correction           -0.000209859
FINAL SINGLE POINT ENERGY      -115.734056801693

DIPOLE MOMENT
-------------
                                X             Y             Z
Electronic contribution:     -0.22845      -1.80751      -0.30874
Nuclear contribution   :      0.70744       2.20264       0.06701
                        -----------------------------------------
Total Dipole Moment    :      0.47900       0.39513      -0.24173
                        -----------------------------------------
Magnitude (a.u.)       :      0.66633
Magnitude (Debye)      :      1.69368

Rotational constants in cm-1:     4.238613     0.878370     0.844492
Rotational constants in MHz : 127070.408246 26332.875194 25317.246864

                             ****ORCA TERMINATED NORMALLY****
TOTAL RUN TIME: 0 days 0 hours 0 minutes 41 seconds 653 msec
