                         Program Version 4.1.2  - RELEASE  -
|  1> #Run DFT-D3 single point of the dimer
|  2> ! wB97X-D3 def2-TZVP TIGHTSCF CHELPG PMODEL PAL8
|  3>
|  4> %base "8-13_DFT_AB"
|  5>
|  6> %scf
|  7> MaxIter 1000
|  8> end
|  9>
| 10> * xyz 0 1
| 11>   C                      -9.226378            6.819918             10.298666
| 12>   O                      -9.148091            8.189575             10.728169
| 13>   H                      -8.323087            8.375170             11.172389
| 14>   H                      -9.134527            6.692401             9.233474
| 15>   H                      -8.394565            6.254475             10.685698
| 16>   H                      -10.206823           6.394376             10.486377
| 17>   C                      -8.419995            4.983387             7.231056
| 18>   O                      -8.925307            4.145394             8.291104
| 19>   H                      -9.807980            4.169145             8.024877
| 20>   H                      -8.118618            5.961842             7.656485
| 21>   H                      -7.403915            4.578973             6.863070
| 22>   H                      -8.992139            5.220278             6.336531
| 23> *
| 24>
| 25> #Run DFT-D3 single point of the molecule with dimer basis set
| 26> $new_job
| 27> %base "8-13_DFT_A"
| 28> ! wB97X-D3 def2-TZVP TIGHTSCF CHELPG PMODEL
| 29>
| 30> %scf
| 31> MaxIter 1000
| 32> end
| 33>
| 34> * xyz 0 1
| 35>   C                      -9.226378            6.819918             10.298666
| 36>   O                      -9.148091            8.189575             10.728169
| 37>   H                      -8.323087            8.375170             11.172389
| 38>   H                      -9.134527            6.692401             9.233474
| 39>   H                      -8.394565            6.254475             10.685698
| 40>   H                      -10.206823           6.394376             10.486377
| 41>   C                    : -8.419995            4.983387             7.231056
| 42>   O                    : -8.925307            4.145394             8.291104
| 43>   H                    : -9.807980            4.169145             8.024877
| 44>   H                    : -8.118618            5.961842             7.656485
| 45>   H                    : -7.403915            4.578973             6.863070
| 46>   H                    : -8.992139            5.220278             6.336531
| 47> *
| 48>
| 49> #Run DFT-D3 single point of the particle with dimer basis set
| 50> $new_job
| 51> %base "8-13_DFT_B"
| 52> ! wB97X-D3 def2-TZVP TIGHTSCF CHELPG PMODEL
| 53>
| 54> %scf
| 55> MaxIter 1000
| 56> end
| 57>
| 58> * xyz 0 1
| 59>   C                    : -9.226378            6.819918             10.298666
| 60>   O                    : -9.148091            8.189575             10.728169
| 61>   H                    : -8.323087            8.375170             11.172389
| 62>   H                    : -9.134527            6.692401             9.233474
| 63>   H                    : -8.394565            6.254475             10.685698
| 64>   H                    : -10.206823           6.394376             10.486377
| 65>   C                      -8.419995            4.983387             7.231056
| 66>   O                      -8.925307            4.145394             8.291104
| 67>   H                      -9.807980            4.169145             8.024877
| 68>   H                      -8.118618            5.961842             7.656485
| 69>   H                      -7.403915            4.578973             6.863070
| 70>   H                      -8.992139            5.220278             6.336531
| 71> *
| 72>
| 73>                          ****END OF INPUT****
 Total Charge           Charge          ....    0
 Multiplicity           Mult            ....    1
 Number of Electrons    NEL             ....   36
Dispersion correction           -0.001965845
FINAL SINGLE POINT ENERGY      -231.455975718874
Dispersion correction           -0.000261324
FINAL SINGLE POINT ENERGY      -115.731646501921

CARTESIAN COORDINATES (ANGSTROEM)
---------------------------------
  C     -9.226378    6.819918   10.298666
  O     -9.148091    8.189575   10.728169
  H     -8.323087    8.375170   11.172389
  H     -9.134527    6.692401    9.233474
  H     -8.394565    6.254475   10.685698
  H    -10.206823    6.394376   10.486377
  C     -8.419995    4.983387    7.231056
  O     -8.925307    4.145394    8.291104
  H     -9.807980    4.169145    8.024877
  H     -8.118618    5.961842    7.656485
  H     -7.403915    4.578973    6.863070
  H     -8.992139    5.220278    6.336531

 Multiplicity           Mult            ....    1
 Number of Electrons    NEL             ....   18
 Basis Dimension        Dim             ....  172

ORBITAL ENERGIES
----------------

  NO   OCC          E(Eh)            E(eV)
   0   2.0000     -19.237527      -523.4797
   1   2.0000     -10.323243      -280.9097
   2   2.0000      -1.148461       -31.2512
   3   2.0000      -0.793068       -21.5805
   4   2.0000      -0.615424       -16.7465
   5   2.0000      -0.528173       -14.3723
   6   2.0000      -0.519353       -14.1323
   7   2.0000      -0.456926       -12.4336
   8   2.0000      -0.375227       -10.2104
   9   0.0000       0.090432         2.4608
  10   0.0000       0.127233         3.4622
  11   0.0000       0.145225         3.9518
  12   0.0000       0.182719         4.9720
  13   0.0000       0.186982         5.0880

MULLIKEN ATOMIC CHARGES
-----------------------
   0 C :    0.004585
   1 O :   -0.000042
   2 H :    0.000001
   3 H :   -0.000293
   4 H :   -0.002148
   5 H :   -0.003261
   6 C :   -0.212019
   7 O :   -0.437495
   8 H :    0.308170
   9 H :    0.103152
  10 H :    0.113639
  11 H :    0.125710
Sum of atomic charges:    0.0000000

LOEWDIN ATOMIC CHARGES
----------------------
   0 C :   -0.011869
   1 O :   -0.000050
   2 H :   -0.000015
   3 H :   -0.010633
   4 H :   -0.001269
   5 H :   -0.001094
   6 C :   -0.382569
   7 O :   -0.057096
   8 H :    0.148798
   9 H :    0.104297
  10 H :    0.113630
  11 H :    0.097871

  Mayer bond orders larger than 0.1
B(  6-C ,  7-O ) :   1.0103 B(  6-C ,  9-H ) :   0.9812 B(  6-C , 10-H ) :   0.9829
B(  6-C , 11-H ) :   0.9665 B(  7-O ,  8-H ) :   0.9124

Dispersion correction           -0.000266251
FINAL SINGLE POINT ENERGY      -115.723149950144

DIPOLE MOMENT
-------------
                                X             Y             Z
Electronic contribution:     -0.79107      -1.22703       1.43434
Nuclear contribution   :      0.41633       1.56129      -2.01390
                        -----------------------------------------
Total Dipole Moment    :     -0.37474       0.33426      -0.57957
                        -----------------------------------------
Magnitude (a.u.)       :      0.76685
Magnitude (Debye)      :      1.94918

Rotational constants in cm-1:     4.301738     0.803082     0.770466
Rotational constants in MHz : 128962.861762 24075.792370 23097.975338

                             ****ORCA TERMINATED NORMALLY****
TOTAL RUN TIME: 0 days 0 hours 0 minutes 44 seconds 753 msec
