                         Program Version 4.1.2  - RELEASE  -
|  1> #Run DFT-D3 single point of the dimer
|  2> ! wB97X-D3 def2-TZVP TIGHTSCF CHELPG PMODEL PAL8
|  3>
|  4> %base "12-21_DFT_AB"
|  5>
|  6> %scf
|  7> MaxIter 1000
|  8> end
|  9>
| 10> * xyz 0 1
| 11>   C                      7.783129             -4.327830            -2.139949
| 12>   O                      8.538829             -3.183352            -2.235793
| 13>   H                      9.186373             -3.113510            -1.593900
| 14>   H                      8.386808             -5.185219            -2.334048
| 15>   H                      7.505781             -4.489280            -1.123958
| 16>   H                      6.890016             -4.297037            -2.756172
| 17>   C                      7.682747             -7.271031            -4.100970
| 18>   O                      8.922806             -6.730226            -4.626672
| 19>   H                      9.391970             -7.496335            -4.946624
| 20>   H                      7.861147             -7.818822            -3.121018
| 21>   H                      6.931325             -6.499394            -3.880193
| 22>   H                      7.259050             -8.084983            -4.709515
| 23> *
| 24>
| 25> #Run DFT-D3 single point of the molecule with dimer basis set
| 26> $new_job
| 27> %base "12-21_DFT_A"
| 28> ! wB97X-D3 def2-TZVP TIGHTSCF CHELPG PMODEL
| 29>
| 30> %scf
| 31> MaxIter 1000
| 32> end
| 33>
| 34> * xyz 0 1
| 35>   C                      7.783129             -4.327830            -2.139949
| 36>   O                      8.538829             -3.183352            -2.235793
| 37>   H                      9.186373             -3.113510            -1.593900
| 38>   H                      8.386808             -5.185219            -2.334048
| 39>   H                      7.505781             -4.489280            -1.123958
| 40>   H                      6.890016             -4.297037            -2.756172
| 41>   C                    : 7.682747             -7.271031            -4.100970
| 42>   O                    : 8.922806             -6.730226            -4.626672
| 43>   H                    : 9.391970             -7.496335            -4.946624
| 44>   H                    : 7.861147             -7.818822            -3.121018
| 45>   H                    : 6.931325             -6.499394            -3.880193
| 46>   H                    : 7.259050             -8.084983            -4.709515
| 47> *
| 48>
| 49> #Run DFT-D3 single point of the particle with dimer basis set
| 50> $new_job
| 51> %base "12-21_DFT_B"
| 52> ! wB97X-D3 def2-TZVP TIGHTSCF CHELPG PMODEL
| 53>
| 54> %scf
| 55> MaxIter 1000
| 56> end
| 57>
| 58> * xyz 0 1
| 59>   C                    : 7.783129             -4.327830            -2.139949
| 60>   O                    : 8.538829             -3.183352            -2.235793
| 61>   H                    : 9.186373             -3.113510            -1.593900
| 62>   H                    : 8.386808             -5.185219            -2.334048
| 63>   H                    : 7.505781             -4.489280            -1.123958
| 64>   H                    : 6.890016             -4.297037            -2.756172
| 65>   C                      7.682747             -7.271031            -4.100970
| 66>   O                      8.922806             -6.730226            -4.626672
| 67>   H                      9.391970             -7.496335            -4.946624
| 68>   H                      7.861147             -7.818822            -3.121018
| 69>   H                      6.931325             -6.499394            -3.880193
| 70>   H                      7.259050             -8.084983            -4.709515
| 71> *
| 72>
| 73>                          ****END OF INPUT****
 Total Charge           Charge          ....    0
 Multiplicity           Mult            ....    1
 Number of Electrons    NEL             ....   36
Dispersion correction           -0.001777801
FINAL SINGLE POINT ENERGY      -231.461865691675
Dispersion correction           -0.000211017
FINAL SINGLE POINT ENERGY      -115.729780658508

CARTESIAN COORDINATES (ANGSTROEM)
---------------------------------
  C      7.783129   -4.327830   -2.139949
  O      8.538829   -3.183352   -2.235793
  H      9.186373   -3.113510   -1.593900
  H      8.386808   -5.185219   -2.334048
  H      7.505781   -4.489280   -1.123958
  H      6.890016   -4.297037   -2.756172
  C      7.682747   -7.271031   -4.100970
  O      8.922806   -6.730226   -4.626672
  H      9.391970   -7.496335   -4.946624
  H      7.861147   -7.818822   -3.121018
  H      6.931325   -6.499394   -3.880193
  H      7.259050   -8.084983   -4.709515

 Multiplicity           Mult            ....    1
 Number of Electrons    NEL             ....   18
 Basis Dimension        Dim             ....  172

ORBITAL ENERGIES
----------------

  NO   OCC          E(Eh)            E(eV)
   0   2.0000     -19.234558      -523.3989
   1   2.0000     -10.322880      -280.8999
   2   2.0000      -1.131016       -30.7765
   3   2.0000      -0.793575       -21.5943
   4   2.0000      -0.608564       -16.5599
   5   2.0000      -0.527894       -14.3647
   6   2.0000      -0.522862       -14.2278
   7   2.0000      -0.447285       -12.1712
   8   2.0000      -0.372700       -10.1417
   9   0.0000       0.092738         2.5235
  10   0.0000       0.120520         3.2795
  11   0.0000       0.146507         3.9867
  12   0.0000       0.173154         4.7118
  13   0.0000       0.190063         5.1719

MULLIKEN ATOMIC CHARGES
-----------------------
   0 C :   -0.000023
   1 O :    0.000047
   2 H :    0.000016
   3 H :    0.001718
   4 H :    0.000429
   5 H :   -0.001486
   6 C :   -0.208880
   7 O :   -0.464757
   8 H :    0.312895
   9 H :    0.105428
  10 H :    0.133267
  11 H :    0.121347
Sum of atomic charges:   -0.0000000

LOEWDIN ATOMIC CHARGES
----------------------
   0 C :   -0.007569
   1 O :   -0.000027
   2 H :   -0.000009
   3 H :   -0.005069
   4 H :   -0.000059
   5 H :   -0.002290
   6 C :   -0.369769
   7 O :   -0.092897
   8 H :    0.164506
   9 H :    0.102770
  10 H :    0.112922
  11 H :    0.097493

  Mayer bond orders larger than 0.1
B(  6-C ,  7-O ) :   0.9914 B(  6-C ,  9-H ) :   0.9766 B(  6-C , 10-H ) :   0.9726
B(  6-C , 11-H ) :   0.9685 B(  7-O ,  8-H ) :   0.9025

Dispersion correction           -0.000261836
FINAL SINGLE POINT ENERGY      -115.732071293664

DIPOLE MOMENT
-------------
                                X             Y             Z
Electronic contribution:      1.51835       0.97285      -0.77298
Nuclear contribution   :     -1.73040      -1.67770       0.77340
                        -----------------------------------------
Total Dipole Moment    :     -0.21205      -0.70485       0.00042
                        -----------------------------------------
Magnitude (a.u.)       :      0.73606
Magnitude (Debye)      :      1.87091

Rotational constants in cm-1:     4.235808     0.794174     0.758495
Rotational constants in MHz : 126986.314737 23808.725359 22739.105553

                             ****ORCA TERMINATED NORMALLY****
TOTAL RUN TIME: 0 days 0 hours 1 minutes 10 seconds 861 msec
