                         Program Version 4.1.2  - RELEASE  -
|  1> #Run DFT-D3 single point of the dimer
|  2> ! wB97X-D3 def2-TZVP TIGHTSCF CHELPG PMODEL PAL8
|  3>
|  4> %base "2-20_DFT_AB"
|  5>
|  6> %scf
|  7> MaxIter 1000
|  8> end
|  9>
| 10> * xyz 0 1
| 11>   C                      3.461109             3.222378             4.105244
| 12>   O                      3.157580             2.071432             3.453058
| 13>   H                      2.370845             1.638740             3.819682
| 14>   H                      3.982423             3.051816             5.032330
| 15>   H                      4.203252             3.873688             3.594400
| 16>   H                      2.649209             3.897304             4.300673
| 17>   C                      7.947576             2.902656             3.136526
| 18>   O                      7.448989             4.167709             2.786762
| 19>   H                      7.372566             4.238832             1.809734
| 20>   H                      9.033967             2.850588             3.156712
| 21>   H                      7.690533             2.580126             4.118163
| 22>   H                      7.591214             2.235647             2.271137
| 23> *
| 24>
| 25> #Run DFT-D3 single point of the molecule with dimer basis set
| 26> $new_job
| 27> %base "2-20_DFT_A"
| 28> ! wB97X-D3 def2-TZVP TIGHTSCF CHELPG PMODEL
| 29>
| 30> %scf
| 31> MaxIter 1000
| 32> end
| 33>
| 34> * xyz 0 1
| 35>   C                      3.461109             3.222378             4.105244
| 36>   O                      3.157580             2.071432             3.453058
| 37>   H                      2.370845             1.638740             3.819682
| 38>   H                      3.982423             3.051816             5.032330
| 39>   H                      4.203252             3.873688             3.594400
| 40>   H                      2.649209             3.897304             4.300673
| 41>   C                    : 7.947576             2.902656             3.136526
| 42>   O                    : 7.448989             4.167709             2.786762
| 43>   H                    : 7.372566             4.238832             1.809734
| 44>   H                    : 9.033967             2.850588             3.156712
| 45>   H                    : 7.690533             2.580126             4.118163
| 46>   H                    : 7.591214             2.235647             2.271137
| 47> *
| 48>
| 49> #Run DFT-D3 single point of the particle with dimer basis set
| 50> $new_job
| 51> %base "2-20_DFT_B"
| 52> ! wB97X-D3 def2-TZVP TIGHTSCF CHELPG PMODEL
| 53>
| 54> %scf
| 55> MaxIter 1000
| 56> end
| 57>
| 58> * xyz 0 1
| 59>   C                    : 3.461109             3.222378             4.105244
| 60>   O                    : 3.157580             2.071432             3.453058
| 61>   H                    : 2.370845             1.638740             3.819682
| 62>   H                    : 3.982423             3.051816             5.032330
| 63>   H                    : 4.203252             3.873688             3.594400
| 64>   H                    : 2.649209             3.897304             4.300673
| 65>   C                      7.947576             2.902656             3.136526
| 66>   O                      7.448989             4.167709             2.786762
| 67>   H                      7.372566             4.238832             1.809734
| 68>   H                      9.033967             2.850588             3.156712
| 69>   H                      7.690533             2.580126             4.118163
| 70>   H                      7.591214             2.235647             2.271137
| 71> *
| 72>
| 73>                          ****END OF INPUT****
 Total Charge           Charge          ....    0
 Multiplicity           Mult            ....    1
 Number of Electrons    NEL             ....   36
Dispersion correction           -0.001120570
FINAL SINGLE POINT ENERGY      -231.460014106852
Dispersion correction           -0.000243364
FINAL SINGLE POINT ENERGY      -115.730903062144

CARTESIAN COORDINATES (ANGSTROEM)
---------------------------------
  C      3.461109    3.222378    4.105244
  O      3.157580    2.071432    3.453058
  H      2.370845    1.638740    3.819682
  H      3.982423    3.051816    5.032330
  H      4.203252    3.873688    3.594400
  H      2.649209    3.897304    4.300673
  C      7.947576    2.902656    3.136526
  O      7.448989    4.167709    2.786762
  H      7.372566    4.238832    1.809734
  H      9.033967    2.850588    3.156712
  H      7.690533    2.580126    4.118163
  H      7.591214    2.235647    2.271137

 Multiplicity           Mult            ....    1
 Number of Electrons    NEL             ....   18
 Basis Dimension        Dim             ....  172

ORBITAL ENERGIES
----------------

  NO   OCC          E(Eh)            E(eV)
   0   2.0000     -19.230732      -523.2948
   1   2.0000     -10.315676      -280.7038
   2   2.0000      -1.134639       -30.8751
   3   2.0000      -0.793569       -21.5941
   4   2.0000      -0.607944       -16.5430
   5   2.0000      -0.548613       -14.9285
   6   2.0000      -0.531116       -14.4524
   7   2.0000      -0.426170       -11.5967
   8   2.0000      -0.368326       -10.0227
   9   0.0000       0.088870         2.4183
  10   0.0000       0.109101         2.9688
  11   0.0000       0.153153         4.1675
  12   0.0000       0.168952         4.5974
  13   0.0000       0.194654         5.2968

MULLIKEN ATOMIC CHARGES
-----------------------
   0 C :    0.002405
   1 O :   -0.000027
   2 H :   -0.000002
   3 H :   -0.000261
   4 H :   -0.005702
   5 H :   -0.000162
   6 C :   -0.160393
   7 O :   -0.474808
   8 H :    0.322135
   9 H :    0.101397
  10 H :    0.118957
  11 H :    0.096460
Sum of atomic charges:    0.0000000

LOEWDIN ATOMIC CHARGES
----------------------
   0 C :   -0.000626
   1 O :   -0.000023
   2 H :   -0.000001
   3 H :   -0.000053
   4 H :   -0.002804
   5 H :   -0.000006
   6 C :   -0.393976
   7 O :   -0.083516
   8 H :    0.184186
   9 H :    0.091089
  10 H :    0.098012
  11 H :    0.107717

  Mayer bond orders larger than 0.1
B(  6-C ,  7-O ) :   0.9993 B(  6-C ,  9-H ) :   0.9675 B(  6-C , 10-H ) :   0.9739
B(  6-C , 11-H ) :   0.9975 B(  7-O ,  8-H ) :   0.8921

Dispersion correction           -0.000237150
FINAL SINGLE POINT ENERGY      -115.727771434897

DIPOLE MOMENT
-------------
                                X             Y             Z
Electronic contribution:     -0.68434       1.67882      -0.14530
Nuclear contribution   :      0.84692      -2.11961      -0.32289
                        -----------------------------------------
Total Dipole Moment    :      0.16258      -0.44079      -0.46819
                        -----------------------------------------
Magnitude (a.u.)       :      0.66327
Magnitude (Debye)      :      1.68591

Rotational constants in cm-1:     4.244258     0.845980     0.801025
Rotational constants in MHz : 127239.659947 25361.846355 24014.123628

                             ****ORCA TERMINATED NORMALLY****
TOTAL RUN TIME: 0 days 0 hours 5 minutes 42 seconds 72 msec
