                         Program Version 4.1.2  - RELEASE  -
|  1> #Run DFT-D3 single point of the dimer
|  2> ! wB97X-D3 def2-TZVP TIGHTSCF CHELPG PMODEL PAL8
|  3>
|  4> %base "16-1_DFT_AB"
|  5>
|  6> %scf
|  7> MaxIter 1000
|  8> end
|  9>
| 10> * xyz 0 1
| 11>   C                      -3.613576            2.949622             3.934506
| 12>   O                      -3.601508            3.698823             5.159507
| 13>   H                      -2.638820            3.713132             5.390762
| 14>   H                      -2.909974            3.467466             3.239017
| 15>   H                      -3.265800            1.935287             3.994618
| 16>   H                      -4.596142            2.930245             3.440482
| 17>   C                      -6.453457            -0.292748            3.025583
| 18>   O                      -7.118976            0.113840             4.133951
| 19>   H                      -6.482829            0.713591             4.577241
| 20>   H                      -7.026724            -1.111261            2.492437
| 21>   H                      -6.333896            0.490249             2.235554
| 22>   H                      -5.489757            -0.618275            3.381762
| 23> *
| 24>
| 25> #Run DFT-D3 single point of the molecule with dimer basis set
| 26> $new_job
| 27> %base "16-1_DFT_A"
| 28> ! wB97X-D3 def2-TZVP TIGHTSCF CHELPG PMODEL
| 29>
| 30> %scf
| 31> MaxIter 1000
| 32> end
| 33>
| 34> * xyz 0 1
| 35>   C                      -3.613576            2.949622             3.934506
| 36>   O                      -3.601508            3.698823             5.159507
| 37>   H                      -2.638820            3.713132             5.390762
| 38>   H                      -2.909974            3.467466             3.239017
| 39>   H                      -3.265800            1.935287             3.994618
| 40>   H                      -4.596142            2.930245             3.440482
| 41>   C                    : -6.453457            -0.292748            3.025583
| 42>   O                    : -7.118976            0.113840             4.133951
| 43>   H                    : -6.482829            0.713591             4.577241
| 44>   H                    : -7.026724            -1.111261            2.492437
| 45>   H                    : -6.333896            0.490249             2.235554
| 46>   H                    : -5.489757            -0.618275            3.381762
| 47> *
| 48>
| 49> #Run DFT-D3 single point of the particle with dimer basis set
| 50> $new_job
| 51> %base "16-1_DFT_B"
| 52> ! wB97X-D3 def2-TZVP TIGHTSCF CHELPG PMODEL
| 53>
| 54> %scf
| 55> MaxIter 1000
| 56> end
| 57>
| 58> * xyz 0 1
| 59>   C                    : -3.613576            2.949622             3.934506
| 60>   O                    : -3.601508            3.698823             5.159507
| 61>   H                    : -2.638820            3.713132             5.390762
| 62>   H                    : -2.909974            3.467466             3.239017
| 63>   H                    : -3.265800            1.935287             3.994618
| 64>   H                    : -4.596142            2.930245             3.440482
| 65>   C                      -6.453457            -0.292748            3.025583
| 66>   O                      -7.118976            0.113840             4.133951
| 67>   H                      -6.482829            0.713591             4.577241
| 68>   H                      -7.026724            -1.111261            2.492437
| 69>   H                      -6.333896            0.490249             2.235554
| 70>   H                      -5.489757            -0.618275            3.381762
| 71> *
| 72>
| 73>                          ****END OF INPUT****
 Total Charge           Charge          ....    0
 Multiplicity           Mult            ....    1
 Number of Electrons    NEL             ....   36
Dispersion correction           -0.001270906
FINAL SINGLE POINT ENERGY      -231.462126319001
Dispersion correction           -0.000238810
FINAL SINGLE POINT ENERGY      -115.732055512307

CARTESIAN COORDINATES (ANGSTROEM)
---------------------------------
  C     -3.613576    2.949622    3.934506
  O     -3.601508    3.698823    5.159507
  H     -2.638820    3.713132    5.390762
  H     -2.909974    3.467466    3.239017
  H     -3.265800    1.935287    3.994618
  H     -4.596142    2.930245    3.440482
  C     -6.453457   -0.292748    3.025583
  O     -7.118976    0.113840    4.133951
  H     -6.482829    0.713591    4.577241
  H     -7.026724   -1.111261    2.492437
  H     -6.333896    0.490249    2.235554
  H     -5.489757   -0.618275    3.381762

 Multiplicity           Mult            ....    1
 Number of Electrons    NEL             ....   18
 Basis Dimension        Dim             ....  172

ORBITAL ENERGIES
----------------

  NO   OCC          E(Eh)            E(eV)
   0   2.0000     -19.232600      -523.3456
   1   2.0000     -10.313048      -280.6323
   2   2.0000      -1.156924       -31.4815
   3   2.0000      -0.783817       -21.3287
   4   2.0000      -0.619373       -16.8540
   5   2.0000      -0.555647       -15.1199
   6   2.0000      -0.529069       -14.3967
   7   2.0000      -0.429340       -11.6829
   8   2.0000      -0.368288       -10.0216
   9   0.0000       0.069899         1.9021
  10   0.0000       0.118044         3.2121
  11   0.0000       0.149482         4.0676
  12   0.0000       0.168980         4.5982
  13   0.0000       0.180818         4.9203

MULLIKEN ATOMIC CHARGES
-----------------------
   0 C :   -0.000265
   1 O :    0.000047
   2 H :    0.000004
   3 H :    0.000036
   4 H :   -0.000274
   5 H :    0.000022
   6 C :   -0.152563
   7 O :   -0.451893
   8 H :    0.317368
   9 H :    0.111514
  10 H :    0.085064
  11 H :    0.090941
Sum of atomic charges:    0.0000000

LOEWDIN ATOMIC CHARGES
----------------------
   0 C :   -0.000878
   1 O :   -0.000008
   2 H :   -0.000001
   3 H :   -0.000015
   4 H :   -0.000201
   5 H :   -0.000495
   6 C :   -0.442007
   7 O :   -0.041465
   8 H :    0.188895
   9 H :    0.114206
  10 H :    0.092040
  11 H :    0.089930

  Mayer bond orders larger than 0.1
B(  6-C ,  7-O ) :   1.0081 B(  6-C ,  9-H ) :   0.9716 B(  6-C , 10-H ) :   0.9677
B(  6-C , 11-H ) :   0.9948 B(  7-O ,  8-H ) :   0.8968

Dispersion correction           -0.000206607
FINAL SINGLE POINT ENERGY      -115.728938677417

DIPOLE MOMENT
-------------
                                X             Y             Z
Electronic contribution:     -1.01599       0.44929       1.49185
Nuclear contribution   :      1.63605      -0.22992      -1.58940
                        -----------------------------------------
Total Dipole Moment    :      0.62006       0.21937      -0.09756
                        -----------------------------------------
Magnitude (a.u.)       :      0.66491
Magnitude (Debye)      :      1.69007

Rotational constants in cm-1:     4.127675     0.898289     0.856937
Rotational constants in MHz : 123744.579121 26930.039758 25690.333445

                             ****ORCA TERMINATED NORMALLY****
TOTAL RUN TIME: 0 days 0 hours 1 minutes 4 seconds 684 msec
