                         Program Version 4.1.2  - RELEASE  -
|  1> #Run DFT-D3 single point of the dimer
|  2> ! wB97X-D3 def2-TZVP TIGHTSCF CHELPG PMODEL PAL8
|  3>
|  4> %base "10-105_DFT_AB"
|  5>
|  6> %scf
|  7> MaxIter 1000
|  8> end
|  9>
| 10> * xyz 0 1
| 11>   C                      5.369477             -6.342536            -0.441178
| 12>   O                      5.334754             -5.019816            0.209316
| 13>   H                      4.689948             -4.385982            -0.258636
| 14>   H                      5.435570             -7.157379            0.285672
| 15>   H                      4.490291             -6.557346            -0.960870
| 16>   H                      6.075459             -6.414477            -1.304671
| 17>   C                      7.749190             -8.148182            -2.780559
| 18>   O                      8.393425             -8.818882            -1.696221
| 19>   H                      8.348351             -9.776244            -1.949852
| 20>   H                      8.096929             -8.590309            -3.747867
| 21>   H                      6.636254             -8.120923            -2.809350
| 22>   H                      8.009079             -7.099678            -2.855379
| 23> *
| 24>
| 25> #Run DFT-D3 single point of the molecule with dimer basis set
| 26> $new_job
| 27> %base "10-105_DFT_A"
| 28> ! wB97X-D3 def2-TZVP TIGHTSCF CHELPG PMODEL
| 29>
| 30> %scf
| 31> MaxIter 1000
| 32> end
| 33>
| 34> * xyz 0 1
| 35>   C                      5.369477             -6.342536            -0.441178
| 36>   O                      5.334754             -5.019816            0.209316
| 37>   H                      4.689948             -4.385982            -0.258636
| 38>   H                      5.435570             -7.157379            0.285672
| 39>   H                      4.490291             -6.557346            -0.960870
| 40>   H                      6.075459             -6.414477            -1.304671
| 41>   C                    : 7.749190             -8.148182            -2.780559
| 42>   O                    : 8.393425             -8.818882            -1.696221
| 43>   H                    : 8.348351             -9.776244            -1.949852
| 44>   H                    : 8.096929             -8.590309            -3.747867
| 45>   H                    : 6.636254             -8.120923            -2.809350
| 46>   H                    : 8.009079             -7.099678            -2.855379
| 47> *
| 48>
| 49> #Run DFT-D3 single point of the particle with dimer basis set
| 50> $new_job
| 51> %base "10-105_DFT_B"
| 52> ! wB97X-D3 def2-TZVP TIGHTSCF CHELPG PMODEL
| 53>
| 54> %scf
| 55> MaxIter 1000
| 56> end
| 57>
| 58> * xyz 0 1
| 59>   C                    : 5.369477             -6.342536            -0.441178
| 60>   O                    : 5.334754             -5.019816            0.209316
| 61>   H                    : 4.689948             -4.385982            -0.258636
| 62>   H                    : 5.435570             -7.157379            0.285672
| 63>   H                    : 4.490291             -6.557346            -0.960870
| 64>   H                    : 6.075459             -6.414477            -1.304671
| 65>   C                      7.749190             -8.148182            -2.780559
| 66>   O                      8.393425             -8.818882            -1.696221
| 67>   H                      8.348351             -9.776244            -1.949852
| 68>   H                      8.096929             -8.590309            -3.747867
| 69>   H                      6.636254             -8.120923            -2.809350
| 70>   H                      8.009079             -7.099678            -2.855379
| 71> *
| 72>
| 73>                          ****END OF INPUT****
 Total Charge           Charge          ....    0
 Multiplicity           Mult            ....    1
 Number of Electrons    NEL             ....   36
Dispersion correction           -0.001580272
FINAL SINGLE POINT ENERGY      -231.454248773644
Dispersion correction           -0.000291350
FINAL SINGLE POINT ENERGY      -115.722623649857

CARTESIAN COORDINATES (ANGSTROEM)
---------------------------------
  C      5.369477   -6.342536   -0.441178
  O      5.334754   -5.019816    0.209316
  H      4.689948   -4.385982   -0.258636
  H      5.435570   -7.157379    0.285672
  H      4.490291   -6.557346   -0.960870
  H      6.075459   -6.414477   -1.304671
  C      7.749190   -8.148182   -2.780559
  O      8.393425   -8.818882   -1.696221
  H      8.348351   -9.776244   -1.949852
  H      8.096929   -8.590309   -3.747867
  H      6.636254   -8.120923   -2.809350
  H      8.009079   -7.099678   -2.855379

 Multiplicity           Mult            ....    1
 Number of Electrons    NEL             ....   18
 Basis Dimension        Dim             ....  172

ORBITAL ENERGIES
----------------

  NO   OCC          E(Eh)            E(eV)
   0   2.0000     -19.238964      -523.5188
   1   2.0000     -10.318301      -280.7752
   2   2.0000      -1.130883       -30.7729
   3   2.0000      -0.792340       -21.5607
   4   2.0000      -0.604383       -16.4461
   5   2.0000      -0.537014       -14.6129
   6   2.0000      -0.526685       -14.3318
   7   2.0000      -0.435018       -11.8374
   8   2.0000      -0.376208       -10.2371
   9   0.0000       0.088474         2.4075
  10   0.0000       0.114140         3.1059
  11   0.0000       0.148483         4.0404
  12   0.0000       0.168839         4.5943
  13   0.0000       0.189725         5.1627

MULLIKEN ATOMIC CHARGES
-----------------------
   0 C :    0.004692
   1 O :    0.000000
   2 H :    0.000000
   3 H :   -0.000785
   4 H :   -0.000878
   5 H :   -0.003667
   6 C :   -0.189355
   7 O :   -0.463293
   8 H :    0.320382
   9 H :    0.106316
  10 H :    0.104914
  11 H :    0.121673
Sum of atomic charges:    0.0000000

LOEWDIN ATOMIC CHARGES
----------------------
   0 C :   -0.003192
   1 O :   -0.000015
   2 H :   -0.000002
   3 H :   -0.000258
   4 H :   -0.000276
   5 H :   -0.005884
   6 C :   -0.390086
   7 O :   -0.095052
   8 H :    0.190718
   9 H :    0.099823
  10 H :    0.099145
  11 H :    0.105079

  Mayer bond orders larger than 0.1
B(  6-C ,  7-O ) :   1.0143 B(  6-C ,  9-H ) :   0.9805 B(  6-C , 10-H ) :   0.9639
B(  6-C , 11-H ) :   0.9749 B(  7-O ,  8-H ) :   0.8950

Dispersion correction           -0.000264252
FINAL SINGLE POINT ENERGY      -115.731633352930

DIPOLE MOMENT
-------------
                                X             Y             Z
Electronic contribution:      0.86997      -0.74722       1.63770
Nuclear contribution   :     -1.12545       0.43669      -2.22067
                        -----------------------------------------
Total Dipole Moment    :     -0.25549      -0.31053      -0.58297
                        -----------------------------------------
Magnitude (a.u.)       :      0.70821
Magnitude (Debye)      :      1.80013

Rotational constants in cm-1:     4.289294     0.806026     0.777263
Rotational constants in MHz : 128589.808990 24164.061797 23301.770185

                             ****ORCA TERMINATED NORMALLY****
TOTAL RUN TIME: 0 days 0 hours 1 minutes 2 seconds 562 msec
