                         Program Version 4.1.2  - RELEASE  -
|  1> #Run DFT-D3 single point of the dimer
|  2> ! wB97X-D3 def2-TZVP TIGHTSCF CHELPG PMODEL PAL8
|  3>
|  4> %base "17-140_DFT_AB"
|  5>
|  6> %scf
|  7> MaxIter 1000
|  8> end
|  9>
| 10> * xyz 0 1
| 11>   C                      2.761676             -6.208087            3.528277
| 12>   O                      3.031626             -7.417651            2.918432
| 13>   H                      2.459564             -7.478778            2.192738
| 14>   H                      3.046349             -6.231249            4.572474
| 15>   H                      3.447008             -5.440362            3.205289
| 16>   H                      1.725867             -5.883107            3.328720
| 17>   C                      4.150978             -8.128373            6.746829
| 18>   O                      2.942446             -8.051639            7.445217
| 19>   H                      2.835068             -7.172341            7.782196
| 20>   H                      3.960179             -7.619016            5.778726
| 21>   H                      4.960546             -7.596341            7.237245
| 22>   H                      4.481966             -9.161602            6.621460
| 23> *
| 24>
| 25> #Run DFT-D3 single point of the molecule with dimer basis set
| 26> $new_job
| 27> %base "17-140_DFT_A"
| 28> ! wB97X-D3 def2-TZVP TIGHTSCF CHELPG PMODEL
| 29>
| 30> %scf
| 31> MaxIter 1000
| 32> end
| 33>
| 34> * xyz 0 1
| 35>   C                      2.761676             -6.208087            3.528277
| 36>   O                      3.031626             -7.417651            2.918432
| 37>   H                      2.459564             -7.478778            2.192738
| 38>   H                      3.046349             -6.231249            4.572474
| 39>   H                      3.447008             -5.440362            3.205289
| 40>   H                      1.725867             -5.883107            3.328720
| 41>   C                    : 4.150978             -8.128373            6.746829
| 42>   O                    : 2.942446             -8.051639            7.445217
| 43>   H                    : 2.835068             -7.172341            7.782196
| 44>   H                    : 3.960179             -7.619016            5.778726
| 45>   H                    : 4.960546             -7.596341            7.237245
| 46>   H                    : 4.481966             -9.161602            6.621460
| 47> *
| 48>
| 49> #Run DFT-D3 single point of the particle with dimer basis set
| 50> $new_job
| 51> %base "17-140_DFT_B"
| 52> ! wB97X-D3 def2-TZVP TIGHTSCF CHELPG PMODEL
| 53>
| 54> %scf
| 55> MaxIter 1000
| 56> end
| 57>
| 58> * xyz 0 1
| 59>   C                    : 2.761676             -6.208087            3.528277
| 60>   O                    : 3.031626             -7.417651            2.918432
| 61>   H                    : 2.459564             -7.478778            2.192738
| 62>   H                    : 3.046349             -6.231249            4.572474
| 63>   H                    : 3.447008             -5.440362            3.205289
| 64>   H                    : 1.725867             -5.883107            3.328720
| 65>   C                      4.150978             -8.128373            6.746829
| 66>   O                      2.942446             -8.051639            7.445217
| 67>   H                      2.835068             -7.172341            7.782196
| 68>   H                      3.960179             -7.619016            5.778726
| 69>   H                      4.960546             -7.596341            7.237245
| 70>   H                      4.481966             -9.161602            6.621460
| 71> *
| 72>
| 73>                          ****END OF INPUT****
 Total Charge           Charge          ....    0
 Multiplicity           Mult            ....    1
 Number of Electrons    NEL             ....   36
Dispersion correction           -0.001507404
FINAL SINGLE POINT ENERGY      -231.465369823329
Dispersion correction           -0.000222216
FINAL SINGLE POINT ENERGY      -115.730759619333

CARTESIAN COORDINATES (ANGSTROEM)
---------------------------------
  C      2.761676   -6.208087    3.528277
  O      3.031626   -7.417651    2.918432
  H      2.459564   -7.478778    2.192738
  H      3.046349   -6.231249    4.572474
  H      3.447008   -5.440362    3.205289
  H      1.725867   -5.883107    3.328720
  C      4.150978   -8.128373    6.746829
  O      2.942446   -8.051639    7.445217
  H      2.835068   -7.172341    7.782196
  H      3.960179   -7.619016    5.778726
  H      4.960546   -7.596341    7.237245
  H      4.481966   -9.161602    6.621460

 Multiplicity           Mult            ....    1
 Number of Electrons    NEL             ....   18
 Basis Dimension        Dim             ....  172

ORBITAL ENERGIES
----------------

  NO   OCC          E(Eh)            E(eV)
   0   2.0000     -19.226451      -523.1783
   1   2.0000     -10.312105      -280.6067
   2   2.0000      -1.142445       -31.0875
   3   2.0000      -0.794848       -21.6289
   4   2.0000      -0.615067       -16.7368
   5   2.0000      -0.547052       -14.8860
   6   2.0000      -0.527599       -14.3567
   7   2.0000      -0.432531       -11.7698
   8   2.0000      -0.369415       -10.0523
   9   0.0000       0.086338         2.3494
  10   0.0000       0.120803         3.2872
  11   0.0000       0.158907         4.3241
  12   0.0000       0.168920         4.5965
  13   0.0000       0.192266         5.2318

MULLIKEN ATOMIC CHARGES
-----------------------
   0 C :   -0.004239
   1 O :   -0.000153
   2 H :   -0.000102
   3 H :    0.007782
   4 H :    0.000593
   5 H :   -0.000176
   6 C :   -0.150219
   7 O :   -0.474858
   8 H :    0.314305
   9 H :    0.083818
  10 H :    0.102823
  11 H :    0.120426
Sum of atomic charges:    0.0000000

LOEWDIN ATOMIC CHARGES
----------------------
   0 C :   -0.006208
   1 O :   -0.000810
   2 H :   -0.000060
   3 H :   -0.007253
   4 H :   -0.000078
   5 H :   -0.000073
   6 C :   -0.390125
   7 O :   -0.062349
   8 H :    0.162117
   9 H :    0.104615
  10 H :    0.092233
  11 H :    0.107992

  Mayer bond orders larger than 0.1
B(  6-C ,  7-O ) :   0.9938 B(  6-C ,  9-H ) :   0.9826 B(  6-C , 10-H ) :   0.9812
B(  6-C , 11-H ) :   0.9725 B(  7-O ,  8-H ) :   0.9001

Dispersion correction           -0.000223082
FINAL SINGLE POINT ENERGY      -115.734509055325

DIPOLE MOMENT
-------------
                                X             Y             Z
Electronic contribution:     -1.54190      -0.11398       0.91624
Nuclear contribution   :      1.95545       0.64709      -0.94911
                        -----------------------------------------
Total Dipole Moment    :      0.41355       0.53312      -0.03286
                        -----------------------------------------
Magnitude (a.u.)       :      0.67551
Magnitude (Debye)      :      1.71702

Rotational constants in cm-1:     4.284290     0.849209     0.820033
Rotational constants in MHz : 128439.777428 25458.638052 24583.961345

                             ****ORCA TERMINATED NORMALLY****
TOTAL RUN TIME: 0 days 0 hours 1 minutes 12 seconds 176 msec
