                         Program Version 4.1.2  - RELEASE  -
|  1> #Run DFT-D3 single point of the dimer
|  2> ! wB97X-D3 def2-TZVP TIGHTSCF CHELPG PMODEL PAL8
|  3>
|  4> %base "12-139_DFT_AB"
|  5>
|  6> %scf
|  7> MaxIter 1000
|  8> end
|  9>
| 10> * xyz 0 1
| 11>   C                      -10.283493           9.978408             -10.275157
| 12>   O                      -11.267189           9.607481             -11.187153
| 13>   H                      -11.688770           10.407846            -11.472604
| 14>   H                      -10.659074           10.881572            -9.761317
| 15>   H                      -10.135264           9.323717             -9.439951
| 16>   H                      -9.326250            10.102060            -10.736704
| 17>   C                      -6.268727            11.277316            -9.526417
| 18>   O                      -6.726809            9.977676             -9.779781
| 19>   H                      -6.249792            9.392314             -9.217543
| 20>   H                      -6.790519            12.038245            -10.034972
| 21>   H                      -6.384330            11.459130            -8.478355
| 22>   H                      -5.215842            11.322579            -9.836590
| 23> *
| 24>
| 25> #Run DFT-D3 single point of the molecule with dimer basis set
| 26> $new_job
| 27> %base "12-139_DFT_A"
| 28> ! wB97X-D3 def2-TZVP TIGHTSCF CHELPG PMODEL
| 29>
| 30> %scf
| 31> MaxIter 1000
| 32> end
| 33>
| 34> * xyz 0 1
| 35>   C                      -10.283493           9.978408             -10.275157
| 36>   O                      -11.267189           9.607481             -11.187153
| 37>   H                      -11.688770           10.407846            -11.472604
| 38>   H                      -10.659074           10.881572            -9.761317
| 39>   H                      -10.135264           9.323717             -9.439951
| 40>   H                      -9.326250            10.102060            -10.736704
| 41>   C                    : -6.268727            11.277316            -9.526417
| 42>   O                    : -6.726809            9.977676             -9.779781
| 43>   H                    : -6.249792            9.392314             -9.217543
| 44>   H                    : -6.790519            12.038245            -10.034972
| 45>   H                    : -6.384330            11.459130            -8.478355
| 46>   H                    : -5.215842            11.322579            -9.836590
| 47> *
| 48>
| 49> #Run DFT-D3 single point of the particle with dimer basis set
| 50> $new_job
| 51> %base "12-139_DFT_B"
| 52> ! wB97X-D3 def2-TZVP TIGHTSCF CHELPG PMODEL
| 53>
| 54> %scf
| 55> MaxIter 1000
| 56> end
| 57>
| 58> * xyz 0 1
| 59>   C                    : -10.283493           9.978408             -10.275157
| 60>   O                    : -11.267189           9.607481             -11.187153
| 61>   H                    : -11.688770           10.407846            -11.472604
| 62>   H                    : -10.659074           10.881572            -9.761317
| 63>   H                    : -10.135264           9.323717             -9.439951
| 64>   H                    : -9.326250            10.102060            -10.736704
| 65>   C                      -6.268727            11.277316            -9.526417
| 66>   O                      -6.726809            9.977676             -9.779781
| 67>   H                      -6.249792            9.392314             -9.217543
| 68>   H                      -6.790519            12.038245            -10.034972
| 69>   H                      -6.384330            11.459130            -8.478355
| 70>   H                      -5.215842            11.322579            -9.836590
| 71> *
| 72>
| 73>                          ****END OF INPUT****
 Total Charge           Charge          ....    0
 Multiplicity           Mult            ....    1
 Number of Electrons    NEL             ....   36
Dispersion correction           -0.001375669
FINAL SINGLE POINT ENERGY      -231.465119495784
Dispersion correction           -0.000224785
FINAL SINGLE POINT ENERGY      -115.730661646161

CARTESIAN COORDINATES (ANGSTROEM)
---------------------------------
  C    -10.283493    9.978408  -10.275157
  O    -11.267189    9.607481  -11.187153
  H    -11.688770   10.407846  -11.472604
  H    -10.659074   10.881572   -9.761317
  H    -10.135264    9.323717   -9.439951
  H     -9.326250   10.102060  -10.736704
  C     -6.268727   11.277316   -9.526417
  O     -6.726809    9.977676   -9.779781
  H     -6.249792    9.392314   -9.217543
  H     -6.790519   12.038245  -10.034972
  H     -6.384330   11.459130   -8.478355
  H     -5.215842   11.322579   -9.836590

 Multiplicity           Mult            ....    1
 Number of Electrons    NEL             ....   18
 Basis Dimension        Dim             ....  172

ORBITAL ENERGIES
----------------

  NO   OCC          E(Eh)            E(eV)
   0   2.0000     -19.224988      -523.1385
   1   2.0000     -10.305528      -280.4277
   2   2.0000      -1.143031       -31.1035
   3   2.0000      -0.800575       -21.7847
   4   2.0000      -0.611254       -16.6331
   5   2.0000      -0.550690       -14.9850
   6   2.0000      -0.539620       -14.6838
   7   2.0000      -0.430110       -11.7039
   8   2.0000      -0.371399       -10.1063
   9   0.0000       0.097590         2.6556
  10   0.0000       0.121559         3.3078
  11   0.0000       0.157622         4.2891
  12   0.0000       0.180502         4.9117
  13   0.0000       0.200424         5.4538

MULLIKEN ATOMIC CHARGES
-----------------------
   0 C :    0.001223
   1 O :   -0.000081
   2 H :   -0.000016
   3 H :   -0.000411
   4 H :   -0.002577
   5 H :   -0.004064
   6 C :   -0.155268
   7 O :   -0.470030
   8 H :    0.310538
   9 H :    0.119718
  10 H :    0.102252
  11 H :    0.098717
Sum of atomic charges:   -0.0000000

LOEWDIN ATOMIC CHARGES
----------------------
   0 C :   -0.005585
   1 O :   -0.000029
   2 H :   -0.000013
   3 H :   -0.000067
   4 H :   -0.001122
   5 H :   -0.005477
   6 C :   -0.381100
   7 O :   -0.054351
   8 H :    0.158280
   9 H :    0.099178
  10 H :    0.091991
  11 H :    0.098295

  Mayer bond orders larger than 0.1
B(  6-C ,  7-O ) :   0.9856 B(  6-C ,  9-H ) :   0.9730 B(  6-C , 10-H ) :   0.9854
B(  6-C , 11-H ) :   0.9800 B(  7-O ,  8-H ) :   0.9020

Dispersion correction           -0.000207431
FINAL SINGLE POINT ENERGY      -115.732978799042

DIPOLE MOMENT
-------------
                                X             Y             Z
Electronic contribution:     -0.72819      -1.52745      -0.45336
Nuclear contribution   :      1.21103       1.69038       0.91402
                        -----------------------------------------
Total Dipole Moment    :      0.48284       0.16294       0.46066
                        -----------------------------------------
Magnitude (a.u.)       :      0.68694
Magnitude (Debye)      :      1.74607

Rotational constants in cm-1:     4.428160     0.849664     0.826955
Rotational constants in MHz : 132752.891795 25472.300890 24791.495605

                             ****ORCA TERMINATED NORMALLY****
TOTAL RUN TIME: 0 days 0 hours 1 minutes 4 seconds 684 msec
