                         Program Version 4.1.2  - RELEASE  -
|  1> #Run DFT-D3 single point of the dimer
|  2> ! wB97X-D3 def2-TZVP TIGHTSCF CHELPG PMODEL PAL8
|  3>
|  4> %base "11-26_DFT_AB"
|  5>
|  6> %scf
|  7> MaxIter 1000
|  8> end
|  9>
| 10> * xyz 0 1
| 11>   C                      -8.448119            2.442185             -5.118233
| 12>   O                      -7.831945            1.753476             -4.059607
| 13>   H                      -8.251878            0.862124             -3.916511
| 14>   H                      -9.518605            2.289483             -5.032777
| 15>   H                      -8.197066            3.464053             -5.152794
| 16>   H                      -8.176135            2.038059             -6.035437
| 17>   C                      -6.021615            2.934555             -8.492987
| 18>   O                      -5.141594            3.811978             -9.244973
| 19>   H                      -5.640391            4.497525             -9.594780
| 20>   H                      -5.572654            2.037681             -8.087284
| 21>   H                      -6.486371            3.436611             -7.618485
| 22>   H                      -6.830340            2.602840             -9.088502
| 23> *
| 24>
| 25> #Run DFT-D3 single point of the molecule with dimer basis set
| 26> $new_job
| 27> %base "11-26_DFT_A"
| 28> ! wB97X-D3 def2-TZVP TIGHTSCF CHELPG PMODEL
| 29>
| 30> %scf
| 31> MaxIter 1000
| 32> end
| 33>
| 34> * xyz 0 1
| 35>   C                      -8.448119            2.442185             -5.118233
| 36>   O                      -7.831945            1.753476             -4.059607
| 37>   H                      -8.251878            0.862124             -3.916511
| 38>   H                      -9.518605            2.289483             -5.032777
| 39>   H                      -8.197066            3.464053             -5.152794
| 40>   H                      -8.176135            2.038059             -6.035437
| 41>   C                    : -6.021615            2.934555             -8.492987
| 42>   O                    : -5.141594            3.811978             -9.244973
| 43>   H                    : -5.640391            4.497525             -9.594780
| 44>   H                    : -5.572654            2.037681             -8.087284
| 45>   H                    : -6.486371            3.436611             -7.618485
| 46>   H                    : -6.830340            2.602840             -9.088502
| 47> *
| 48>
| 49> #Run DFT-D3 single point of the particle with dimer basis set
| 50> $new_job
| 51> %base "11-26_DFT_B"
| 52> ! wB97X-D3 def2-TZVP TIGHTSCF CHELPG PMODEL
| 53>
| 54> %scf
| 55> MaxIter 1000
| 56> end
| 57>
| 58> * xyz 0 1
| 59>   C                    : -8.448119            2.442185             -5.118233
| 60>   O                    : -7.831945            1.753476             -4.059607
| 61>   H                    : -8.251878            0.862124             -3.916511
| 62>   H                    : -9.518605            2.289483             -5.032777
| 63>   H                    : -8.197066            3.464053             -5.152794
| 64>   H                    : -8.176135            2.038059             -6.035437
| 65>   C                      -6.021615            2.934555             -8.492987
| 66>   O                      -5.141594            3.811978             -9.244973
| 67>   H                      -5.640391            4.497525             -9.594780
| 68>   H                      -5.572654            2.037681             -8.087284
| 69>   H                      -6.486371            3.436611             -7.618485
| 70>   H                      -6.830340            2.602840             -9.088502
| 71> *
| 72>
| 73>                          ****END OF INPUT****
 Total Charge           Charge          ....    0
 Multiplicity           Mult            ....    1
 Number of Electrons    NEL             ....   36
Dispersion correction           -0.001259703
FINAL SINGLE POINT ENERGY      -231.460790723825
Dispersion correction           -0.000222118
FINAL SINGLE POINT ENERGY      -115.730031666752

CARTESIAN COORDINATES (ANGSTROEM)
---------------------------------
  C     -8.448119    2.442185   -5.118233
  O     -7.831945    1.753476   -4.059607
  H     -8.251878    0.862124   -3.916511
  H     -9.518605    2.289483   -5.032777
  H     -8.197066    3.464053   -5.152794
  H     -8.176135    2.038059   -6.035437
  C     -6.021615    2.934555   -8.492987
  O     -5.141594    3.811978   -9.244973
  H     -5.640391    4.497525   -9.594780
  H     -5.572654    2.037681   -8.087284
  H     -6.486371    3.436611   -7.618485
  H     -6.830340    2.602840   -9.088502

 Multiplicity           Mult            ....    1
 Number of Electrons    NEL             ....   18
 Basis Dimension        Dim             ....  172

ORBITAL ENERGIES
----------------

  NO   OCC          E(Eh)            E(eV)
   0   2.0000     -19.227706      -523.2125
   1   2.0000     -10.313869      -280.6547
   2   2.0000      -1.134065       -30.8595
   3   2.0000      -0.805877       -21.9290
   4   2.0000      -0.611454       -16.6385
   5   2.0000      -0.536598       -14.6016
   6   2.0000      -0.529272       -14.4022
   7   2.0000      -0.436842       -11.8871
   8   2.0000      -0.376897       -10.2559
   9   0.0000       0.082350         2.2409
  10   0.0000       0.121393         3.3033
  11   0.0000       0.143705         3.9104
  12   0.0000       0.164727         4.4825
  13   0.0000       0.184799         5.0286

MULLIKEN ATOMIC CHARGES
-----------------------
   0 C :   -0.000399
   1 O :    0.000011
   2 H :   -0.000002
   3 H :   -0.000116
   4 H :   -0.000141
   5 H :   -0.000405
   6 C :   -0.177750
   7 O :   -0.470653
   8 H :    0.306553
   9 H :    0.126352
  10 H :    0.103078
  11 H :    0.113471
Sum of atomic charges:    0.0000000

LOEWDIN ATOMIC CHARGES
----------------------
   0 C :   -0.002794
   1 O :   -0.000008
   2 H :   -0.000003
   3 H :   -0.000022
   4 H :   -0.000817
   5 H :   -0.001626
   6 C :   -0.352719
   7 O :   -0.078266
   8 H :    0.137567
   9 H :    0.107956
  10 H :    0.101099
  11 H :    0.089633

  Mayer bond orders larger than 0.1
B(  6-C ,  7-O ) :   0.9919 B(  6-C ,  9-H ) :   0.9714 B(  6-C , 10-H ) :   0.9773
B(  6-C , 11-H ) :   0.9776 B(  7-O ,  8-H ) :   0.9098

Dispersion correction           -0.000259534
FINAL SINGLE POINT ENERGY      -115.730333678992

DIPOLE MOMENT
-------------
                                X             Y             Z
Electronic contribution:      1.29707       1.00756      -0.97717
Nuclear contribution   :     -2.00580      -0.95201       1.06160
                        -----------------------------------------
Total Dipole Moment    :     -0.70872       0.05556       0.08443
                        -----------------------------------------
Magnitude (a.u.)       :      0.71589
Magnitude (Debye)      :      1.81966

Rotational constants in cm-1:     4.589584     0.787163     0.763262
Rotational constants in MHz : 137592.263419 23598.546824 22882.010501

                             ****ORCA TERMINATED NORMALLY****
TOTAL RUN TIME: 0 days 0 hours 1 minutes 11 seconds 419 msec
