                         Program Version 4.1.2  - RELEASE  -
|  1> #Run DFT-D3 single point of the dimer
|  2> ! wB97X-D3 def2-TZVP TIGHTSCF  CHELPG PAL8
|  3>
|  4> %base "143_charges"
|  5>
|  6> %scf
|  7> MaxIter 1000
|  8> end
|  9> %output
| 10>   Print[ P_Mayer ] 1
| 11>   Print[ P_NatPop ] 1
| 12>   Print[ P_Hirshfeld ] 1
| 13>   Print[ P_Mulliken ] 1
| 14>   Print [ P_Loewdin ] 1
| 15> end
| 16>
| 17> * xyz 0 1
| 18>   C                      -8.259303            3.037841             6.942832
| 19>   O                      -9.049091            3.622527             7.964065
| 20>   H                      -9.631114            2.930827             8.189547
| 21>   H                      -7.140261            3.179684             7.071656
| 22>   H                      -8.529266            1.972718             6.773229
| 23>   H                      -8.481608            3.653453             6.063671
| 24> *
| 25>
| 26>                          ****END OF INPUT****

CARTESIAN COORDINATES (ANGSTROEM)
---------------------------------
  C     -8.259303    3.037841    6.942832
  O     -9.049091    3.622527    7.964065
  H     -9.631114    2.930827    8.189547
  H     -7.140261    3.179684    7.071656
  H     -8.529266    1.972718    6.773229
  H     -8.481608    3.653453    6.063671

 Total Charge           Charge          ....    0
 Multiplicity           Mult            ....    1
 Number of Electrons    NEL             ....   18
 Basis Dimension        Dim             ....   86

ORBITAL ENERGIES
----------------

  NO   OCC          E(Eh)            E(eV)
   0   2.0000     -19.227964      -523.2195
   1   2.0000     -10.319937      -280.8198
   2   2.0000      -1.145335       -31.1661
   3   2.0000      -0.790383       -21.5074
   4   2.0000      -0.613992       -16.7076
   5   2.0000      -0.531794       -14.4709
   6   2.0000      -0.530103       -14.4248
   7   2.0000      -0.444550       -12.0968
   8   2.0000      -0.368801       -10.0356
   9   0.0000       0.113749         3.0953
  10   0.0000       0.156028         4.2457
  11   0.0000       0.191686         5.2160
  12   0.0000       0.204132         5.5547
  13   0.0000       0.236752         6.4423

MULLIKEN ATOMIC CHARGES
-----------------------
   0 C :   -0.183559
   1 O :   -0.453827
   2 H :    0.308668
   3 H :    0.109771
   4 H :    0.106682
   5 H :    0.112265
Sum of atomic charges:    0.0000000

LOEWDIN ATOMIC CHARGES
----------------------
   0 C :   -0.392199
   1 O :   -0.068156
   2 H :    0.152149
   3 H :    0.107287
   4 H :    0.100088
   5 H :    0.100831

  Mayer bond orders larger than 0.1
B(  0-C ,  1-O ) :   1.0059 B(  0-C ,  3-H ) :   0.9693 B(  0-C ,  4-H ) :   0.9820
B(  0-C ,  5-H ) :   0.9828 B(  1-O ,  2-H ) :   0.9109

Dispersion correction           -0.000239979
FINAL SINGLE POINT ENERGY      -115.729216793418

DIPOLE MOMENT
-------------
                                X             Y             Z
Electronic contribution:     -0.94959       0.76460       1.38289
Nuclear contribution   :      0.86336      -1.43114      -1.63816
                        -----------------------------------------
Total Dipole Moment    :     -0.08623      -0.66654      -0.25527
                        -----------------------------------------
Magnitude (a.u.)       :      0.71894
Magnitude (Debye)      :      1.82739

Rotational constants in cm-1:     4.159087     0.840235     0.798783
Rotational constants in MHz : 124686.289586 25189.602144 23946.909960

                             ****ORCA TERMINATED NORMALLY****
TOTAL RUN TIME: 0 days 0 hours 0 minutes 40 seconds 320 msec
