                         Program Version 4.1.2  - RELEASE  -
|  1> #Run DFT-D3 single point of the dimer
|  2> ! wB97X-D3 def2-TZVP TIGHTSCF CHELPG PMODEL PAL8
|  3>
|  4> %base "1-86_DFT_AB"
|  5>
|  6> %scf
|  7> MaxIter 1000
|  8> end
|  9>
| 10> * xyz 0 1
| 11>   C                      -7.546642            5.310844             -2.485952
| 12>   O                      -6.537382            4.702897             -1.704250
| 13>   H                      -6.634103            3.799627             -2.072274
| 14>   H                      -7.343214            5.297082             -3.570693
| 15>   H                      -8.497672            4.889586             -2.433377
| 16>   H                      -7.670592            6.410111             -2.234567
| 17>   C                      -5.817098            5.117289             0.959725
| 18>   O                      -5.056655            4.313537             0.051820
| 19>   H                      -5.327587            3.399154             0.011948
| 20>   H                      -5.612948            6.226188             0.834569
| 21>   H                      -6.906491            4.974172             0.815594
| 22>   H                      -5.504647            4.884335             1.969630
| 23> *
| 24>
| 25> #Run DFT-D3 single point of the molecule with dimer basis set
| 26> $new_job
| 27> %base "1-86_DFT_A"
| 28> ! wB97X-D3 def2-TZVP TIGHTSCF CHELPG PMODEL
| 29>
| 30> %scf
| 31> MaxIter 1000
| 32> end
| 33>
| 34> * xyz 0 1
| 35>   C                      -7.546642            5.310844             -2.485952
| 36>   O                      -6.537382            4.702897             -1.704250
| 37>   H                      -6.634103            3.799627             -2.072274
| 38>   H                      -7.343214            5.297082             -3.570693
| 39>   H                      -8.497672            4.889586             -2.433377
| 40>   H                      -7.670592            6.410111             -2.234567
| 41>   C                    : -5.817098            5.117289             0.959725
| 42>   O                    : -5.056655            4.313537             0.051820
| 43>   H                    : -5.327587            3.399154             0.011948
| 44>   H                    : -5.612948            6.226188             0.834569
| 45>   H                    : -6.906491            4.974172             0.815594
| 46>   H                    : -5.504647            4.884335             1.969630
| 47> *
| 48>
| 49> #Run DFT-D3 single point of the particle with dimer basis set
| 50> $new_job
| 51> %base "1-86_DFT_B"
| 52> ! wB97X-D3 def2-TZVP TIGHTSCF CHELPG PMODEL
| 53>
| 54> %scf
| 55> MaxIter 1000
| 56> end
| 57>
| 58> * xyz 0 1
| 59>   C                    : -7.546642            5.310844             -2.485952
| 60>   O                    : -6.537382            4.702897             -1.704250
| 61>   H                    : -6.634103            3.799627             -2.072274
| 62>   H                    : -7.343214            5.297082             -3.570693
| 63>   H                    : -8.497672            4.889586             -2.433377
| 64>   H                    : -7.670592            6.410111             -2.234567
| 65>   C                      -5.817098            5.117289             0.959725
| 66>   O                      -5.056655            4.313537             0.051820
| 67>   H                      -5.327587            3.399154             0.011948
| 68>   H                      -5.612948            6.226188             0.834569
| 69>   H                      -6.906491            4.974172             0.815594
| 70>   H                      -5.504647            4.884335             1.969630
| 71> *
| 72>
| 73>                          ****END OF INPUT****
 Total Charge           Charge          ....    0
 Multiplicity           Mult            ....    1
 Number of Electrons    NEL             ....   36
Dispersion correction           -0.002058753
FINAL SINGLE POINT ENERGY      -231.445429440938
Dispersion correction           -0.000227655
FINAL SINGLE POINT ENERGY      -115.728443987417

CARTESIAN COORDINATES (ANGSTROEM)
---------------------------------
  C     -7.546642    5.310844   -2.485952
  O     -6.537382    4.702897   -1.704250
  H     -6.634103    3.799627   -2.072274
  H     -7.343214    5.297082   -3.570693
  H     -8.497672    4.889586   -2.433377
  H     -7.670592    6.410111   -2.234567
  C     -5.817098    5.117289    0.959725
  O     -5.056655    4.313537    0.051820
  H     -5.327587    3.399154    0.011948
  H     -5.612948    6.226188    0.834569
  H     -6.906491    4.974172    0.815594
  H     -5.504647    4.884335    1.969630

 Multiplicity           Mult            ....    1
 Number of Electrons    NEL             ....   18
 Basis Dimension        Dim             ....  172

ORBITAL ENERGIES
----------------

  NO   OCC          E(Eh)            E(eV)
   0   2.0000     -19.227549      -523.2082
   1   2.0000     -10.320498      -280.8350
   2   2.0000      -1.128079       -30.6966
   3   2.0000      -0.796507       -21.6740
   4   2.0000      -0.607019       -16.5178
   5   2.0000      -0.543850       -14.7989
   6   2.0000      -0.524190       -14.2639
   7   2.0000      -0.422814       -11.5054
   8   2.0000      -0.374442       -10.1891
   9   0.0000       0.085519         2.3271
  10   0.0000       0.126916         3.4535
  11   0.0000       0.144553         3.9335
  12   0.0000       0.183448         4.9919
  13   0.0000       0.195866         5.3298

MULLIKEN ATOMIC CHARGES
-----------------------
   0 C :    0.000691
   1 O :   -0.002890
   2 H :   -0.006829
   3 H :    0.000037
   4 H :   -0.000582
   5 H :    0.000108
   6 C :   -0.173866
   7 O :   -0.487925
   8 H :    0.320394
   9 H :    0.122765
  10 H :    0.114821
  11 H :    0.113275
Sum of atomic charges:   -0.0000000

LOEWDIN ATOMIC CHARGES
----------------------
   0 C :   -0.003947
   1 O :   -0.048353
   2 H :   -0.007400
   3 H :   -0.000077
   4 H :   -0.000157
   5 H :   -0.000159
   6 C :   -0.368059
   7 O :   -0.049590
   8 H :    0.164966
   9 H :    0.118195
  10 H :    0.100829
  11 H :    0.093752

  Mayer bond orders larger than 0.1
B(  6-C ,  7-O ) :   0.9797 B(  6-C ,  9-H ) :   0.9707 B(  6-C , 10-H ) :   0.9753
B(  6-C , 11-H ) :   0.9784 B(  7-O ,  8-H ) :   0.8930

Dispersion correction           -0.000265335
FINAL SINGLE POINT ENERGY      -115.733628611161

DIPOLE MOMENT
-------------
                                X             Y             Z
Electronic contribution:      1.00076      -0.94258      -1.15490
Nuclear contribution   :     -1.48753       0.69249       1.52469
                        -----------------------------------------
Total Dipole Moment    :     -0.48677      -0.25009       0.36979
                        -----------------------------------------
Magnitude (a.u.)       :      0.66048
Magnitude (Debye)      :      1.67881

Rotational constants in cm-1:     4.311351     0.802041     0.778306
Rotational constants in MHz : 129251.061845 24044.573444 23333.033231

                             ****ORCA TERMINATED NORMALLY****
TOTAL RUN TIME: 0 days 0 hours 5 minutes 54 seconds 604 msec
