                         Program Version 4.1.2  - RELEASE  -
|  1> #Run DFT-D3 single point of the dimer
|  2> ! wB97X-D3 def2-TZVP TIGHTSCF CHELPG PMODEL PAL8
|  3>
|  4> %base "18-162_DFT_AB"
|  5>
|  6> %scf
|  7> MaxIter 1000
|  8> end
|  9>
| 10> * xyz 0 1
| 11>   C                      2.543895             -7.348491            7.449240
| 12>   O                      2.114794             -6.008798            7.767195
| 13>   H                      1.167584             -5.999289            7.725169
| 14>   H                      1.824056             -7.871212            6.835740
| 15>   H                      3.470852             -7.412637            6.832547
| 16>   H                      2.527036             -8.011973            8.287322
| 17>   C                      4.929075             -4.238960            7.673245
| 18>   O                      4.045496             -4.046907            8.764426
| 19>   H                      3.556016             -4.885246            8.697866
| 20>   H                      5.805546             -3.575551            7.652563
| 21>   H                      5.310129             -5.266422            7.598654
| 22>   H                      4.357928             -3.978853            6.774474
| 23> *
| 24>
| 25> #Run DFT-D3 single point of the molecule with dimer basis set
| 26> $new_job
| 27> %base "18-162_DFT_A"
| 28> ! wB97X-D3 def2-TZVP TIGHTSCF CHELPG PMODEL
| 29>
| 30> %scf
| 31> MaxIter 1000
| 32> end
| 33>
| 34> * xyz 0 1
| 35>   C                      2.543895             -7.348491            7.449240
| 36>   O                      2.114794             -6.008798            7.767195
| 37>   H                      1.167584             -5.999289            7.725169
| 38>   H                      1.824056             -7.871212            6.835740
| 39>   H                      3.470852             -7.412637            6.832547
| 40>   H                      2.527036             -8.011973            8.287322
| 41>   C                    : 4.929075             -4.238960            7.673245
| 42>   O                    : 4.045496             -4.046907            8.764426
| 43>   H                    : 3.556016             -4.885246            8.697866
| 44>   H                    : 5.805546             -3.575551            7.652563
| 45>   H                    : 5.310129             -5.266422            7.598654
| 46>   H                    : 4.357928             -3.978853            6.774474
| 47> *
| 48>
| 49> #Run DFT-D3 single point of the particle with dimer basis set
| 50> $new_job
| 51> %base "18-162_DFT_B"
| 52> ! wB97X-D3 def2-TZVP TIGHTSCF CHELPG PMODEL
| 53>
| 54> %scf
| 55> MaxIter 1000
| 56> end
| 57>
| 58> * xyz 0 1
| 59>   C                    : 2.543895             -7.348491            7.449240
| 60>   O                    : 2.114794             -6.008798            7.767195
| 61>   H                    : 1.167584             -5.999289            7.725169
| 62>   H                    : 1.824056             -7.871212            6.835740
| 63>   H                    : 3.470852             -7.412637            6.832547
| 64>   H                    : 2.527036             -8.011973            8.287322
| 65>   C                      4.929075             -4.238960            7.673245
| 66>   O                      4.045496             -4.046907            8.764426
| 67>   H                      3.556016             -4.885246            8.697866
| 68>   H                      5.805546             -3.575551            7.652563
| 69>   H                      5.310129             -5.266422            7.598654
| 70>   H                      4.357928             -3.978853            6.774474
| 71> *
| 72>
| 73>                          ****END OF INPUT****
 Total Charge           Charge          ....    0
 Multiplicity           Mult            ....    1
 Number of Electrons    NEL             ....   36
Dispersion correction           -0.002025938
FINAL SINGLE POINT ENERGY      -231.467913194345
Dispersion correction           -0.000258499
FINAL SINGLE POINT ENERGY      -115.729199316090

CARTESIAN COORDINATES (ANGSTROEM)
---------------------------------
  C      2.543895   -7.348491    7.449240
  O      2.114794   -6.008798    7.767195
  H      1.167584   -5.999289    7.725169
  H      1.824056   -7.871212    6.835740
  H      3.470852   -7.412637    6.832547
  H      2.527036   -8.011973    8.287322
  C      4.929075   -4.238960    7.673245
  O      4.045496   -4.046907    8.764426
  H      3.556016   -4.885246    8.697866
  H      5.805546   -3.575551    7.652563
  H      5.310129   -5.266422    7.598654
  H      4.357928   -3.978853    6.774474

 Multiplicity           Mult            ....    1
 Number of Electrons    NEL             ....   18
 Basis Dimension        Dim             ....  172

ORBITAL ENERGIES
----------------

  NO   OCC          E(Eh)            E(eV)
   0   2.0000     -19.235003      -523.4110
   1   2.0000     -10.314844      -280.6812
   2   2.0000      -1.140491       -31.0343
   3   2.0000      -0.789999       -21.4970
   4   2.0000      -0.606790       -16.5116
   5   2.0000      -0.544276       -14.8105
   6   2.0000      -0.528559       -14.3828
   7   2.0000      -0.441506       -12.0140
   8   2.0000      -0.372874       -10.1464
   9   0.0000       0.066616         1.8127
  10   0.0000       0.135008         3.6738
  11   0.0000       0.142700         3.8831
  12   0.0000       0.163266         4.4427
  13   0.0000       0.195993         5.3332

MULLIKEN ATOMIC CHARGES
-----------------------
   0 C :   -0.001858
   1 O :   -0.003886
   2 H :   -0.000488
   3 H :   -0.000014
   4 H :   -0.000242
   5 H :    0.000162
   6 C :   -0.192883
   7 O :   -0.453473
   8 H :    0.315512
   9 H :    0.120945
  10 H :    0.108300
  11 H :    0.107925
Sum of atomic charges:   -0.0000000

LOEWDIN ATOMIC CHARGES
----------------------
   0 C :   -0.004147
   1 O :   -0.015766
   2 H :   -0.000888
   3 H :   -0.000073
   4 H :   -0.000913
   5 H :   -0.000086
   6 C :   -0.393768
   7 O :   -0.074311
   8 H :    0.187618
   9 H :    0.106893
  10 H :    0.097198
  11 H :    0.098243

  Mayer bond orders larger than 0.1
B(  6-C ,  7-O ) :   0.9920 B(  6-C ,  9-H ) :   0.9715 B(  6-C , 10-H ) :   0.9778
B(  6-C , 11-H ) :   0.9828 B(  7-O ,  8-H ) :   0.9079

Dispersion correction           -0.000219330
FINAL SINGLE POINT ENERGY      -115.731562738499

DIPOLE MOMENT
-------------
                                X             Y             Z
Electronic contribution:     -1.02802       0.40314       1.55482
Nuclear contribution   :      1.08624      -0.97337      -2.01149
                        -----------------------------------------
Total Dipole Moment    :      0.05823      -0.57024      -0.45666
                        -----------------------------------------
Magnitude (a.u.)       :      0.73287
Magnitude (Debye)      :      1.86282

Rotational constants in cm-1:     4.218587     0.835469     0.803222
Rotational constants in MHz : 126470.046523 25046.716523 24079.982261

                             ****ORCA TERMINATED NORMALLY****
TOTAL RUN TIME: 0 days 0 hours 1 minutes 7 seconds 563 msec
