                         Program Version 4.1.2  - RELEASE  -
|  1> #Run DFT-D3 single point of the dimer
|  2> ! wB97X-D3 def2-TZVP TIGHTSCF CHELPG PMODEL PAL8
|  3>
|  4> %base "17-74_DFT_AB"
|  5>
|  6> %scf
|  7> MaxIter 1000
|  8> end
|  9>
| 10> * xyz 0 1
| 11>   C                      -1.143472            3.251015             -8.383428
| 12>   O                      -1.942154            2.903486             -9.464382
| 13>   H                      -1.698939            3.509440             -10.183064
| 14>   H                      -1.426148            2.504044             -7.571571
| 15>   H                      -0.084644            3.152513             -8.594473
| 16>   H                      -1.392792            4.268874             -8.070492
| 17>   C                      2.691571             0.366371             -10.424290
| 18>   O                      4.008650             -0.066053            -10.578584
| 19>   H                      4.418914             -0.313077            -9.738664
| 20>   H                      2.458512             1.242766             -11.098825
| 21>   H                      2.004740             -0.422140            -10.644969
| 22>   H                      2.538412             0.814848             -9.449670
| 23> *
| 24>
| 25> #Run DFT-D3 single point of the molecule with dimer basis set
| 26> $new_job
| 27> %base "17-74_DFT_A"
| 28> ! wB97X-D3 def2-TZVP TIGHTSCF CHELPG PMODEL
| 29>
| 30> %scf
| 31> MaxIter 1000
| 32> end
| 33>
| 34> * xyz 0 1
| 35>   C                      -1.143472            3.251015             -8.383428
| 36>   O                      -1.942154            2.903486             -9.464382
| 37>   H                      -1.698939            3.509440             -10.183064
| 38>   H                      -1.426148            2.504044             -7.571571
| 39>   H                      -0.084644            3.152513             -8.594473
| 40>   H                      -1.392792            4.268874             -8.070492
| 41>   C                    : 2.691571             0.366371             -10.424290
| 42>   O                    : 4.008650             -0.066053            -10.578584
| 43>   H                    : 4.418914             -0.313077            -9.738664
| 44>   H                    : 2.458512             1.242766             -11.098825
| 45>   H                    : 2.004740             -0.422140            -10.644969
| 46>   H                    : 2.538412             0.814848             -9.449670
| 47> *
| 48>
| 49> #Run DFT-D3 single point of the particle with dimer basis set
| 50> $new_job
| 51> %base "17-74_DFT_B"
| 52> ! wB97X-D3 def2-TZVP TIGHTSCF CHELPG PMODEL
| 53>
| 54> %scf
| 55> MaxIter 1000
| 56> end
| 57>
| 58> * xyz 0 1
| 59>   C                    : -1.143472            3.251015             -8.383428
| 60>   O                    : -1.942154            2.903486             -9.464382
| 61>   H                    : -1.698939            3.509440             -10.183064
| 62>   H                    : -1.426148            2.504044             -7.571571
| 63>   H                    : -0.084644            3.152513             -8.594473
| 64>   H                    : -1.392792            4.268874             -8.070492
| 65>   C                      2.691571             0.366371             -10.424290
| 66>   O                      4.008650             -0.066053            -10.578584
| 67>   H                      4.418914             -0.313077            -9.738664
| 68>   H                      2.458512             1.242766             -11.098825
| 69>   H                      2.004740             -0.422140            -10.644969
| 70>   H                      2.538412             0.814848             -9.449670
| 71> *
| 72>
| 73>                          ****END OF INPUT****
 Total Charge           Charge          ....    0
 Multiplicity           Mult            ....    1
 Number of Electrons    NEL             ....   36
Dispersion correction           -0.000736776
FINAL SINGLE POINT ENERGY      -231.467591353357
Dispersion correction           -0.000216689
FINAL SINGLE POINT ENERGY      -115.734410596420

CARTESIAN COORDINATES (ANGSTROEM)
---------------------------------
  C     -1.143472    3.251015   -8.383428
  O     -1.942154    2.903486   -9.464382
  H     -1.698939    3.509440  -10.183064
  H     -1.426148    2.504044   -7.571571
  H     -0.084644    3.152513   -8.594473
  H     -1.392792    4.268874   -8.070492
  C      2.691571    0.366371  -10.424290
  O      4.008650   -0.066053  -10.578584
  H      4.418914   -0.313077   -9.738664
  H      2.458512    1.242766  -11.098825
  H      2.004740   -0.422140  -10.644969
  H      2.538412    0.814848   -9.449670

 Multiplicity           Mult            ....    1
 Number of Electrons    NEL             ....   18
 Basis Dimension        Dim             ....  172

ORBITAL ENERGIES
----------------

  NO   OCC          E(Eh)            E(eV)
   0   2.0000     -19.227734      -523.2133
   1   2.0000     -10.311076      -280.5786
   2   2.0000      -1.137313       -30.9479
   3   2.0000      -0.795803       -21.6549
   4   2.0000      -0.614177       -16.7126
   5   2.0000      -0.551512       -15.0074
   6   2.0000      -0.524748       -14.2791
   7   2.0000      -0.420335       -11.4379
   8   2.0000      -0.373743       -10.1701
   9   0.0000       0.082548         2.2462
  10   0.0000       0.115296         3.1374
  11   0.0000       0.146276         3.9804
  12   0.0000       0.162656         4.4261
  13   0.0000       0.187315         5.0971

MULLIKEN ATOMIC CHARGES
-----------------------
   0 C :    0.000273
   1 O :   -0.000007
   2 H :   -0.000011
   3 H :   -0.000014
   4 H :   -0.000546
   5 H :   -0.000012
   6 C :   -0.151530
   7 O :   -0.486623
   8 H :    0.321958
   9 H :    0.106650
  10 H :    0.108182
  11 H :    0.101679
Sum of atomic charges:   -0.0000000

LOEWDIN ATOMIC CHARGES
----------------------
   0 C :   -0.000075
   1 O :   -0.000003
   2 H :   -0.000004
   3 H :   -0.000003
   4 H :   -0.000245
   5 H :   -0.000001
   6 C :   -0.399225
   7 O :   -0.070822
   8 H :    0.173788
   9 H :    0.111449
  10 H :    0.091079
  11 H :    0.094062

  Mayer bond orders larger than 0.1
B(  6-C ,  7-O ) :   1.0058 B(  6-C ,  9-H ) :   0.9714 B(  6-C , 10-H ) :   0.9748
B(  6-C , 11-H ) :   0.9859 B(  7-O ,  8-H ) :   0.8922

Dispersion correction           -0.000246235
FINAL SINGLE POINT ENERGY      -115.732886879752

DIPOLE MOMENT
-------------
                                X             Y             Z
Electronic contribution:      1.67340      -0.66441      -0.28122
Nuclear contribution   :     -1.92186       0.68978       0.91503
                        -----------------------------------------
Total Dipole Moment    :     -0.24846       0.02538       0.63382
                        -----------------------------------------
Magnitude (a.u.)       :      0.68125
Magnitude (Debye)      :      1.73160

Rotational constants in cm-1:     4.368948     0.837957     0.816575
Rotational constants in MHz : 130977.751631 25121.305057 24480.287955

                             ****ORCA TERMINATED NORMALLY****
TOTAL RUN TIME: 0 days 0 hours 1 minutes 9 seconds 107 msec
