                         Program Version 4.1.2  - RELEASE  -
|  1> #Run DFT-D3 single point of the dimer
|  2> ! wB97X-D3 def2-TZVP TIGHTSCF CHELPG PMODEL PAL8
|  3>
|  4> %base "4-19_DFT_AB"
|  5>
|  6> %scf
|  7> MaxIter 1000
|  8> end
|  9>
| 10> * xyz 0 1
| 11>   C                      1.278964             -10.654822           2.337766
| 12>   O                      1.975469             -10.763566           3.561013
| 13>   H                      2.763265             -11.256909           3.348373
| 14>   H                      0.900062             -11.560758           2.008515
| 15>   H                      0.551293             -9.905268            2.334664
| 16>   H                      2.032881             -10.389157           1.510708
| 17>   C                      3.525039             -9.013006            5.976572
| 18>   O                      4.752287             -9.411188            6.515313
| 19>   H                      4.589304             -9.839890            7.341963
| 20>   H                      2.971183             -8.294431            6.716489
| 21>   H                      3.600566             -8.576698            4.959692
| 22>   H                      2.900982             -9.866116            5.721810
| 23> *
| 24>
| 25> #Run DFT-D3 single point of the molecule with dimer basis set
| 26> $new_job
| 27> %base "4-19_DFT_A"
| 28> ! wB97X-D3 def2-TZVP TIGHTSCF CHELPG PMODEL
| 29>
| 30> %scf
| 31> MaxIter 1000
| 32> end
| 33>
| 34> * xyz 0 1
| 35>   C                      1.278964             -10.654822           2.337766
| 36>   O                      1.975469             -10.763566           3.561013
| 37>   H                      2.763265             -11.256909           3.348373
| 38>   H                      0.900062             -11.560758           2.008515
| 39>   H                      0.551293             -9.905268            2.334664
| 40>   H                      2.032881             -10.389157           1.510708
| 41>   C                    : 3.525039             -9.013006            5.976572
| 42>   O                    : 4.752287             -9.411188            6.515313
| 43>   H                    : 4.589304             -9.839890            7.341963
| 44>   H                    : 2.971183             -8.294431            6.716489
| 45>   H                    : 3.600566             -8.576698            4.959692
| 46>   H                    : 2.900982             -9.866116            5.721810
| 47> *
| 48>
| 49> #Run DFT-D3 single point of the particle with dimer basis set
| 50> $new_job
| 51> %base "4-19_DFT_B"
| 52> ! wB97X-D3 def2-TZVP TIGHTSCF CHELPG PMODEL
| 53>
| 54> %scf
| 55> MaxIter 1000
| 56> end
| 57>
| 58> * xyz 0 1
| 59>   C                    : 1.278964             -10.654822           2.337766
| 60>   O                    : 1.975469             -10.763566           3.561013
| 61>   H                    : 2.763265             -11.256909           3.348373
| 62>   H                    : 0.900062             -11.560758           2.008515
| 63>   H                    : 0.551293             -9.905268            2.334664
| 64>   H                    : 2.032881             -10.389157           1.510708
| 65>   C                      3.525039             -9.013006            5.976572
| 66>   O                      4.752287             -9.411188            6.515313
| 67>   H                      4.589304             -9.839890            7.341963
| 68>   H                      2.971183             -8.294431            6.716489
| 69>   H                      3.600566             -8.576698            4.959692
| 70>   H                      2.900982             -9.866116            5.721810
| 71> *
| 72>
| 73>                          ****END OF INPUT****
 Total Charge           Charge          ....    0
 Multiplicity           Mult            ....    1
 Number of Electrons    NEL             ....   36
Dispersion correction           -0.001443181
FINAL SINGLE POINT ENERGY      -231.461512040366
Dispersion correction           -0.000217317
FINAL SINGLE POINT ENERGY      -115.729506240119

CARTESIAN COORDINATES (ANGSTROEM)
---------------------------------
  C      1.278964  -10.654822    2.337766
  O      1.975469  -10.763566    3.561013
  H      2.763265  -11.256909    3.348373
  H      0.900062  -11.560758    2.008515
  H      0.551293   -9.905268    2.334664
  H      2.032881  -10.389157    1.510708
  C      3.525039   -9.013006    5.976572
  O      4.752287   -9.411188    6.515313
  H      4.589304   -9.839890    7.341963
  H      2.971183   -8.294431    6.716489
  H      3.600566   -8.576698    4.959692
  H      2.900982   -9.866116    5.721810

 Multiplicity           Mult            ....    1
 Number of Electrons    NEL             ....   18
 Basis Dimension        Dim             ....  172

ORBITAL ENERGIES
----------------

  NO   OCC          E(Eh)            E(eV)
   0   2.0000     -19.230796      -523.2966
   1   2.0000     -10.321002      -280.8487
   2   2.0000      -1.145111       -31.1601
   3   2.0000      -0.792607       -21.5679
   4   2.0000      -0.612727       -16.6732
   5   2.0000      -0.546423       -14.8689
   6   2.0000      -0.525883       -14.3100
   7   2.0000      -0.426452       -11.6043
   8   2.0000      -0.373381       -10.1602
   9   0.0000       0.082713         2.2507
  10   0.0000       0.117419         3.1951
  11   0.0000       0.149416         4.0658
  12   0.0000       0.171931         4.6785
  13   0.0000       0.184362         5.0167

MULLIKEN ATOMIC CHARGES
-----------------------
   0 C :   -0.000858
   1 O :   -0.000958
   2 H :    0.000593
   3 H :    0.000049
   4 H :   -0.000016
   5 H :    0.000029
   6 C :   -0.170060
   7 O :   -0.464475
   8 H :    0.316760
   9 H :    0.095743
  10 H :    0.118304
  11 H :    0.104889
Sum of atomic charges:    0.0000000

LOEWDIN ATOMIC CHARGES
----------------------
   0 C :   -0.000595
   1 O :   -0.006505
   2 H :   -0.001173
   3 H :   -0.000013
   4 H :   -0.000028
   5 H :   -0.000018
   6 C :   -0.408990
   7 O :   -0.057697
   8 H :    0.162240
   9 H :    0.105747
  10 H :    0.112805
  11 H :    0.094228

  Mayer bond orders larger than 0.1
B(  6-C ,  7-O ) :   0.9980 B(  6-C ,  9-H ) :   0.9719 B(  6-C , 10-H ) :   0.9707
B(  6-C , 11-H ) :   0.9738 B(  7-O ,  8-H ) :   0.8984

Dispersion correction           -0.000247679
FINAL SINGLE POINT ENERGY      -115.730033404389

DIPOLE MOMENT
-------------
                                X             Y             Z
Electronic contribution:      1.76013      -0.46761       0.61007
Nuclear contribution   :     -2.32175       0.31275      -0.32217
                        -----------------------------------------
Total Dipole Moment    :     -0.56162      -0.15486       0.28790
                        -----------------------------------------
Magnitude (a.u.)       :      0.64983
Magnitude (Debye)      :      1.65174

Rotational constants in cm-1:     4.204253     0.835554     0.807024
Rotational constants in MHz : 126040.340997 25049.293421 24193.971748

                             ****ORCA TERMINATED NORMALLY****
TOTAL RUN TIME: 0 days 0 hours 1 minutes 36 seconds 114 msec
