                         Program Version 4.1.2  - RELEASE  -
|  1> #Run DFT-D3 single point of the dimer
|  2> ! wB97X-D3 def2-TZVP TIGHTSCF CHELPG PMODEL PAL8
|  3>
|  4> %base "16-34_DFT_AB"
|  5>
|  6> %scf
|  7> MaxIter 1000
|  8> end
|  9>
| 10> * xyz 0 1
| 11>   C                      -9.948473            -1.812941            5.438624
| 12>   O                      -9.656483            -1.904055            6.869065
| 13>   H                      -8.898172            -2.436655            7.042660
| 14>   H                      -10.795136           -1.169837            5.194730
| 15>   H                      -9.039130            -1.454169            4.871001
| 16>   H                      -10.203844           -2.769139            4.921275
| 17>   C                      -11.184906           0.971605             7.176687
| 18>   O                      -10.422062           0.522204             8.299412
| 19>   H                      -9.721010            -0.066477            8.024004
| 20>   H                      -11.829100           1.843151             7.305083
| 21>   H                      -10.623863           1.147876             6.273757
| 22>   H                      -11.894665           0.179690             6.994460
| 23> *
| 24>
| 25> #Run DFT-D3 single point of the molecule with dimer basis set
| 26> $new_job
| 27> %base "16-34_DFT_A"
| 28> ! wB97X-D3 def2-TZVP TIGHTSCF CHELPG PMODEL
| 29>
| 30> %scf
| 31> MaxIter 1000
| 32> end
| 33>
| 34> * xyz 0 1
| 35>   C                      -9.948473            -1.812941            5.438624
| 36>   O                      -9.656483            -1.904055            6.869065
| 37>   H                      -8.898172            -2.436655            7.042660
| 38>   H                      -10.795136           -1.169837            5.194730
| 39>   H                      -9.039130            -1.454169            4.871001
| 40>   H                      -10.203844           -2.769139            4.921275
| 41>   C                    : -11.184906           0.971605             7.176687
| 42>   O                    : -10.422062           0.522204             8.299412
| 43>   H                    : -9.721010            -0.066477            8.024004
| 44>   H                    : -11.829100           1.843151             7.305083
| 45>   H                    : -10.623863           1.147876             6.273757
| 46>   H                    : -11.894665           0.179690             6.994460
| 47> *
| 48>
| 49> #Run DFT-D3 single point of the particle with dimer basis set
| 50> $new_job
| 51> %base "16-34_DFT_B"
| 52> ! wB97X-D3 def2-TZVP TIGHTSCF CHELPG PMODEL
| 53>
| 54> %scf
| 55> MaxIter 1000
| 56> end
| 57>
| 58> * xyz 0 1
| 59>   C                    : -9.948473            -1.812941            5.438624
| 60>   O                    : -9.656483            -1.904055            6.869065
| 61>   H                    : -8.898172            -2.436655            7.042660
| 62>   H                    : -10.795136           -1.169837            5.194730
| 63>   H                    : -9.039130            -1.454169            4.871001
| 64>   H                    : -10.203844           -2.769139            4.921275
| 65>   C                      -11.184906           0.971605             7.176687
| 66>   O                      -10.422062           0.522204             8.299412
| 67>   H                      -9.721010            -0.066477            8.024004
| 68>   H                      -11.829100           1.843151             7.305083
| 69>   H                      -10.623863           1.147876             6.273757
| 70>   H                      -11.894665           0.179690             6.994460
| 71> *
| 72>
| 73>                          ****END OF INPUT****
 Total Charge           Charge          ....    0
 Multiplicity           Mult            ....    1
 Number of Electrons    NEL             ....   36
Dispersion correction           -0.002354331
FINAL SINGLE POINT ENERGY      -231.466010974123
Dispersion correction           -0.000296861
FINAL SINGLE POINT ENERGY      -115.730658737237

CARTESIAN COORDINATES (ANGSTROEM)
---------------------------------
  C     -9.948473   -1.812941    5.438624
  O     -9.656483   -1.904055    6.869065
  H     -8.898172   -2.436655    7.042660
  H    -10.795136   -1.169837    5.194730
  H     -9.039130   -1.454169    4.871001
  H    -10.203844   -2.769139    4.921275
  C    -11.184906    0.971605    7.176687
  O    -10.422062    0.522204    8.299412
  H     -9.721010   -0.066477    8.024004
  H    -11.829100    1.843151    7.305083
  H    -10.623863    1.147876    6.273757
  H    -11.894665    0.179690    6.994460

 Multiplicity           Mult            ....    1
 Number of Electrons    NEL             ....   18
 Basis Dimension        Dim             ....  172

ORBITAL ENERGIES
----------------

  NO   OCC          E(Eh)            E(eV)
   0   2.0000     -19.229383      -523.2581
   1   2.0000     -10.311232      -280.5829
   2   2.0000      -1.130438       -30.7608
   3   2.0000      -0.801990       -21.8232
   4   2.0000      -0.610718       -16.6185
   5   2.0000      -0.539075       -14.6690
   6   2.0000      -0.531564       -14.4646
   7   2.0000      -0.431118       -11.7313
   8   2.0000      -0.371321       -10.1042
   9   0.0000       0.071645         1.9496
  10   0.0000       0.129753         3.5308
  11   0.0000       0.146784         3.9942
  12   0.0000       0.173959         4.7337
  13   0.0000       0.182834         4.9752

MULLIKEN ATOMIC CHARGES
-----------------------
   0 C :    0.002597
   1 O :   -0.004639
   2 H :   -0.000574
   3 H :   -0.004835
   4 H :   -0.000331
   5 H :   -0.000151
   6 C :   -0.177725
   7 O :   -0.480470
   8 H :    0.317298
   9 H :    0.127189
  10 H :    0.111772
  11 H :    0.109870
Sum of atomic charges:   -0.0000000

LOEWDIN ATOMIC CHARGES
----------------------
   0 C :   -0.008224
   1 O :   -0.013404
   2 H :   -0.001095
   3 H :   -0.005264
   4 H :   -0.000162
   5 H :   -0.000053
   6 C :   -0.365975
   7 O :   -0.077476
   8 H :    0.168227
   9 H :    0.108724
  10 H :    0.095800
  11 H :    0.098902

  Mayer bond orders larger than 0.1
B(  6-C ,  7-O ) :   0.9887 B(  6-C ,  9-H ) :   0.9682 B(  6-C , 10-H ) :   0.9759
B(  6-C , 11-H ) :   0.9889 B(  7-O ,  8-H ) :   0.9011

Dispersion correction           -0.000253820
FINAL SINGLE POINT ENERGY      -115.730458265523

DIPOLE MOMENT
-------------
                                X             Y             Z
Electronic contribution:      0.99457      -0.37931       1.53746
Nuclear contribution   :     -0.87377       0.19763      -2.18513
                        -----------------------------------------
Total Dipole Moment    :      0.12079      -0.18168      -0.64767
                        -----------------------------------------
Magnitude (a.u.)       :      0.68343
Magnitude (Debye)      :      1.73714

Rotational constants in cm-1:     4.558946     0.806667     0.779444
Rotational constants in MHz : 136673.757655 24183.278737 23367.150937

                             ****ORCA TERMINATED NORMALLY****
TOTAL RUN TIME: 0 days 0 hours 1 minutes 6 seconds 687 msec
