                         Program Version 4.1.2  - RELEASE  -
|  1> #Run DFT-D3 single point of the dimer
|  2> ! wB97X-D3 def2-TZVP TIGHTSCF CHELPG PMODEL PAL8
|  3>
|  4> %base "19-190_DFT_AB"
|  5>
|  6> %scf
|  7> MaxIter 1000
|  8> end
|  9>
| 10> * xyz 0 1
| 11>   C                      9.360468             -4.523656            4.335038
| 12>   O                      8.326896             -5.370352            3.903964
| 13>   H                      7.725141             -5.409423            4.658001
| 14>   H                      8.951792             -3.626088            4.768817
| 15>   H                      9.861924             -4.986321            5.201307
| 16>   H                      10.075039            -4.268118            3.603111
| 17>   C                      6.259848             -7.037846            6.112969
| 18>   O                      7.006124             -5.919135            6.482023
| 19>   H                      7.929749             -6.229473            6.582186
| 20>   H                      6.674014             -7.345797            5.130091
| 21>   H                      6.195808             -7.890174            6.877800
| 22>   H                      5.252018             -6.719712            5.820286
| 23> *
| 24>
| 25> #Run DFT-D3 single point of the molecule with dimer basis set
| 26> $new_job
| 27> %base "19-190_DFT_A"
| 28> ! wB97X-D3 def2-TZVP TIGHTSCF CHELPG PMODEL
| 29>
| 30> %scf
| 31> MaxIter 1000
| 32> end
| 33>
| 34> * xyz 0 1
| 35>   C                      9.360468             -4.523656            4.335038
| 36>   O                      8.326896             -5.370352            3.903964
| 37>   H                      7.725141             -5.409423            4.658001
| 38>   H                      8.951792             -3.626088            4.768817
| 39>   H                      9.861924             -4.986321            5.201307
| 40>   H                      10.075039            -4.268118            3.603111
| 41>   C                    : 6.259848             -7.037846            6.112969
| 42>   O                    : 7.006124             -5.919135            6.482023
| 43>   H                    : 7.929749             -6.229473            6.582186
| 44>   H                    : 6.674014             -7.345797            5.130091
| 45>   H                    : 6.195808             -7.890174            6.877800
| 46>   H                    : 5.252018             -6.719712            5.820286
| 47> *
| 48>
| 49> #Run DFT-D3 single point of the particle with dimer basis set
| 50> $new_job
| 51> %base "19-190_DFT_B"
| 52> ! wB97X-D3 def2-TZVP TIGHTSCF CHELPG PMODEL
| 53>
| 54> %scf
| 55> MaxIter 1000
| 56> end
| 57>
| 58> * xyz 0 1
| 59>   C                    : 9.360468             -4.523656            4.335038
| 60>   O                    : 8.326896             -5.370352            3.903964
| 61>   H                    : 7.725141             -5.409423            4.658001
| 62>   H                    : 8.951792             -3.626088            4.768817
| 63>   H                    : 9.861924             -4.986321            5.201307
| 64>   H                    : 10.075039            -4.268118            3.603111
| 65>   C                      6.259848             -7.037846            6.112969
| 66>   O                      7.006124             -5.919135            6.482023
| 67>   H                      7.929749             -6.229473            6.582186
| 68>   H                      6.674014             -7.345797            5.130091
| 69>   H                      6.195808             -7.890174            6.877800
| 70>   H                      5.252018             -6.719712            5.820286
| 71> *
| 72>
| 73>                          ****END OF INPUT****
 Total Charge           Charge          ....    0
 Multiplicity           Mult            ....    1
 Number of Electrons    NEL             ....   36
Dispersion correction           -0.001989659
FINAL SINGLE POINT ENERGY      -231.470957066171
Dispersion correction           -0.000209568
FINAL SINGLE POINT ENERGY      -115.732837794459

CARTESIAN COORDINATES (ANGSTROEM)
---------------------------------
  C      9.360468   -4.523656    4.335038
  O      8.326896   -5.370352    3.903964
  H      7.725141   -5.409423    4.658001
  H      8.951792   -3.626088    4.768817
  H      9.861924   -4.986321    5.201307
  H     10.075039   -4.268118    3.603111
  C      6.259848   -7.037846    6.112969
  O      7.006124   -5.919135    6.482023
  H      7.929749   -6.229473    6.582186
  H      6.674014   -7.345797    5.130091
  H      6.195808   -7.890174    6.877800
  H      5.252018   -6.719712    5.820286

 Multiplicity           Mult            ....    1
 Number of Electrons    NEL             ....   18
 Basis Dimension        Dim             ....  172

ORBITAL ENERGIES
----------------

  NO   OCC          E(Eh)            E(eV)
   0   2.0000     -19.234518      -523.3978
   1   2.0000     -10.319530      -280.8087
   2   2.0000      -1.142072       -31.0774
   3   2.0000      -0.787885       -21.4394
   4   2.0000      -0.607103       -16.5201
   5   2.0000      -0.546776       -14.8785
   6   2.0000      -0.529073       -14.3968
   7   2.0000      -0.427777       -11.6404
   8   2.0000      -0.373115       -10.1530
   9   0.0000       0.084794         2.3074
  10   0.0000       0.130736         3.5575
  11   0.0000       0.148969         4.0537
  12   0.0000       0.178483         4.8568
  13   0.0000       0.196679         5.3519

MULLIKEN ATOMIC CHARGES
-----------------------
   0 C :   -0.002019
   1 O :   -0.001232
   2 H :   -0.006397
   3 H :   -0.000157
   4 H :   -0.001578
   5 H :   -0.000367
   6 C :   -0.165051
   7 O :   -0.459596
   8 H :    0.320277
   9 H :    0.096251
  10 H :    0.106020
  11 H :    0.113849
Sum of atomic charges:   -0.0000000

LOEWDIN ATOMIC CHARGES
----------------------
   0 C :   -0.005222
   1 O :   -0.004926
   2 H :   -0.033632
   3 H :   -0.000557
   4 H :   -0.001402
   5 H :   -0.000083
   6 C :   -0.411251
   7 O :   -0.040663
   8 H :    0.186681
   9 H :    0.099348
  10 H :    0.103328
  11 H :    0.108380

  Mayer bond orders larger than 0.1
B(  6-C ,  7-O ) :   0.9969 B(  6-C ,  9-H ) :   0.9904 B(  6-C , 10-H ) :   0.9644
B(  6-C , 11-H ) :   0.9756 B(  7-O ,  8-H ) :   0.8939

Dispersion correction           -0.000239487
FINAL SINGLE POINT ENERGY      -115.731433736410

DIPOLE MOMENT
-------------
                                X             Y             Z
Electronic contribution:      0.83509       1.52222       0.63226
Nuclear contribution   :     -0.56317      -2.11561      -0.72282
                        -----------------------------------------
Total Dipole Moment    :      0.27192      -0.59339      -0.09056
                        -----------------------------------------
Magnitude (a.u.)       :      0.65898
Magnitude (Debye)      :      1.67499

Rotational constants in cm-1:     4.103882     0.843893     0.820868
Rotational constants in MHz : 123031.295334 25299.263297 24609.005045

                             ****ORCA TERMINATED NORMALLY****
TOTAL RUN TIME: 0 days 0 hours 1 minutes 48 seconds 341 msec
