                         Program Version 4.1.2  - RELEASE  -
|  1> #Run DFT-D3 single point of the dimer
|  2> ! wB97X-D3 def2-TZVP TIGHTSCF CHELPG PMODEL PAL8
|  3>
|  4> %base "12-191_DFT_AB"
|  5>
|  6> %scf
|  7> MaxIter 1000
|  8> end
|  9>
| 10> * xyz 0 1
| 11>   C                      3.282959             -1.182157            -6.440100
| 12>   O                      3.648288             -1.701234            -5.111247
| 13>   H                      4.038148             -2.570260            -5.268204
| 14>   H                      3.870765             -0.329049            -6.677919
| 15>   H                      3.429946             -1.968021            -7.207339
| 16>   H                      2.192807             -0.973335            -6.479095
| 17>   C                      3.342125             -5.023051            -5.318537
| 18>   O                      2.887319             -4.274273            -6.430763
| 19>   H                      3.572304             -4.139006            -7.111828
| 20>   H                      4.340022             -4.689167            -5.002145
| 21>   H                      2.573758             -5.014004            -4.521684
| 22>   H                      3.464078             -6.125490            -5.575400
| 23> *
| 24>
| 25> #Run DFT-D3 single point of the molecule with dimer basis set
| 26> $new_job
| 27> %base "12-191_DFT_A"
| 28> ! wB97X-D3 def2-TZVP TIGHTSCF CHELPG PMODEL
| 29>
| 30> %scf
| 31> MaxIter 1000
| 32> end
| 33>
| 34> * xyz 0 1
| 35>   C                      3.282959             -1.182157            -6.440100
| 36>   O                      3.648288             -1.701234            -5.111247
| 37>   H                      4.038148             -2.570260            -5.268204
| 38>   H                      3.870765             -0.329049            -6.677919
| 39>   H                      3.429946             -1.968021            -7.207339
| 40>   H                      2.192807             -0.973335            -6.479095
| 41>   C                    : 3.342125             -5.023051            -5.318537
| 42>   O                    : 2.887319             -4.274273            -6.430763
| 43>   H                    : 3.572304             -4.139006            -7.111828
| 44>   H                    : 4.340022             -4.689167            -5.002145
| 45>   H                    : 2.573758             -5.014004            -4.521684
| 46>   H                    : 3.464078             -6.125490            -5.575400
| 47> *
| 48>
| 49> #Run DFT-D3 single point of the particle with dimer basis set
| 50> $new_job
| 51> %base "12-191_DFT_B"
| 52> ! wB97X-D3 def2-TZVP TIGHTSCF CHELPG PMODEL
| 53>
| 54> %scf
| 55> MaxIter 1000
| 56> end
| 57>
| 58> * xyz 0 1
| 59>   C                    : 3.282959             -1.182157            -6.440100
| 60>   O                    : 3.648288             -1.701234            -5.111247
| 61>   H                    : 4.038148             -2.570260            -5.268204
| 62>   H                    : 3.870765             -0.329049            -6.677919
| 63>   H                    : 3.429946             -1.968021            -7.207339
| 64>   H                    : 2.192807             -0.973335            -6.479095
| 65>   C                      3.342125             -5.023051            -5.318537
| 66>   O                      2.887319             -4.274273            -6.430763
| 67>   H                      3.572304             -4.139006            -7.111828
| 68>   H                      4.340022             -4.689167            -5.002145
| 69>   H                      2.573758             -5.014004            -4.521684
| 70>   H                      3.464078             -6.125490            -5.575400
| 71> *
| 72>
| 73>                          ****END OF INPUT****
 Total Charge           Charge          ....    0
 Multiplicity           Mult            ....    1
 Number of Electrons    NEL             ....   36
Dispersion correction           -0.002254043
FINAL SINGLE POINT ENERGY      -231.466195455807
Dispersion correction           -0.000263689
FINAL SINGLE POINT ENERGY      -115.733210698465

CARTESIAN COORDINATES (ANGSTROEM)
---------------------------------
  C      3.282959   -1.182157   -6.440100
  O      3.648288   -1.701234   -5.111247
  H      4.038148   -2.570260   -5.268204
  H      3.870765   -0.329049   -6.677919
  H      3.429946   -1.968021   -7.207339
  H      2.192807   -0.973335   -6.479095
  C      3.342125   -5.023051   -5.318537
  O      2.887319   -4.274273   -6.430763
  H      3.572304   -4.139006   -7.111828
  H      4.340022   -4.689167   -5.002145
  H      2.573758   -5.014004   -4.521684
  H      3.464078   -6.125490   -5.575400

 Multiplicity           Mult            ....    1
 Number of Electrons    NEL             ....   18
 Basis Dimension        Dim             ....  172

ORBITAL ENERGIES
----------------

  NO   OCC          E(Eh)            E(eV)
   0   2.0000     -19.231609      -523.3187
   1   2.0000     -10.322048      -280.8772
   2   2.0000      -1.130778       -30.7700
   3   2.0000      -0.792620       -21.5683
   4   2.0000      -0.611148       -16.6302
   5   2.0000      -0.538407       -14.6508
   6   2.0000      -0.524095       -14.2613
   7   2.0000      -0.430968       -11.7272
   8   2.0000      -0.369687       -10.0597
   9   0.0000       0.091602         2.4926
  10   0.0000       0.132010         3.5922
  11   0.0000       0.146393         3.9836
  12   0.0000       0.183924         5.0048
  13   0.0000       0.193854         5.2750

MULLIKEN ATOMIC CHARGES
-----------------------
   0 C :    0.010871
   1 O :    0.002325
   2 H :   -0.008234
   3 H :   -0.000697
   4 H :   -0.015323
   5 H :   -0.002408
   6 C :   -0.154591
   7 O :   -0.478838
   8 H :    0.321008
   9 H :    0.101585
  10 H :    0.124685
  11 H :    0.099616
Sum of atomic charges:    0.0000000

LOEWDIN ATOMIC CHARGES
----------------------
   0 C :   -0.015951
   1 O :   -0.004181
   2 H :   -0.015338
   3 H :   -0.000234
   4 H :   -0.010405
   5 H :   -0.001003
   6 C :   -0.383983
   7 O :   -0.058881
   8 H :    0.180164
   9 H :    0.096865
  10 H :    0.112432
  11 H :    0.100517

  Mayer bond orders larger than 0.1
B(  6-C ,  7-O ) :   0.9871 B(  6-C ,  9-H ) :   0.9771 B(  6-C , 10-H ) :   0.9732
B(  6-C , 11-H ) :   0.9744 B(  7-O ,  8-H ) :   0.8889

Dispersion correction           -0.000261690
FINAL SINGLE POINT ENERGY      -115.734300044783

DIPOLE MOMENT
-------------
                                X             Y             Z
Electronic contribution:     -0.70982       1.07205      -1.29402
Nuclear contribution   :      1.32560      -1.29542       1.30788
                        -----------------------------------------
Total Dipole Moment    :      0.61578      -0.22337       0.01386
                        -----------------------------------------
Magnitude (a.u.)       :      0.65519
Magnitude (Debye)      :      1.66535

Rotational constants in cm-1:     4.203085     0.821103     0.786783
Rotational constants in MHz : 126005.325934 24616.061452 23587.172607

                             ****ORCA TERMINATED NORMALLY****
TOTAL RUN TIME: 0 days 0 hours 1 minutes 6 seconds 508 msec
