                         Program Version 4.1.2  - RELEASE  -
|  1> #Run DFT-D3 single point of the dimer
|  2> ! wB97X-D3 def2-TZVP TIGHTSCF CHELPG PMODEL PAL8
|  3>
|  4> %base "8-204_DFT_AB"
|  5>
|  6> %scf
|  7> MaxIter 1000
|  8> end
|  9>
| 10> * xyz 0 1
| 11>   C                      -0.915505            -1.309823            3.665352
| 12>   O                      -0.468235            -0.920352            5.001852
| 13>   H                      0.109127             -0.150071            5.001110
| 14>   H                      -1.528910            -2.242467            3.688094
| 15>   H                      -1.449078            -0.451866            3.227574
| 16>   H                      -0.109767            -1.463050            2.909293
| 17>   C                      -0.024007            2.080020             6.984736
| 18>   O                      0.299046             1.756115             5.654286
| 19>   H                      -0.364095            2.158002             5.124709
| 20>   H                      0.695163             2.885084             7.303017
| 21>   H                      -1.035840            2.500410             7.043832
| 22>   H                      -0.006311            1.375831             7.786543
| 23> *
| 24>
| 25> #Run DFT-D3 single point of the molecule with dimer basis set
| 26> $new_job
| 27> %base "8-204_DFT_A"
| 28> ! wB97X-D3 def2-TZVP TIGHTSCF CHELPG PMODEL
| 29>
| 30> %scf
| 31> MaxIter 1000
| 32> end
| 33>
| 34> * xyz 0 1
| 35>   C                      -0.915505            -1.309823            3.665352
| 36>   O                      -0.468235            -0.920352            5.001852
| 37>   H                      0.109127             -0.150071            5.001110
| 38>   H                      -1.528910            -2.242467            3.688094
| 39>   H                      -1.449078            -0.451866            3.227574
| 40>   H                      -0.109767            -1.463050            2.909293
| 41>   C                    : -0.024007            2.080020             6.984736
| 42>   O                    : 0.299046             1.756115             5.654286
| 43>   H                    : -0.364095            2.158002             5.124709
| 44>   H                    : 0.695163             2.885084             7.303017
| 45>   H                    : -1.035840            2.500410             7.043832
| 46>   H                    : -0.006311            1.375831             7.786543
| 47> *
| 48>
| 49> #Run DFT-D3 single point of the particle with dimer basis set
| 50> $new_job
| 51> %base "8-204_DFT_B"
| 52> ! wB97X-D3 def2-TZVP TIGHTSCF CHELPG PMODEL
| 53>
| 54> %scf
| 55> MaxIter 1000
| 56> end
| 57>
| 58> * xyz 0 1
| 59>   C                    : -0.915505            -1.309823            3.665352
| 60>   O                    : -0.468235            -0.920352            5.001852
| 61>   H                    : 0.109127             -0.150071            5.001110
| 62>   H                    : -1.528910            -2.242467            3.688094
| 63>   H                    : -1.449078            -0.451866            3.227574
| 64>   H                    : -0.109767            -1.463050            2.909293
| 65>   C                      -0.024007            2.080020             6.984736
| 66>   O                      0.299046             1.756115             5.654286
| 67>   H                      -0.364095            2.158002             5.124709
| 68>   H                      0.695163             2.885084             7.303017
| 69>   H                      -1.035840            2.500410             7.043832
| 70>   H                      -0.006311            1.375831             7.786543
| 71> *
| 72>
| 73>                          ****END OF INPUT****
 Total Charge           Charge          ....    0
 Multiplicity           Mult            ....    1
 Number of Electrons    NEL             ....   36
Dispersion correction           -0.001653989
FINAL SINGLE POINT ENERGY      -231.465339957440
Dispersion correction           -0.000284327
FINAL SINGLE POINT ENERGY      -115.731009619598

CARTESIAN COORDINATES (ANGSTROEM)
---------------------------------
  C     -0.915505   -1.309823    3.665352
  O     -0.468235   -0.920352    5.001852
  H      0.109127   -0.150071    5.001110
  H     -1.528910   -2.242467    3.688094
  H     -1.449078   -0.451866    3.227574
  H     -0.109767   -1.463050    2.909293
  C     -0.024007    2.080020    6.984736
  O      0.299046    1.756115    5.654286
  H     -0.364095    2.158002    5.124709
  H      0.695163    2.885084    7.303017
  H     -1.035840    2.500410    7.043832
  H     -0.006311    1.375831    7.786543

 Multiplicity           Mult            ....    1
 Number of Electrons    NEL             ....   18
 Basis Dimension        Dim             ....  172

ORBITAL ENERGIES
----------------

  NO   OCC          E(Eh)            E(eV)
   0   2.0000     -19.232641      -523.3468
   1   2.0000     -10.314757      -280.6788
   2   2.0000      -1.146690       -31.2030
   3   2.0000      -0.798367       -21.7247
   4   2.0000      -0.619659       -16.8618
   5   2.0000      -0.541612       -14.7380
   6   2.0000      -0.532216       -14.4823
   7   2.0000      -0.433715       -11.8020
   8   2.0000      -0.373409       -10.1610
   9   0.0000       0.091608         2.4928
  10   0.0000       0.122349         3.3293
  11   0.0000       0.151695         4.1278
  12   0.0000       0.184097         5.0095
  13   0.0000       0.199303         5.4233

MULLIKEN ATOMIC CHARGES
-----------------------
   0 C :   -0.000650
   1 O :   -0.002693
   2 H :   -0.007180
   3 H :   -0.000097
   4 H :   -0.000842
   5 H :   -0.000059
   6 C :   -0.175750
   7 O :   -0.454282
   8 H :    0.318591
   9 H :    0.103019
  10 H :    0.099965
  11 H :    0.119977
Sum of atomic charges:    0.0000000

LOEWDIN ATOMIC CHARGES
----------------------
   0 C :   -0.001681
   1 O :   -0.008012
   2 H :   -0.037460
   3 H :   -0.000034
   4 H :   -0.000431
   5 H :   -0.000026
   6 C :   -0.393027
   7 O :   -0.021167
   8 H :    0.162429
   9 H :    0.105472
  10 H :    0.097902
  11 H :    0.096035

  Mayer bond orders larger than 0.1
B(  6-C ,  7-O ) :   0.9988 B(  6-C ,  9-H ) :   0.9802 B(  6-C , 10-H ) :   0.9875
B(  6-C , 11-H ) :   0.9703 B(  7-O ,  8-H ) :   0.9006

Dispersion correction           -0.000245004
FINAL SINGLE POINT ENERGY      -115.727968864307

DIPOLE MOMENT
-------------
                                X             Y             Z
Electronic contribution:      0.52979      -0.70921      -1.74315
Nuclear contribution   :     -1.10707       1.09570       1.92506
                        -----------------------------------------
Total Dipole Moment    :     -0.57728       0.38649       0.18191
                        -----------------------------------------
Magnitude (a.u.)       :      0.71814
Magnitude (Debye)      :      1.82537

Rotational constants in cm-1:     4.464090     0.830335     0.801926
Rotational constants in MHz : 133830.037649 24892.823146 24041.146571

                             ****ORCA TERMINATED NORMALLY****
TOTAL RUN TIME: 0 days 0 hours 0 minutes 46 seconds 641 msec
