                         Program Version 4.1.2  - RELEASE  -
|  1> #Run DFT-D3 single point of the dimer
|  2> ! wB97X-D3 def2-TZVP TIGHTSCF CHELPG PMODEL PAL8
|  3>
|  4> %base "21-14_DFT_AB"
|  5>
|  6> %scf
|  7> MaxIter 1000
|  8> end
|  9>
| 10> * xyz 0 1
| 11>   C                      7.010154             -0.039045            -9.433605
| 12>   O                      8.270154             0.587972             -9.839625
| 13>   H                      8.487820             0.297724             -10.722834
| 14>   H                      6.245528             0.058010             -10.219982
| 15>   H                      7.161661             -1.110750            -9.489318
| 16>   H                      6.696794             0.214839             -8.443639
| 17>   C                      5.398878             -5.549373            -9.768657
| 18>   O                      6.151562             -4.934993            -8.756105
| 19>   H                      6.269744             -5.501653            -7.966790
| 20>   H                      5.244938             -4.844621            -10.561838
| 21>   H                      5.819859             -6.446248            -10.290927
| 22>   H                      4.414631             -5.822922            -9.411986
| 23> *
| 24>
| 25> #Run DFT-D3 single point of the molecule with dimer basis set
| 26> $new_job
| 27> %base "21-14_DFT_A"
| 28> ! wB97X-D3 def2-TZVP TIGHTSCF CHELPG PMODEL
| 29>
| 30> %scf
| 31> MaxIter 1000
| 32> end
| 33>
| 34> * xyz 0 1
| 35>   C                      7.010154             -0.039045            -9.433605
| 36>   O                      8.270154             0.587972             -9.839625
| 37>   H                      8.487820             0.297724             -10.722834
| 38>   H                      6.245528             0.058010             -10.219982
| 39>   H                      7.161661             -1.110750            -9.489318
| 40>   H                      6.696794             0.214839             -8.443639
| 41>   C                    : 5.398878             -5.549373            -9.768657
| 42>   O                    : 6.151562             -4.934993            -8.756105
| 43>   H                    : 6.269744             -5.501653            -7.966790
| 44>   H                    : 5.244938             -4.844621            -10.561838
| 45>   H                    : 5.819859             -6.446248            -10.290927
| 46>   H                    : 4.414631             -5.822922            -9.411986
| 47> *
| 48>
| 49> #Run DFT-D3 single point of the particle with dimer basis set
| 50> $new_job
| 51> %base "21-14_DFT_B"
| 52> ! wB97X-D3 def2-TZVP TIGHTSCF CHELPG PMODEL
| 53>
| 54> %scf
| 55> MaxIter 1000
| 56> end
| 57>
| 58> * xyz 0 1
| 59>   C                    : 7.010154             -0.039045            -9.433605
| 60>   O                    : 8.270154             0.587972             -9.839625
| 61>   H                    : 8.487820             0.297724             -10.722834
| 62>   H                    : 6.245528             0.058010             -10.219982
| 63>   H                    : 7.161661             -1.110750            -9.489318
| 64>   H                    : 6.696794             0.214839             -8.443639
| 65>   C                      5.398878             -5.549373            -9.768657
| 66>   O                      6.151562             -4.934993            -8.756105
| 67>   H                      6.269744             -5.501653            -7.966790
| 68>   H                      5.244938             -4.844621            -10.561838
| 69>   H                      5.819859             -6.446248            -10.290927
| 70>   H                      4.414631             -5.822922            -9.411986
| 71> *
| 72>
| 73>                          ****END OF INPUT****
 Total Charge           Charge          ....    0
 Multiplicity           Mult            ....    1
 Number of Electrons    NEL             ....   36
Dispersion correction           -0.000706410
FINAL SINGLE POINT ENERGY      -231.464214440320
Dispersion correction           -0.000245159
FINAL SINGLE POINT ENERGY      -115.729360340732

CARTESIAN COORDINATES (ANGSTROEM)
---------------------------------
  C      7.010154   -0.039045   -9.433605
  O      8.270154    0.587972   -9.839625
  H      8.487820    0.297724  -10.722834
  H      6.245528    0.058010  -10.219982
  H      7.161661   -1.110750   -9.489318
  H      6.696794    0.214839   -8.443639
  C      5.398878   -5.549373   -9.768657
  O      6.151562   -4.934993   -8.756105
  H      6.269744   -5.501653   -7.966790
  H      5.244938   -4.844621  -10.561838
  H      5.819859   -6.446248  -10.290927
  H      4.414631   -5.822922   -9.411986

 Multiplicity           Mult            ....    1
 Number of Electrons    NEL             ....   18
 Basis Dimension        Dim             ....  172

ORBITAL ENERGIES
----------------

  NO   OCC          E(Eh)            E(eV)
   0   2.0000     -19.233045      -523.3578
   1   2.0000     -10.311412      -280.5878
   2   2.0000      -1.133867       -30.8541
   3   2.0000      -0.798468       -21.7274
   4   2.0000      -0.613709       -16.6999
   5   2.0000      -0.540151       -14.6983
   6   2.0000      -0.527406       -14.3515
   7   2.0000      -0.427730       -11.6391
   8   2.0000      -0.373966       -10.1761
   9   0.0000       0.094034         2.5588
  10   0.0000       0.115563         3.1446
  11   0.0000       0.151074         4.1109
  12   0.0000       0.170537         4.6405
  13   0.0000       0.188883         5.1398

MULLIKEN ATOMIC CHARGES
-----------------------
   0 C :    0.000796
   1 O :   -0.000009
   2 H :   -0.000005
   3 H :   -0.000042
   4 H :   -0.001908
   5 H :   -0.000013
   6 C :   -0.142445
   7 O :   -0.482673
   8 H :    0.318625
   9 H :    0.120363
  10 H :    0.091660
  11 H :    0.095651
Sum of atomic charges:   -0.0000000

LOEWDIN ATOMIC CHARGES
----------------------
   0 C :   -0.000076
   1 O :   -0.000002
   2 H :   -0.000000
   3 H :   -0.000002
   4 H :   -0.000453
   5 H :   -0.000002
   6 C :   -0.396203
   7 O :   -0.075680
   8 H :    0.179594
   9 H :    0.105056
  10 H :    0.096958
  11 H :    0.090810

  Mayer bond orders larger than 0.1
B(  6-C ,  7-O ) :   1.0047 B(  6-C ,  9-H ) :   0.9748 B(  6-C , 10-H ) :   0.9674
B(  6-C , 11-H ) :   0.9816 B(  7-O ,  8-H ) :   0.8908

Dispersion correction           -0.000268010
FINAL SINGLE POINT ENERGY      -115.734249453767

DIPOLE MOMENT
-------------
                                X             Y             Z
Electronic contribution:      1.04198       0.89839       1.30042
Nuclear contribution   :     -1.27884      -1.48924      -1.19876
                        -----------------------------------------
Total Dipole Moment    :     -0.23686      -0.59085       0.10167
                        -----------------------------------------
Magnitude (a.u.)       :      0.64462
Magnitude (Debye)      :      1.63850

Rotational constants in cm-1:     4.472180     0.823589     0.798761
Rotational constants in MHz : 134072.592049 24690.571910 23946.247376

                             ****ORCA TERMINATED NORMALLY****
TOTAL RUN TIME: 0 days 0 hours 0 minutes 51 seconds 905 msec
