                         Program Version 4.1.2  - RELEASE  -
|  1> #Run DFT-D3 single point of the dimer
|  2> ! wB97X-D3 def2-TZVP TIGHTSCF CHELPG PMODEL PAL8
|  3>
|  4> %base "19-74_DFT_AB"
|  5>
|  6> %scf
|  7> MaxIter 1000
|  8> end
|  9>
| 10> * xyz 0 1
| 11>   C                      -0.575067            -10.156360           7.923037
| 12>   O                      0.034573             -8.867391            8.103202
| 13>   H                      0.063083             -8.534555            7.191090
| 14>   H                      -0.260916            -10.777409           8.756213
| 15>   H                      -1.647497            -10.080484           7.981376
| 16>   H                      -0.388357            -10.646817           7.019382
| 17>   C                      3.083637             -10.890021           6.927653
| 18>   O                      4.135061             -9.953050            7.196196
| 19>   H                      4.164866             -9.765137            8.121274
| 20>   H                      2.550669             -10.815411           5.993026
| 21>   H                      3.414156             -11.902974           6.897666
| 22>   H                      2.344302             -10.905381           7.724454
| 23> *
| 24>
| 25> #Run DFT-D3 single point of the molecule with dimer basis set
| 26> $new_job
| 27> %base "19-74_DFT_A"
| 28> ! wB97X-D3 def2-TZVP TIGHTSCF CHELPG PMODEL
| 29>
| 30> %scf
| 31> MaxIter 1000
| 32> end
| 33>
| 34> * xyz 0 1
| 35>   C                      -0.575067            -10.156360           7.923037
| 36>   O                      0.034573             -8.867391            8.103202
| 37>   H                      0.063083             -8.534555            7.191090
| 38>   H                      -0.260916            -10.777409           8.756213
| 39>   H                      -1.647497            -10.080484           7.981376
| 40>   H                      -0.388357            -10.646817           7.019382
| 41>   C                    : 3.083637             -10.890021           6.927653
| 42>   O                    : 4.135061             -9.953050            7.196196
| 43>   H                    : 4.164866             -9.765137            8.121274
| 44>   H                    : 2.550669             -10.815411           5.993026
| 45>   H                    : 3.414156             -11.902974           6.897666
| 46>   H                    : 2.344302             -10.905381           7.724454
| 47> *
| 48>
| 49> #Run DFT-D3 single point of the particle with dimer basis set
| 50> $new_job
| 51> %base "19-74_DFT_B"
| 52> ! wB97X-D3 def2-TZVP TIGHTSCF CHELPG PMODEL
| 53>
| 54> %scf
| 55> MaxIter 1000
| 56> end
| 57>
| 58> * xyz 0 1
| 59>   C                    : -0.575067            -10.156360           7.923037
| 60>   O                    : 0.034573             -8.867391            8.103202
| 61>   H                    : 0.063083             -8.534555            7.191090
| 62>   H                    : -0.260916            -10.777409           8.756213
| 63>   H                    : -1.647497            -10.080484           7.981376
| 64>   H                    : -0.388357            -10.646817           7.019382
| 65>   C                      3.083637             -10.890021           6.927653
| 66>   O                      4.135061             -9.953050            7.196196
| 67>   H                      4.164866             -9.765137            8.121274
| 68>   H                      2.550669             -10.815411           5.993026
| 69>   H                      3.414156             -11.902974           6.897666
| 70>   H                      2.344302             -10.905381           7.724454
| 71> *
| 72>
| 73>                          ****END OF INPUT****
 Total Charge           Charge          ....    0
 Multiplicity           Mult            ....    1
 Number of Electrons    NEL             ....   36
Dispersion correction           -0.001767118
FINAL SINGLE POINT ENERGY      -231.464228535614
Dispersion correction           -0.000234221
FINAL SINGLE POINT ENERGY      -115.732464422960

CARTESIAN COORDINATES (ANGSTROEM)
---------------------------------
  C     -0.575067  -10.156360    7.923037
  O      0.034573   -8.867391    8.103202
  H      0.063083   -8.534555    7.191090
  H     -0.260916  -10.777409    8.756213
  H     -1.647497  -10.080484    7.981376
  H     -0.388357  -10.646817    7.019382
  C      3.083637  -10.890021    6.927653
  O      4.135061   -9.953050    7.196196
  H      4.164866   -9.765137    8.121274
  H      2.550669  -10.815411    5.993026
  H      3.414156  -11.902974    6.897666
  H      2.344302  -10.905381    7.724454

 Multiplicity           Mult            ....    1
 Number of Electrons    NEL             ....   18
 Basis Dimension        Dim             ....  172

ORBITAL ENERGIES
----------------

  NO   OCC          E(Eh)            E(eV)
   0   2.0000     -19.231001      -523.3021
   1   2.0000     -10.310523      -280.5636
   2   2.0000      -1.133161       -30.8349
   3   2.0000      -0.805927       -21.9304
   4   2.0000      -0.614620       -16.7247
   5   2.0000      -0.536776       -14.6064
   6   2.0000      -0.530412       -14.4332
   7   2.0000      -0.434584       -11.8256
   8   2.0000      -0.374744       -10.1973
   9   0.0000       0.081282         2.2118
  10   0.0000       0.119564         3.2535
  11   0.0000       0.151069         4.1108
  12   0.0000       0.160326         4.3627
  13   0.0000       0.187165         5.0930

MULLIKEN ATOMIC CHARGES
-----------------------
   0 C :   -0.000711
   1 O :    0.000660
   2 H :    0.000220
   3 H :   -0.000651
   4 H :   -0.000245
   5 H :   -0.001163
   6 C :   -0.166923
   7 O :   -0.475102
   8 H :    0.316955
   9 H :    0.118434
  10 H :    0.104719
  11 H :    0.103807
Sum of atomic charges:   -0.0000000

LOEWDIN ATOMIC CHARGES
----------------------
   0 C :   -0.006735
   1 O :   -0.000378
   2 H :   -0.000202
   3 H :   -0.001253
   4 H :   -0.000073
   5 H :   -0.001502
   6 C :   -0.366203
   7 O :   -0.079172
   8 H :    0.159589
   9 H :    0.104514
  10 H :    0.091820
  11 H :    0.099594

  Mayer bond orders larger than 0.1
B(  6-C ,  7-O ) :   1.0089 B(  6-C ,  9-H ) :   0.9770 B(  6-C , 10-H ) :   0.9707
B(  6-C , 11-H ) :   0.9894 B(  7-O ,  8-H ) :   0.9009

Dispersion correction           -0.000262735
FINAL SINGLE POINT ENERGY      -115.730049977122

DIPOLE MOMENT
-------------
                                X             Y             Z
Electronic contribution:      1.42856       1.33019       0.15792
Nuclear contribution   :     -1.84805      -1.60843       0.33961
                        -----------------------------------------
Total Dipole Moment    :     -0.41949      -0.27824       0.49753
                        -----------------------------------------
Magnitude (a.u.)       :      0.70776
Magnitude (Debye)      :      1.79898

Rotational constants in cm-1:     4.668202     0.803120     0.770263
Rotational constants in MHz : 139949.188196 24076.935496 23091.898956

                             ****ORCA TERMINATED NORMALLY****
TOTAL RUN TIME: 0 days 0 hours 2 minutes 19 seconds 864 msec
