                         Program Version 4.1.2  - RELEASE  -
|  1> #Run DFT-D3 single point of the dimer
|  2> ! wB97X-D3 def2-TZVP TIGHTSCF CHELPG PMODEL PAL8
|  3>
|  4> %base "19-67_DFT_AB"
|  5>
|  6> %scf
|  7> MaxIter 1000
|  8> end
|  9>
| 10> * xyz 0 1
| 11>   C                      -7.284692            9.448034             8.888117
| 12>   O                      -8.112072            10.027242            9.933787
| 13>   H                      -7.642018            10.829037            10.204778
| 14>   H                      -6.230103            9.391925             9.178771
| 15>   H                      -7.543175            8.418381             8.673947
| 16>   H                      -7.374277            10.050018            7.969878
| 17>   C                      -3.541295            10.521136            9.568644
| 18>   O                      -3.399435            10.060279            8.250291
| 19>   H                      -3.946769            10.629168            7.612722
| 20>   H                      -3.593873            11.622701            9.462151
| 21>   H                      -4.505612            10.219647            10.041513
| 22>   H                      -2.746563            10.239366            10.237962
| 23> *
| 24>
| 25> #Run DFT-D3 single point of the molecule with dimer basis set
| 26> $new_job
| 27> %base "19-67_DFT_A"
| 28> ! wB97X-D3 def2-TZVP TIGHTSCF CHELPG PMODEL
| 29>
| 30> %scf
| 31> MaxIter 1000
| 32> end
| 33>
| 34> * xyz 0 1
| 35>   C                      -7.284692            9.448034             8.888117
| 36>   O                      -8.112072            10.027242            9.933787
| 37>   H                      -7.642018            10.829037            10.204778
| 38>   H                      -6.230103            9.391925             9.178771
| 39>   H                      -7.543175            8.418381             8.673947
| 40>   H                      -7.374277            10.050018            7.969878
| 41>   C                    : -3.541295            10.521136            9.568644
| 42>   O                    : -3.399435            10.060279            8.250291
| 43>   H                    : -3.946769            10.629168            7.612722
| 44>   H                    : -3.593873            11.622701            9.462151
| 45>   H                    : -4.505612            10.219647            10.041513
| 46>   H                    : -2.746563            10.239366            10.237962
| 47> *
| 48>
| 49> #Run DFT-D3 single point of the particle with dimer basis set
| 50> $new_job
| 51> %base "19-67_DFT_B"
| 52> ! wB97X-D3 def2-TZVP TIGHTSCF CHELPG PMODEL
| 53>
| 54> %scf
| 55> MaxIter 1000
| 56> end
| 57>
| 58> * xyz 0 1
| 59>   C                    : -7.284692            9.448034             8.888117
| 60>   O                    : -8.112072            10.027242            9.933787
| 61>   H                    : -7.642018            10.829037            10.204778
| 62>   H                    : -6.230103            9.391925             9.178771
| 63>   H                    : -7.543175            8.418381             8.673947
| 64>   H                    : -7.374277            10.050018            7.969878
| 65>   C                      -3.541295            10.521136            9.568644
| 66>   O                      -3.399435            10.060279            8.250291
| 67>   H                      -3.946769            10.629168            7.612722
| 68>   H                      -3.593873            11.622701            9.462151
| 69>   H                      -4.505612            10.219647            10.041513
| 70>   H                      -2.746563            10.239366            10.237962
| 71> *
| 72>
| 73>                          ****END OF INPUT****
 Total Charge           Charge          ....    0
 Multiplicity           Mult            ....    1
 Number of Electrons    NEL             ....   36
Dispersion correction           -0.001718715
FINAL SINGLE POINT ENERGY      -231.464729362943
Dispersion correction           -0.000251047
FINAL SINGLE POINT ENERGY      -115.734776550744

CARTESIAN COORDINATES (ANGSTROEM)
---------------------------------
  C     -7.284692    9.448034    8.888117
  O     -8.112072   10.027242    9.933787
  H     -7.642018   10.829037   10.204778
  H     -6.230103    9.391925    9.178771
  H     -7.543175    8.418381    8.673947
  H     -7.374277   10.050018    7.969878
  C     -3.541295   10.521136    9.568644
  O     -3.399435   10.060279    8.250291
  H     -3.946769   10.629168    7.612722
  H     -3.593873   11.622701    9.462151
  H     -4.505612   10.219647   10.041513
  H     -2.746563   10.239366   10.237962

 Multiplicity           Mult            ....    1
 Number of Electrons    NEL             ....   18
 Basis Dimension        Dim             ....  172

ORBITAL ENERGIES
----------------

  NO   OCC          E(Eh)            E(eV)
   0   2.0000     -19.233086      -523.3589
   1   2.0000     -10.314765      -280.6790
   2   2.0000      -1.128904       -30.7190
   3   2.0000      -0.789480       -21.4828
   4   2.0000      -0.605944       -16.4886
   5   2.0000      -0.540434       -14.7059
   6   2.0000      -0.534535       -14.5454
   7   2.0000      -0.425398       -11.5757
   8   2.0000      -0.367906       -10.0112
   9   0.0000       0.079393         2.1604
  10   0.0000       0.116469         3.1693
  11   0.0000       0.148762         4.0480
  12   0.0000       0.172405         4.6914
  13   0.0000       0.193637         5.2691

MULLIKEN ATOMIC CHARGES
-----------------------
   0 C :   -0.004992
   1 O :    0.000074
   2 H :   -0.000057
   3 H :    0.008378
   4 H :    0.000110
   5 H :   -0.000259
   6 C :   -0.164053
   7 O :   -0.482511
   8 H :    0.323810
   9 H :    0.101873
  10 H :    0.085424
  11 H :    0.132203
Sum of atomic charges:   -0.0000000

LOEWDIN ATOMIC CHARGES
----------------------
   0 C :   -0.004295
   1 O :   -0.000084
   2 H :   -0.000408
   3 H :   -0.007155
   4 H :   -0.000017
   5 H :   -0.000204
   6 C :   -0.394226
   7 O :   -0.095961
   8 H :    0.201820
   9 H :    0.099256
  10 H :    0.098116
  11 H :    0.103157

  Mayer bond orders larger than 0.1
B(  6-C ,  7-O ) :   1.0002 B(  6-C ,  9-H ) :   0.9972 B(  6-C , 10-H ) :   0.9706
B(  6-C , 11-H ) :   0.9706 B(  7-O ,  8-H ) :   0.8863

Dispersion correction           -0.000239953
FINAL SINGLE POINT ENERGY      -115.729381315982

DIPOLE MOMENT
-------------
                                X             Y             Z
Electronic contribution:      0.40296      -0.83059      -1.59729
Nuclear contribution   :     -0.77921       1.37351       1.70627
                        -----------------------------------------
Total Dipole Moment    :     -0.37625       0.54292       0.10897
                        -----------------------------------------
Magnitude (a.u.)       :      0.66948
Magnitude (Debye)      :      1.70169

Rotational constants in cm-1:     4.220843     0.836649     0.801626
Rotational constants in MHz : 126537.683480 25082.104102 24032.154132

                             ****ORCA TERMINATED NORMALLY****
TOTAL RUN TIME: 0 days 0 hours 0 minutes 51 seconds 97 msec
