                         Program Version 4.1.2  - RELEASE  -
|  1> #Run DFT-D3 single point of the dimer
|  2> ! wB97X-D3 def2-TZVP TIGHTSCF CHELPG PMODEL PAL8
|  3>
|  4> %base "9-75_DFT_AB"
|  5>
|  6> %scf
|  7> MaxIter 1000
|  8> end
|  9>
| 10> * xyz 0 1
| 11>   C                      -6.988085            5.917320             -1.756806
| 12>   O                      -5.841079            5.346315             -1.198149
| 13>   H                      -6.238028            4.725105             -0.596400
| 14>   H                      -7.469596            5.138823             -2.402609
| 15>   H                      -7.670168            6.304700             -1.043612
| 16>   H                      -6.732474            6.712058             -2.340388
| 17>   C                      -4.842045            7.838323             1.272649
| 18>   O                      -4.123788            7.309092             2.305676
| 19>   H                      -3.199384            7.520210             2.117756
| 20>   H                      -5.833426            7.371464             1.154109
| 21>   H                      -4.977565            8.933817             1.339982
| 22>   H                      -4.219223            7.709401             0.386398
| 23> *
| 24>
| 25> #Run DFT-D3 single point of the molecule with dimer basis set
| 26> $new_job
| 27> %base "9-75_DFT_A"
| 28> ! wB97X-D3 def2-TZVP TIGHTSCF CHELPG PMODEL
| 29>
| 30> %scf
| 31> MaxIter 1000
| 32> end
| 33>
| 34> * xyz 0 1
| 35>   C                      -6.988085            5.917320             -1.756806
| 36>   O                      -5.841079            5.346315             -1.198149
| 37>   H                      -6.238028            4.725105             -0.596400
| 38>   H                      -7.469596            5.138823             -2.402609
| 39>   H                      -7.670168            6.304700             -1.043612
| 40>   H                      -6.732474            6.712058             -2.340388
| 41>   C                    : -4.842045            7.838323             1.272649
| 42>   O                    : -4.123788            7.309092             2.305676
| 43>   H                    : -3.199384            7.520210             2.117756
| 44>   H                    : -5.833426            7.371464             1.154109
| 45>   H                    : -4.977565            8.933817             1.339982
| 46>   H                    : -4.219223            7.709401             0.386398
| 47> *
| 48>
| 49> #Run DFT-D3 single point of the particle with dimer basis set
| 50> $new_job
| 51> %base "9-75_DFT_B"
| 52> ! wB97X-D3 def2-TZVP TIGHTSCF CHELPG PMODEL
| 53>
| 54> %scf
| 55> MaxIter 1000
| 56> end
| 57>
| 58> * xyz 0 1
| 59>   C                    : -6.988085            5.917320             -1.756806
| 60>   O                    : -5.841079            5.346315             -1.198149
| 61>   H                    : -6.238028            4.725105             -0.596400
| 62>   H                    : -7.469596            5.138823             -2.402609
| 63>   H                    : -7.670168            6.304700             -1.043612
| 64>   H                    : -6.732474            6.712058             -2.340388
| 65>   C                      -4.842045            7.838323             1.272649
| 66>   O                      -4.123788            7.309092             2.305676
| 67>   H                      -3.199384            7.520210             2.117756
| 68>   H                      -5.833426            7.371464             1.154109
| 69>   H                      -4.977565            8.933817             1.339982
| 70>   H                      -4.219223            7.709401             0.386398
| 71> *
| 72>
| 73>                          ****END OF INPUT****
 Total Charge           Charge          ....    0
 Multiplicity           Mult            ....    1
 Number of Electrons    NEL             ....   36
Dispersion correction           -0.001482657
FINAL SINGLE POINT ENERGY      -231.462093105689
Dispersion correction           -0.000197776
FINAL SINGLE POINT ENERGY      -115.729514455169

CARTESIAN COORDINATES (ANGSTROEM)
---------------------------------
  C     -6.988085    5.917320   -1.756806
  O     -5.841079    5.346315   -1.198149
  H     -6.238028    4.725105   -0.596400
  H     -7.469596    5.138823   -2.402609
  H     -7.670168    6.304700   -1.043612
  H     -6.732474    6.712058   -2.340388
  C     -4.842045    7.838323    1.272649
  O     -4.123788    7.309092    2.305676
  H     -3.199384    7.520210    2.117756
  H     -5.833426    7.371464    1.154109
  H     -4.977565    8.933817    1.339982
  H     -4.219223    7.709401    0.386398

 Multiplicity           Mult            ....    1
 Number of Electrons    NEL             ....   18
 Basis Dimension        Dim             ....  172

ORBITAL ENERGIES
----------------

  NO   OCC          E(Eh)            E(eV)
   0   2.0000     -19.230184      -523.2799
   1   2.0000     -10.310900      -280.5739
   2   2.0000      -1.153658       -31.3926
   3   2.0000      -0.789143       -21.4737
   4   2.0000      -0.622266       -16.9327
   5   2.0000      -0.543637       -14.7931
   6   2.0000      -0.537504       -14.6262
   7   2.0000      -0.432714       -11.7748
   8   2.0000      -0.367011        -9.9869
   9   0.0000       0.084362         2.2956
  10   0.0000       0.111544         3.0353
  11   0.0000       0.159743         4.3468
  12   0.0000       0.164677         4.4811
  13   0.0000       0.179880         4.8948

MULLIKEN ATOMIC CHARGES
-----------------------
   0 C :   -0.001766
   1 O :    0.000143
   2 H :    0.000150
   3 H :   -0.000025
   4 H :    0.000031
   5 H :    0.000201
   6 C :   -0.156112
   7 O :   -0.459471
   8 H :    0.319068
   9 H :    0.118011
  10 H :    0.088246
  11 H :    0.091524
Sum of atomic charges:    0.0000000

LOEWDIN ATOMIC CHARGES
----------------------
   0 C :   -0.002168
   1 O :   -0.001096
   2 H :   -0.000323
   3 H :   -0.000025
   4 H :   -0.000612
   5 H :   -0.000123
   6 C :   -0.426340
   7 O :   -0.044310
   8 H :    0.180238
   9 H :    0.109239
  10 H :    0.091694
  11 H :    0.093825

  Mayer bond orders larger than 0.1
B(  6-C ,  7-O ) :   1.0097 B(  6-C ,  9-H ) :   0.9710 B(  6-C , 10-H ) :   0.9656
B(  6-C , 11-H ) :   0.9979 B(  7-O ,  8-H ) :   0.8964

Dispersion correction           -0.000210007
FINAL SINGLE POINT ENERGY      -115.731403901287

DIPOLE MOMENT
-------------
                                X             Y             Z
Electronic contribution:      0.74003      -0.82619       1.50727
Nuclear contribution   :     -0.40729       1.13659      -2.00371
                        -----------------------------------------
Total Dipole Moment    :      0.33274       0.31040      -0.49644
                        -----------------------------------------
Magnitude (a.u.)       :      0.67344
Magnitude (Debye)      :      1.71174

Rotational constants in cm-1:     4.243069     0.888431     0.844863
Rotational constants in MHz : 127204.012839 26634.499399 25328.350742

                             ****ORCA TERMINATED NORMALLY****
TOTAL RUN TIME: 0 days 0 hours 0 minutes 43 seconds 891 msec
