                         Program Version 4.1.2  - RELEASE  -
|  1> #Run DFT-D3 single point of the dimer
|  2> ! wB97X-D3 def2-TZVP TIGHTSCF CHELPG PMODEL PAL8
|  3>
|  4> %base "10-209_DFT_AB"
|  5>
|  6> %scf
|  7> MaxIter 1000
|  8> end
|  9>
| 10> * xyz 0 1
| 11>   C                      1.492842             -1.616717            9.316744
| 12>   O                      2.565205             -0.805141            9.549904
| 13>   H                      3.306572             -1.395744            9.479133
| 14>   H                      0.628720             -1.037586            9.032830
| 15>   H                      1.697302             -2.385881            8.503197
| 16>   H                      1.251846             -2.163119            10.244654
| 17>   C                      3.882099             2.184451             9.631789
| 18>   O                      3.000402             1.722886             10.616465
| 19>   H                      2.309864             1.192647             10.191350
| 20>   H                      3.353727             2.811146             8.937022
| 21>   H                      4.641639             2.952712             9.894458
| 22>   H                      4.327532             1.397473             9.044047
| 23> *
| 24>
| 25> #Run DFT-D3 single point of the molecule with dimer basis set
| 26> $new_job
| 27> %base "10-209_DFT_A"
| 28> ! wB97X-D3 def2-TZVP TIGHTSCF CHELPG PMODEL
| 29>
| 30> %scf
| 31> MaxIter 1000
| 32> end
| 33>
| 34> * xyz 0 1
| 35>   C                      1.492842             -1.616717            9.316744
| 36>   O                      2.565205             -0.805141            9.549904
| 37>   H                      3.306572             -1.395744            9.479133
| 38>   H                      0.628720             -1.037586            9.032830
| 39>   H                      1.697302             -2.385881            8.503197
| 40>   H                      1.251846             -2.163119            10.244654
| 41>   C                    : 3.882099             2.184451             9.631789
| 42>   O                    : 3.000402             1.722886             10.616465
| 43>   H                    : 2.309864             1.192647             10.191350
| 44>   H                    : 3.353727             2.811146             8.937022
| 45>   H                    : 4.641639             2.952712             9.894458
| 46>   H                    : 4.327532             1.397473             9.044047
| 47> *
| 48>
| 49> #Run DFT-D3 single point of the particle with dimer basis set
| 50> $new_job
| 51> %base "10-209_DFT_B"
| 52> ! wB97X-D3 def2-TZVP TIGHTSCF CHELPG PMODEL
| 53>
| 54> %scf
| 55> MaxIter 1000
| 56> end
| 57>
| 58> * xyz 0 1
| 59>   C                    : 1.492842             -1.616717            9.316744
| 60>   O                    : 2.565205             -0.805141            9.549904
| 61>   H                    : 3.306572             -1.395744            9.479133
| 62>   H                    : 0.628720             -1.037586            9.032830
| 63>   H                    : 1.697302             -2.385881            8.503197
| 64>   H                    : 1.251846             -2.163119            10.244654
| 65>   C                      3.882099             2.184451             9.631789
| 66>   O                      3.000402             1.722886             10.616465
| 67>   H                      2.309864             1.192647             10.191350
| 68>   H                      3.353727             2.811146             8.937022
| 69>   H                      4.641639             2.952712             9.894458
| 70>   H                      4.327532             1.397473             9.044047
| 71> *
| 72>
| 73>                          ****END OF INPUT****
 Total Charge           Charge          ....    0
 Multiplicity           Mult            ....    1
 Number of Electrons    NEL             ....   36
Dispersion correction           -0.001772545
FINAL SINGLE POINT ENERGY      -231.464206292685
Dispersion correction           -0.000208836
FINAL SINGLE POINT ENERGY      -115.733004944071

CARTESIAN COORDINATES (ANGSTROEM)
---------------------------------
  C      1.492842   -1.616717    9.316744
  O      2.565205   -0.805141    9.549904
  H      3.306572   -1.395744    9.479133
  H      0.628720   -1.037586    9.032830
  H      1.697302   -2.385881    8.503197
  H      1.251846   -2.163119   10.244654
  C      3.882099    2.184451    9.631789
  O      3.000402    1.722886   10.616465
  H      2.309864    1.192647   10.191350
  H      3.353727    2.811146    8.937022
  H      4.641639    2.952712    9.894458
  H      4.327532    1.397473    9.044047

 Multiplicity           Mult            ....    1
 Number of Electrons    NEL             ....   18
 Basis Dimension        Dim             ....  172

ORBITAL ENERGIES
----------------

  NO   OCC          E(Eh)            E(eV)
   0   2.0000     -19.233887      -523.3807
   1   2.0000     -10.310490      -280.5627
   2   2.0000      -1.139940       -31.0194
   3   2.0000      -0.799263       -21.7490
   4   2.0000      -0.615863       -16.7585
   5   2.0000      -0.550752       -14.9867
   6   2.0000      -0.526096       -14.3158
   7   2.0000      -0.426664       -11.6101
   8   2.0000      -0.373093       -10.1524
   9   0.0000       0.071662         1.9500
  10   0.0000       0.132259         3.5990
  11   0.0000       0.142918         3.8890
  12   0.0000       0.163269         4.4428
  13   0.0000       0.196352         5.3430

MULLIKEN ATOMIC CHARGES
-----------------------
   0 C :   -0.003312
   1 O :   -0.006627
   2 H :   -0.000528
   3 H :   -0.000194
   4 H :    0.000016
   5 H :    0.000177
   6 C :   -0.175683
   7 O :   -0.465844
   8 H :    0.321818
   9 H :    0.101546
  10 H :    0.123287
  11 H :    0.105343
Sum of atomic charges:    0.0000000

LOEWDIN ATOMIC CHARGES
----------------------
   0 C :   -0.002952
   1 O :   -0.018289
   2 H :   -0.001261
   3 H :   -0.000349
   4 H :   -0.000054
   5 H :   -0.000073
   6 C :   -0.403978
   7 O :   -0.055536
   8 H :    0.182868
   9 H :    0.091891
  10 H :    0.115891
  11 H :    0.091841

  Mayer bond orders larger than 0.1
B(  6-C ,  7-O ) :   1.0008 B(  6-C ,  9-H ) :   0.9875 B(  6-C , 10-H ) :   0.9690
B(  6-C , 11-H ) :   0.9748 B(  7-O ,  8-H ) :   0.8935

Dispersion correction           -0.000240853
FINAL SINGLE POINT ENERGY      -115.728321291297

DIPOLE MOMENT
-------------
                                X             Y             Z
Electronic contribution:     -1.01128      -0.65851       1.54663
Nuclear contribution   :      0.91146       0.54685      -2.21504
                        -----------------------------------------
Total Dipole Moment    :     -0.09982      -0.11166      -0.66841
                        -----------------------------------------
Magnitude (a.u.)       :      0.68498
Magnitude (Debye)      :      1.74109

Rotational constants in cm-1:     4.541548     0.830997     0.800525
Rotational constants in MHz : 136152.176001 24912.653408 23999.137168

                             ****ORCA TERMINATED NORMALLY****
TOTAL RUN TIME: 0 days 0 hours 1 minutes 10 seconds 387 msec
