                         Program Version 4.1.2  - RELEASE  -
|  1> #Run DFT-D3 single point of the dimer
|  2> ! wB97X-D3 def2-TZVP TIGHTSCF CHELPG PMODEL PAL8
|  3>
|  4> %base "2-143_DFT_AB"
|  5>
|  6> %scf
|  7> MaxIter 1000
|  8> end
|  9>
| 10> * xyz 0 1
| 11>   C                      9.461003             -2.053133            -8.480720
| 12>   O                      10.602396            -2.423743            -9.216608
| 13>   H                      10.359281            -2.569251            -10.118640
| 14>   H                      8.540388             -2.501587            -8.746617
| 15>   H                      9.715682             -2.249565            -7.412942
| 16>   H                      9.241016             -0.944311            -8.524325
| 17>   C                      8.757536             -7.790057            -11.466378
| 18>   O                      9.680474             -6.948176            -12.123370
| 19>   H                      9.590229             -6.080873            -11.813076
| 20>   H                      7.812078             -7.348347            -11.129758
| 21>   H                      8.470347             -8.622161            -12.028004
| 22>   H                      9.173714             -8.433329            -10.648285
| 23> *
| 24>
| 25> #Run DFT-D3 single point of the molecule with dimer basis set
| 26> $new_job
| 27> %base "2-143_DFT_A"
| 28> ! wB97X-D3 def2-TZVP TIGHTSCF CHELPG PMODEL
| 29>
| 30> %scf
| 31> MaxIter 1000
| 32> end
| 33>
| 34> * xyz 0 1
| 35>   C                      9.461003             -2.053133            -8.480720
| 36>   O                      10.602396            -2.423743            -9.216608
| 37>   H                      10.359281            -2.569251            -10.118640
| 38>   H                      8.540388             -2.501587            -8.746617
| 39>   H                      9.715682             -2.249565            -7.412942
| 40>   H                      9.241016             -0.944311            -8.524325
| 41>   C                    : 8.757536             -7.790057            -11.466378
| 42>   O                    : 9.680474             -6.948176            -12.123370
| 43>   H                    : 9.590229             -6.080873            -11.813076
| 44>   H                    : 7.812078             -7.348347            -11.129758
| 45>   H                    : 8.470347             -8.622161            -12.028004
| 46>   H                    : 9.173714             -8.433329            -10.648285
| 47> *
| 48>
| 49> #Run DFT-D3 single point of the particle with dimer basis set
| 50> $new_job
| 51> %base "2-143_DFT_B"
| 52> ! wB97X-D3 def2-TZVP TIGHTSCF CHELPG PMODEL
| 53>
| 54> %scf
| 55> MaxIter 1000
| 56> end
| 57>
| 58> * xyz 0 1
| 59>   C                    : 9.461003             -2.053133            -8.480720
| 60>   O                    : 10.602396            -2.423743            -9.216608
| 61>   H                    : 10.359281            -2.569251            -10.118640
| 62>   H                    : 8.540388             -2.501587            -8.746617
| 63>   H                    : 9.715682             -2.249565            -7.412942
| 64>   H                    : 9.241016             -0.944311            -8.524325
| 65>   C                      8.757536             -7.790057            -11.466378
| 66>   O                      9.680474             -6.948176            -12.123370
| 67>   H                      9.590229             -6.080873            -11.813076
| 68>   H                      7.812078             -7.348347            -11.129758
| 69>   H                      8.470347             -8.622161            -12.028004
| 70>   H                      9.173714             -8.433329            -10.648285
| 71> *
| 72>
| 73>                          ****END OF INPUT****
 Total Charge           Charge          ....    0
 Multiplicity           Mult            ....    1
 Number of Electrons    NEL             ....   36
Dispersion correction           -0.000674777
FINAL SINGLE POINT ENERGY      -231.458142622022
Dispersion correction           -0.000257608
FINAL SINGLE POINT ENERGY      -115.733442170810

CARTESIAN COORDINATES (ANGSTROEM)
---------------------------------
  C      9.461003   -2.053133   -8.480720
  O     10.602396   -2.423743   -9.216608
  H     10.359281   -2.569251  -10.118640
  H      8.540388   -2.501587   -8.746617
  H      9.715682   -2.249565   -7.412942
  H      9.241016   -0.944311   -8.524325
  C      8.757536   -7.790057  -11.466378
  O      9.680474   -6.948176  -12.123370
  H      9.590229   -6.080873  -11.813076
  H      7.812078   -7.348347  -11.129758
  H      8.470347   -8.622161  -12.028004
  H      9.173714   -8.433329  -10.648285

 Multiplicity           Mult            ....    1
 Number of Electrons    NEL             ....   18
 Basis Dimension        Dim             ....  172

ORBITAL ENERGIES
----------------

  NO   OCC          E(Eh)            E(eV)
   0   2.0000     -19.232965      -523.3556
   1   2.0000     -10.310732      -280.5693
   2   2.0000      -1.145181       -31.1619
   3   2.0000      -0.808125       -21.9902
   4   2.0000      -0.620895       -16.8954
   5   2.0000      -0.544445       -14.8151
   6   2.0000      -0.522438       -14.2163
   7   2.0000      -0.437633       -11.9086
   8   2.0000      -0.372423       -10.1341
   9   0.0000       0.078359         2.1323
  10   0.0000       0.118198         3.2163
  11   0.0000       0.144400         3.9293
  12   0.0000       0.168418         4.5829
  13   0.0000       0.192644         5.2421

MULLIKEN ATOMIC CHARGES
-----------------------
   0 C :    0.000009
   1 O :    0.000004
   2 H :   -0.000051
   3 H :   -0.000006
   4 H :    0.000000
   5 H :   -0.000001
   6 C :   -0.176205
   7 O :   -0.460609
   8 H :    0.314039
   9 H :    0.106835
  10 H :    0.122495
  11 H :    0.093491
Sum of atomic charges:   -0.0000000

LOEWDIN ATOMIC CHARGES
----------------------
   0 C :   -0.000003
   1 O :   -0.000003
   2 H :   -0.000060
   3 H :   -0.000001
   4 H :   -0.000000
   5 H :   -0.000000
   6 C :   -0.397094
   7 O :   -0.049242
   8 H :    0.148716
   9 H :    0.098474
  10 H :    0.096655
  11 H :    0.102558

  Mayer bond orders larger than 0.1
B(  6-C ,  7-O ) :   1.0197 B(  6-C ,  9-H ) :   0.9773 B(  6-C , 10-H ) :   0.9768
B(  6-C , 11-H ) :   0.9754 B(  7-O ,  8-H ) :   0.9047

Dispersion correction           -0.000277362
FINAL SINGLE POINT ENERGY      -115.725114064875

DIPOLE MOMENT
-------------
                                X             Y             Z
Electronic contribution:      1.26768       1.23113      -0.99955
Nuclear contribution   :     -1.70925      -1.01757       1.42815
                        -----------------------------------------
Total Dipole Moment    :     -0.44156       0.21356       0.42859
                        -----------------------------------------
Magnitude (a.u.)       :      0.65137
Magnitude (Debye)      :      1.65564

Rotational constants in cm-1:     4.720903     0.817396     0.783169
Rotational constants in MHz : 141529.109046 24504.929888 23478.826665

                             ****ORCA TERMINATED NORMALLY****
TOTAL RUN TIME: 0 days 0 hours 6 minutes 16 seconds 850 msec
