                         Program Version 4.1.2  - RELEASE  -
|  1> #Run DFT-D3 single point of the dimer
|  2> ! wB97X-D3 def2-TZVP TIGHTSCF CHELPG PMODEL PAL8
|  3>
|  4> %base "7-143_DFT_AB"
|  5>
|  6> %scf
|  7> MaxIter 1000
|  8> end
|  9>
| 10> * xyz 0 1
| 11>   C                      -0.791871            0.813297             -8.061991
| 12>   O                      0.599258             1.023185             -8.096228
| 13>   H                      0.860506             1.887036             -7.719944
| 14>   H                      -1.410076            1.673867             -8.405220
| 15>   H                      -1.066712            -0.003070            -8.757313
| 16>   H                      -1.275459            0.581455             -7.114919
| 17>   C                      4.787785             -0.414253            -4.699214
| 18>   O                      4.740598             -0.563497            -6.126738
| 19>   H                      3.893452             -0.895467            -6.441688
| 20>   H                      4.687855             -1.421507            -4.229661
| 21>   H                      5.757657             0.014001             -4.400457
| 22>   H                      4.012483             0.228443             -4.255578
| 23> *
| 24>
| 25> #Run DFT-D3 single point of the molecule with dimer basis set
| 26> $new_job
| 27> %base "7-143_DFT_A"
| 28> ! wB97X-D3 def2-TZVP TIGHTSCF CHELPG PMODEL
| 29>
| 30> %scf
| 31> MaxIter 1000
| 32> end
| 33>
| 34> * xyz 0 1
| 35>   C                      -0.791871            0.813297             -8.061991
| 36>   O                      0.599258             1.023185             -8.096228
| 37>   H                      0.860506             1.887036             -7.719944
| 38>   H                      -1.410076            1.673867             -8.405220
| 39>   H                      -1.066712            -0.003070            -8.757313
| 40>   H                      -1.275459            0.581455             -7.114919
| 41>   C                    : 4.787785             -0.414253            -4.699214
| 42>   O                    : 4.740598             -0.563497            -6.126738
| 43>   H                    : 3.893452             -0.895467            -6.441688
| 44>   H                    : 4.687855             -1.421507            -4.229661
| 45>   H                    : 5.757657             0.014001             -4.400457
| 46>   H                    : 4.012483             0.228443             -4.255578
| 47> *
| 48>
| 49> #Run DFT-D3 single point of the particle with dimer basis set
| 50> $new_job
| 51> %base "7-143_DFT_B"
| 52> ! wB97X-D3 def2-TZVP TIGHTSCF CHELPG PMODEL
| 53>
| 54> %scf
| 55> MaxIter 1000
| 56> end
| 57>
| 58> * xyz 0 1
| 59>   C                    : -0.791871            0.813297             -8.061991
| 60>   O                    : 0.599258             1.023185             -8.096228
| 61>   H                    : 0.860506             1.887036             -7.719944
| 62>   H                    : -1.410076            1.673867             -8.405220
| 63>   H                    : -1.066712            -0.003070            -8.757313
| 64>   H                    : -1.275459            0.581455             -7.114919
| 65>   C                      4.787785             -0.414253            -4.699214
| 66>   O                      4.740598             -0.563497            -6.126738
| 67>   H                      3.893452             -0.895467            -6.441688
| 68>   H                      4.687855             -1.421507            -4.229661
| 69>   H                      5.757657             0.014001             -4.400457
| 70>   H                      4.012483             0.228443             -4.255578
| 71> *
| 72>
| 73>                          ****END OF INPUT****
 Total Charge           Charge          ....    0
 Multiplicity           Mult            ....    1
 Number of Electrons    NEL             ....   36
Dispersion correction           -0.000715691
FINAL SINGLE POINT ENERGY      -231.468805965663
Dispersion correction           -0.000281572
FINAL SINGLE POINT ENERGY      -115.732851640616

CARTESIAN COORDINATES (ANGSTROEM)
---------------------------------
  C     -0.791871    0.813297   -8.061991
  O      0.599258    1.023185   -8.096228
  H      0.860506    1.887036   -7.719944
  H     -1.410076    1.673867   -8.405220
  H     -1.066712   -0.003070   -8.757313
  H     -1.275459    0.581455   -7.114919
  C      4.787785   -0.414253   -4.699214
  O      4.740598   -0.563497   -6.126738
  H      3.893452   -0.895467   -6.441688
  H      4.687855   -1.421507   -4.229661
  H      5.757657    0.014001   -4.400457
  H      4.012483    0.228443   -4.255578

 Multiplicity           Mult            ....    1
 Number of Electrons    NEL             ....   18
 Basis Dimension        Dim             ....  172

ORBITAL ENERGIES
----------------

  NO   OCC          E(Eh)            E(eV)
   0   2.0000     -19.229290      -523.2556
   1   2.0000     -10.319484      -280.8074
   2   2.0000      -1.125855       -30.6361
   3   2.0000      -0.795812       -21.6552
   4   2.0000      -0.607584       -16.5332
   5   2.0000      -0.535431       -14.5698
   6   2.0000      -0.523691       -14.2504
   7   2.0000      -0.429861       -11.6971
   8   2.0000      -0.373254       -10.1568
   9   0.0000       0.081633         2.2213
  10   0.0000       0.114195         3.1074
  11   0.0000       0.149307         4.0629
  12   0.0000       0.165437         4.5018
  13   0.0000       0.193500         5.2654

MULLIKEN ATOMIC CHARGES
-----------------------
   0 C :   -0.000011
   1 O :   -0.000011
   2 H :   -0.000064
   3 H :   -0.000000
   4 H :    0.000002
   5 H :   -0.000000
   6 C :   -0.158372
   7 O :   -0.487915
   8 H :    0.316922
   9 H :    0.101945
  10 H :    0.122510
  11 H :    0.104995
Sum of atomic charges:    0.0000000

LOEWDIN ATOMIC CHARGES
----------------------
   0 C :   -0.000006
   1 O :   -0.000033
   2 H :   -0.000043
   3 H :   -0.000000
   4 H :   -0.000000
   5 H :   -0.000000
   6 C :   -0.373004
   7 O :   -0.096971
   8 H :    0.166471
   9 H :    0.098754
  10 H :    0.110426
  11 H :    0.094405

  Mayer bond orders larger than 0.1
B(  6-C ,  7-O ) :   0.9925 B(  6-C ,  9-H ) :   0.9798 B(  6-C , 10-H ) :   0.9723
B(  6-C , 11-H ) :   0.9684 B(  7-O ,  8-H ) :   0.8946

Dispersion correction           -0.000272320
FINAL SINGLE POINT ENERGY      -115.735052415366

DIPOLE MOMENT
-------------
                                X             Y             Z
Electronic contribution:      0.04354      -0.08250      -1.83642
Nuclear contribution   :     -0.56740      -0.06368       2.22944
                        -----------------------------------------
Total Dipole Moment    :     -0.52387      -0.14617       0.39302
                        -----------------------------------------
Magnitude (a.u.)       :      0.67102
Magnitude (Debye)      :      1.70560

Rotational constants in cm-1:     4.310211     0.798574     0.772517
Rotational constants in MHz : 129216.880926 23940.659953 23159.476322

                             ****ORCA TERMINATED NORMALLY****
TOTAL RUN TIME: 0 days 0 hours 1 minutes 4 seconds 385 msec
