                         Program Version 4.1.2  - RELEASE  -
|  1> #Run DFT-D3 single point of the dimer
|  2> ! wB97X-D3 def2-TZVP TIGHTSCF CHELPG PMODEL PAL8
|  3>
|  4> %base "6-152_DFT_AB"
|  5>
|  6> %scf
|  7> MaxIter 1000
|  8> end
|  9>
| 10> * xyz 0 1
| 11>   C                      -1.657348            -2.605589            3.107495
| 12>   O                      -1.433084            -3.963794            3.336402
| 13>   H                      -1.822367            -4.471035            2.634541
| 14>   H                      -1.025186            -1.978984            3.793105
| 15>   H                      -1.370348            -2.277809            2.137469
| 16>   H                      -2.655147            -2.318401            3.325334
| 17>   C                      1.449226             -6.434020            0.696478
| 18>   O                      0.412153             -6.402556            -0.248079
| 19>   H                      0.008647             -5.535589            -0.295432
| 20>   H                      1.145095             -6.094302            1.594286
| 21>   H                      1.867593             -7.459770            0.886498
| 22>   H                      2.280055             -5.754609            0.386227
| 23> *
| 24>
| 25> #Run DFT-D3 single point of the molecule with dimer basis set
| 26> $new_job
| 27> %base "6-152_DFT_A"
| 28> ! wB97X-D3 def2-TZVP TIGHTSCF CHELPG PMODEL
| 29>
| 30> %scf
| 31> MaxIter 1000
| 32> end
| 33>
| 34> * xyz 0 1
| 35>   C                      -1.657348            -2.605589            3.107495
| 36>   O                      -1.433084            -3.963794            3.336402
| 37>   H                      -1.822367            -4.471035            2.634541
| 38>   H                      -1.025186            -1.978984            3.793105
| 39>   H                      -1.370348            -2.277809            2.137469
| 40>   H                      -2.655147            -2.318401            3.325334
| 41>   C                    : 1.449226             -6.434020            0.696478
| 42>   O                    : 0.412153             -6.402556            -0.248079
| 43>   H                    : 0.008647             -5.535589            -0.295432
| 44>   H                    : 1.145095             -6.094302            1.594286
| 45>   H                    : 1.867593             -7.459770            0.886498
| 46>   H                    : 2.280055             -5.754609            0.386227
| 47> *
| 48>
| 49> #Run DFT-D3 single point of the particle with dimer basis set
| 50> $new_job
| 51> %base "6-152_DFT_B"
| 52> ! wB97X-D3 def2-TZVP TIGHTSCF CHELPG PMODEL
| 53>
| 54> %scf
| 55> MaxIter 1000
| 56> end
| 57>
| 58> * xyz 0 1
| 59>   C                    : -1.657348            -2.605589            3.107495
| 60>   O                    : -1.433084            -3.963794            3.336402
| 61>   H                    : -1.822367            -4.471035            2.634541
| 62>   H                    : -1.025186            -1.978984            3.793105
| 63>   H                    : -1.370348            -2.277809            2.137469
| 64>   H                    : -2.655147            -2.318401            3.325334
| 65>   C                      1.449226             -6.434020            0.696478
| 66>   O                      0.412153             -6.402556            -0.248079
| 67>   H                      0.008647             -5.535589            -0.295432
| 68>   H                      1.145095             -6.094302            1.594286
| 69>   H                      1.867593             -7.459770            0.886498
| 70>   H                      2.280055             -5.754609            0.386227
| 71> *
| 72>
| 73>                          ****END OF INPUT****
 Total Charge           Charge          ....    0
 Multiplicity           Mult            ....    1
 Number of Electrons    NEL             ....   36
Dispersion correction           -0.000915397
FINAL SINGLE POINT ENERGY      -231.463738925002
Dispersion correction           -0.000236371
FINAL SINGLE POINT ENERGY      -115.734490755384

CARTESIAN COORDINATES (ANGSTROEM)
---------------------------------
  C     -1.657348   -2.605589    3.107495
  O     -1.433084   -3.963794    3.336402
  H     -1.822367   -4.471035    2.634541
  H     -1.025186   -1.978984    3.793105
  H     -1.370348   -2.277809    2.137469
  H     -2.655147   -2.318401    3.325334
  C      1.449226   -6.434020    0.696478
  O      0.412153   -6.402556   -0.248079
  H      0.008647   -5.535589   -0.295432
  H      1.145095   -6.094302    1.594286
  H      1.867593   -7.459770    0.886498
  H      2.280055   -5.754609    0.386227

 Multiplicity           Mult            ....    1
 Number of Electrons    NEL             ....   18
 Basis Dimension        Dim             ....  172

ORBITAL ENERGIES
----------------

  NO   OCC          E(Eh)            E(eV)
   0   2.0000     -19.227927      -523.2185
   1   2.0000     -10.307929      -280.4930
   2   2.0000      -1.137397       -30.9501
   3   2.0000      -0.800779       -21.7903
   4   2.0000      -0.618337       -16.8258
   5   2.0000      -0.542361       -14.7584
   6   2.0000      -0.529359       -14.4046
   7   2.0000      -0.429121       -11.6770
   8   2.0000      -0.371747       -10.1158
   9   0.0000       0.075338         2.0500
  10   0.0000       0.118176         3.2157
  11   0.0000       0.151492         4.1223
  12   0.0000       0.165828         4.5124
  13   0.0000       0.193205         5.2574

MULLIKEN ATOMIC CHARGES
-----------------------
   0 C :    0.000019
   1 O :    0.000018
   2 H :   -0.000394
   3 H :   -0.000002
   4 H :   -0.000040
   5 H :   -0.000005
   6 C :   -0.153359
   7 O :   -0.478503
   8 H :    0.316163
   9 H :    0.107343
  10 H :    0.115232
  11 H :    0.093529
Sum of atomic charges:    0.0000000

LOEWDIN ATOMIC CHARGES
----------------------
   0 C :   -0.000043
   1 O :   -0.000089
   2 H :   -0.000276
   3 H :   -0.000001
   4 H :   -0.000015
   5 H :   -0.000000
   6 C :   -0.385029
   7 O :   -0.069090
   8 H :    0.167661
   9 H :    0.071873
  10 H :    0.116440
  11 H :    0.098570

  Mayer bond orders larger than 0.1
B(  6-C ,  7-O ) :   0.9966 B(  6-C ,  9-H ) :   0.9789 B(  6-C , 10-H ) :   0.9703
B(  6-C , 11-H ) :   0.9837 B(  7-O ,  8-H ) :   0.8955

Dispersion correction           -0.000235302
FINAL SINGLE POINT ENERGY      -115.728704104656

DIPOLE MOMENT
-------------
                                X             Y             Z
Electronic contribution:     -1.39445      -0.11869      -1.20056
Nuclear contribution   :      1.52941       0.67225       1.58721
                        -----------------------------------------
Total Dipole Moment    :      0.13496       0.55357       0.38666
                        -----------------------------------------
Magnitude (a.u.)       :      0.68859
Magnitude (Debye)      :      1.75025

Rotational constants in cm-1:     4.483224     0.837626     0.803168
Rotational constants in MHz : 134403.666711 25111.384772 24078.366258

                             ****ORCA TERMINATED NORMALLY****
TOTAL RUN TIME: 0 days 0 hours 0 minutes 58 seconds 728 msec
