                         Program Version 4.1.2  - RELEASE  -
|  1> #Run DFT-D3 single point of the dimer
|  2> ! wB97X-D3 def2-TZVP TIGHTSCF CHELPG PMODEL PAL8
|  3>
|  4> %base "11-53_DFT_AB"
|  5>
|  6> %scf
|  7> MaxIter 1000
|  8> end
|  9>
| 10> * xyz 0 1
| 11>   C                      -2.287004            -7.105774            -7.763036
| 12>   O                      -0.949285            -7.170664            -8.203545
| 13>   H                      -0.939735            -7.506460            -9.050222
| 14>   H                      -2.333886            -6.430946            -6.937260
| 15>   H                      -2.922818            -6.617067            -8.546304
| 16>   H                      -2.776979            -8.069040            -7.408969
| 17>   C                      -3.521671            -3.671496            -7.858580
| 18>   O                      -4.822215            -3.315356            -8.168324
| 19>   H                      -5.477363            -4.041059            -8.013014
| 20>   H                      -3.465493            -4.596778            -7.181754
| 21>   H                      -2.943379            -3.945071            -8.770524
| 22>   H                      -2.993046            -2.870484            -7.387127
| 23> *
| 24>
| 25> #Run DFT-D3 single point of the molecule with dimer basis set
| 26> $new_job
| 27> %base "11-53_DFT_A"
| 28> ! wB97X-D3 def2-TZVP TIGHTSCF CHELPG PMODEL
| 29>
| 30> %scf
| 31> MaxIter 1000
| 32> end
| 33>
| 34> * xyz 0 1
| 35>   C                      -2.287004            -7.105774            -7.763036
| 36>   O                      -0.949285            -7.170664            -8.203545
| 37>   H                      -0.939735            -7.506460            -9.050222
| 38>   H                      -2.333886            -6.430946            -6.937260
| 39>   H                      -2.922818            -6.617067            -8.546304
| 40>   H                      -2.776979            -8.069040            -7.408969
| 41>   C                    : -3.521671            -3.671496            -7.858580
| 42>   O                    : -4.822215            -3.315356            -8.168324
| 43>   H                    : -5.477363            -4.041059            -8.013014
| 44>   H                    : -3.465493            -4.596778            -7.181754
| 45>   H                    : -2.943379            -3.945071            -8.770524
| 46>   H                    : -2.993046            -2.870484            -7.387127
| 47> *
| 48>
| 49> #Run DFT-D3 single point of the particle with dimer basis set
| 50> $new_job
| 51> %base "11-53_DFT_B"
| 52> ! wB97X-D3 def2-TZVP TIGHTSCF CHELPG PMODEL
| 53>
| 54> %scf
| 55> MaxIter 1000
| 56> end
| 57>
| 58> * xyz 0 1
| 59>   C                    : -2.287004            -7.105774            -7.763036
| 60>   O                    : -0.949285            -7.170664            -8.203545
| 61>   H                    : -0.939735            -7.506460            -9.050222
| 62>   H                    : -2.333886            -6.430946            -6.937260
| 63>   H                    : -2.922818            -6.617067            -8.546304
| 64>   H                    : -2.776979            -8.069040            -7.408969
| 65>   C                      -3.521671            -3.671496            -7.858580
| 66>   O                      -4.822215            -3.315356            -8.168324
| 67>   H                      -5.477363            -4.041059            -8.013014
| 68>   H                      -3.465493            -4.596778            -7.181754
| 69>   H                      -2.943379            -3.945071            -8.770524
| 70>   H                      -2.993046            -2.870484            -7.387127
| 71> *
| 72>
| 73>                          ****END OF INPUT****
 Total Charge           Charge          ....    0
 Multiplicity           Mult            ....    1
 Number of Electrons    NEL             ....   36
Dispersion correction           -0.001704618
FINAL SINGLE POINT ENERGY      -231.463608141914
Dispersion correction           -0.000256816
FINAL SINGLE POINT ENERGY      -115.731766045666

CARTESIAN COORDINATES (ANGSTROEM)
---------------------------------
  C     -2.287004   -7.105774   -7.763036
  O     -0.949285   -7.170664   -8.203545
  H     -0.939735   -7.506460   -9.050222
  H     -2.333886   -6.430946   -6.937260
  H     -2.922818   -6.617067   -8.546304
  H     -2.776979   -8.069040   -7.408969
  C     -3.521671   -3.671496   -7.858580
  O     -4.822215   -3.315356   -8.168324
  H     -5.477363   -4.041059   -8.013014
  H     -3.465493   -4.596778   -7.181754
  H     -2.943379   -3.945071   -8.770524
  H     -2.993046   -2.870484   -7.387127

 Multiplicity           Mult            ....    1
 Number of Electrons    NEL             ....   18
 Basis Dimension        Dim             ....  172

ORBITAL ENERGIES
----------------

  NO   OCC          E(Eh)            E(eV)
   0   2.0000     -19.231878      -523.3260
   1   2.0000     -10.315337      -280.6946
   2   2.0000      -1.137679       -30.9578
   3   2.0000      -0.791317       -21.5328
   4   2.0000      -0.612891       -16.6776
   5   2.0000      -0.540732       -14.7141
   6   2.0000      -0.531280       -14.4569
   7   2.0000      -0.423516       -11.5244
   8   2.0000      -0.369166       -10.0455
   9   0.0000       0.081738         2.2242
  10   0.0000       0.112907         3.0724
  11   0.0000       0.156940         4.2706
  12   0.0000       0.163421         4.4469
  13   0.0000       0.186888         5.0855

MULLIKEN ATOMIC CHARGES
-----------------------
   0 C :   -0.005984
   1 O :    0.000609
   2 H :    0.000074
   3 H :   -0.001239
   4 H :    0.002888
   5 H :   -0.000435
   6 C :   -0.148870
   7 O :   -0.477679
   8 H :    0.325356
   9 H :    0.093444
  10 H :    0.094130
  11 H :    0.117706
Sum of atomic charges:    0.0000000

LOEWDIN ATOMIC CHARGES
----------------------
   0 C :   -0.010346
   1 O :   -0.000039
   2 H :   -0.000021
   3 H :   -0.007506
   4 H :   -0.003419
   5 H :   -0.000086
   6 C :   -0.408512
   7 O :   -0.068108
   8 H :    0.189475
   9 H :    0.111722
  10 H :    0.099086
  11 H :    0.097755

  Mayer bond orders larger than 0.1
B(  6-C ,  7-O ) :   1.0154 B(  6-C ,  9-H ) :   0.9868 B(  6-C , 10-H ) :   0.9735
B(  6-C , 11-H ) :   0.9689 B(  7-O ,  8-H ) :   0.8877

Dispersion correction           -0.000258750
FINAL SINGLE POINT ENERGY      -115.732102146441

DIPOLE MOMENT
-------------
                                X             Y             Z
Electronic contribution:     -1.72159       0.70021      -0.41577
Nuclear contribution   :      1.77764      -1.29370       0.64523
                        -----------------------------------------
Total Dipole Moment    :      0.05605      -0.59349       0.22946
                        -----------------------------------------
Magnitude (a.u.)       :      0.63876
Magnitude (Debye)      :      1.62361

Rotational constants in cm-1:     4.257116     0.847030     0.812406
Rotational constants in MHz : 127625.113247 25393.321333 24355.316622

                             ****ORCA TERMINATED NORMALLY****
TOTAL RUN TIME: 0 days 0 hours 1 minutes 9 seconds 724 msec
