                         Program Version 4.1.2  - RELEASE  -
|  1> #Run DFT-D3 single point of the dimer
|  2> ! wB97X-D3 def2-TZVP TIGHTSCF CHELPG PMODEL PAL8
|  3>
|  4> %base "13-116_DFT_AB"
|  5>
|  6> %scf
|  7> MaxIter 1000
|  8> end
|  9>
| 10> * xyz 0 1
| 11>   C                      -9.580108            6.495878             -7.923586
| 12>   O                      -9.042154            7.127626             -6.797535
| 13>   H                      -9.552280            6.797251             -6.024686
| 14>   H                      -8.951582            5.597189             -8.199487
| 15>   H                      -10.588789           6.138774             -7.701321
| 16>   H                      -9.605655            7.210337             -8.752568
| 17>   C                      -5.692701            7.109104             -7.079133
| 18>   O                      -4.677477            6.746967             -7.953440
| 19>   H                      -4.948791            6.019831             -8.515254
| 20>   H                      -6.219800            6.275228             -6.545849
| 21>   H                      -5.362846            7.747880             -6.377877
| 22>   H                      -6.427668            7.635643             -7.700466
| 23> *
| 24>
| 25> #Run DFT-D3 single point of the molecule with dimer basis set
| 26> $new_job
| 27> %base "13-116_DFT_A"
| 28> ! wB97X-D3 def2-TZVP TIGHTSCF CHELPG PMODEL
| 29>
| 30> %scf
| 31> MaxIter 1000
| 32> end
| 33>
| 34> * xyz 0 1
| 35>   C                      -9.580108            6.495878             -7.923586
| 36>   O                      -9.042154            7.127626             -6.797535
| 37>   H                      -9.552280            6.797251             -6.024686
| 38>   H                      -8.951582            5.597189             -8.199487
| 39>   H                      -10.588789           6.138774             -7.701321
| 40>   H                      -9.605655            7.210337             -8.752568
| 41>   C                    : -5.692701            7.109104             -7.079133
| 42>   O                    : -4.677477            6.746967             -7.953440
| 43>   H                    : -4.948791            6.019831             -8.515254
| 44>   H                    : -6.219800            6.275228             -6.545849
| 45>   H                    : -5.362846            7.747880             -6.377877
| 46>   H                    : -6.427668            7.635643             -7.700466
| 47> *
| 48>
| 49> #Run DFT-D3 single point of the particle with dimer basis set
| 50> $new_job
| 51> %base "13-116_DFT_B"
| 52> ! wB97X-D3 def2-TZVP TIGHTSCF CHELPG PMODEL
| 53>
| 54> %scf
| 55> MaxIter 1000
| 56> end
| 57>
| 58> * xyz 0 1
| 59>   C                    : -9.580108            6.495878             -7.923586
| 60>   O                    : -9.042154            7.127626             -6.797535
| 61>   H                    : -9.552280            6.797251             -6.024686
| 62>   H                    : -8.951582            5.597189             -8.199487
| 63>   H                    : -10.588789           6.138774             -7.701321
| 64>   H                    : -9.605655            7.210337             -8.752568
| 65>   C                      -5.692701            7.109104             -7.079133
| 66>   O                      -4.677477            6.746967             -7.953440
| 67>   H                      -4.948791            6.019831             -8.515254
| 68>   H                      -6.219800            6.275228             -6.545849
| 69>   H                      -5.362846            7.747880             -6.377877
| 70>   H                      -6.427668            7.635643             -7.700466
| 71> *
| 72>
| 73>                          ****END OF INPUT****
 Total Charge           Charge          ....    0
 Multiplicity           Mult            ....    1
 Number of Electrons    NEL             ....   36
Dispersion correction           -0.001741164
FINAL SINGLE POINT ENERGY      -231.464386075612
Dispersion correction           -0.000234316
FINAL SINGLE POINT ENERGY      -115.734472147035

CARTESIAN COORDINATES (ANGSTROEM)
---------------------------------
  C     -9.580108    6.495878   -7.923586
  O     -9.042154    7.127626   -6.797535
  H     -9.552280    6.797251   -6.024686
  H     -8.951582    5.597189   -8.199487
  H    -10.588789    6.138774   -7.701321
  H     -9.605655    7.210337   -8.752568
  C     -5.692701    7.109104   -7.079133
  O     -4.677477    6.746967   -7.953440
  H     -4.948791    6.019831   -8.515254
  H     -6.219800    6.275228   -6.545849
  H     -5.362846    7.747880   -6.377877
  H     -6.427668    7.635643   -7.700466

 Multiplicity           Mult            ....    1
 Number of Electrons    NEL             ....   18
 Basis Dimension        Dim             ....  172

ORBITAL ENERGIES
----------------

  NO   OCC          E(Eh)            E(eV)
   0   2.0000     -19.227287      -523.2011
   1   2.0000     -10.303874      -280.3827
   2   2.0000      -1.142212       -31.0812
   3   2.0000      -0.802599       -21.8398
   4   2.0000      -0.613968       -16.7069
   5   2.0000      -0.549650       -14.9567
   6   2.0000      -0.534923       -14.5560
   7   2.0000      -0.431883       -11.7521
   8   2.0000      -0.368270       -10.0211
   9   0.0000       0.078634         2.1397
  10   0.0000       0.119148         3.2422
  11   0.0000       0.151575         4.1246
  12   0.0000       0.165918         4.5149
  13   0.0000       0.186199         5.0667

MULLIKEN ATOMIC CHARGES
-----------------------
   0 C :   -0.001769
   1 O :   -0.001045
   2 H :   -0.000169
   3 H :    0.000290
   4 H :    0.000031
   5 H :    0.000032
   6 C :   -0.150570
   7 O :   -0.476584
   8 H :    0.316521
   9 H :    0.090475
  10 H :    0.126786
  11 H :    0.096003
Sum of atomic charges:    0.0000000

LOEWDIN ATOMIC CHARGES
----------------------
   0 C :   -0.003260
   1 O :   -0.003818
   2 H :   -0.000299
   3 H :   -0.000423
   4 H :   -0.000038
   5 H :   -0.000274
   6 C :   -0.390630
   7 O :   -0.056006
   8 H :    0.169187
   9 H :    0.100391
  10 H :    0.085789
  11 H :    0.099383

  Mayer bond orders larger than 0.1
B(  6-C ,  7-O ) :   1.0021 B(  6-C ,  9-H ) :   0.9730 B(  6-C , 10-H ) :   0.9691
B(  6-C , 11-H ) :   0.9908 B(  7-O ,  8-H ) :   0.8971

Dispersion correction           -0.000229403
FINAL SINGLE POINT ENERGY      -115.728706493433

DIPOLE MOMENT
-------------
                                X             Y             Z
Electronic contribution:      1.50236      -0.36506      -0.96478
Nuclear contribution   :     -2.04913       0.05472       0.95728
                        -----------------------------------------
Total Dipole Moment    :     -0.54676      -0.31034      -0.00750
                        -----------------------------------------
Magnitude (a.u.)       :      0.62874
Magnitude (Debye)      :      1.59814

Rotational constants in cm-1:     4.480695     0.854019     0.829555
Rotational constants in MHz : 134327.863896 25602.851268 24869.422550

                             ****ORCA TERMINATED NORMALLY****
TOTAL RUN TIME: 0 days 0 hours 1 minutes 6 seconds 195 msec
