                         Program Version 4.1.2  - RELEASE  -
|  1> #Run DFT geometry optimization
|  2> ! wB97X-D3 def2-TZVP TIGHTSCF Grid5 FinalGrid6 Opt CHELPG PAL4
|  3>
|  4> %base "7_geo_opt"
|  5> %geom MaxIter 500
|  6> end
|  7>
|  8> %geom
|  9>   Constraints
| 10>     { B 5 0 C }
| 11>   end
| 12> end
| 13>
| 14>
| 15> * xyz 0 1
| 16>   C                    3.011211             -1.180734            0.598555
| 17>   O                    4.394577             -1.127886            0.874371
| 18>   H                    4.772100             -0.378858            0.412556
| 19>   H                    2.806338             -1.318801            -0.469286
| 20>   H                    2.611536             -2.040101            1.135962
| 21>   H                    2.484853             -0.284655            0.945596
| 22> *
| 23>
| 24>                          ****END OF INPUT****
 Total Charge           Charge          ....    0
 Multiplicity           Mult            ....    1
 Number of Electrons    NEL             ....   18
Dispersion correction           -0.000239195
FINAL SINGLE POINT ENERGY      -115.738051236539
Dispersion correction            ... done
                    ***********************HURRAY********************

CARTESIAN COORDINATES (ANGSTROEM)
---------------------------------
  C      3.011252   -1.180756    0.598589
  O      4.394604   -1.127865    0.874342
  H      4.772094   -0.378821    0.412552
  H      2.806345   -1.318825   -0.469255
  H      2.611438   -2.040097    1.135929
  H      2.484882   -0.284671    0.945597

 Multiplicity           Mult            ....    1
 Number of Electrons    NEL             ....   18
 Basis Dimension        Dim             ....   86

ORBITAL ENERGIES
----------------

  NO   OCC          E(Eh)            E(eV)
   0   2.0000     -19.228072      -523.2225
   1   2.0000     -10.315065      -280.6872
   2   2.0000      -1.136801       -30.9339
   3   2.0000      -0.795373       -21.6432
   4   2.0000      -0.611607       -16.6427
   5   2.0000      -0.541803       -14.7432
   6   2.0000      -0.526330       -14.3222
   7   2.0000      -0.433793       -11.8041
   8   2.0000      -0.373608       -10.1664
   9   0.0000       0.116650         3.1742
  10   0.0000       0.156688         4.2637
  11   0.0000       0.202585         5.5126
  12   0.0000       0.205148         5.5824
  13   0.0000       0.226379         6.1601

MULLIKEN ATOMIC CHARGES
-----------------------
   0 C :   -0.150826
   1 O :   -0.477663
   2 H :    0.313008
   3 H :    0.098602
   4 H :    0.118209
   5 H :    0.098669
Sum of atomic charges:   -0.0000000

LOEWDIN ATOMIC CHARGES
----------------------
   0 C :   -0.385126
   1 O :   -0.076081
   2 H :    0.165780
   3 H :    0.093405
   4 H :    0.108696
   5 H :    0.093326

  Mayer bond orders larger than 0.1
B(  0-C ,  1-O ) :   0.9986 B(  0-C ,  3-H ) :   0.9755 B(  0-C ,  4-H ) :   0.9749
B(  0-C ,  5-H ) :   0.9755 B(  1-O ,  2-H ) :   0.9002

Dispersion correction           -0.000239197
FINAL SINGLE POINT ENERGY      -115.738051250477

DIPOLE MOMENT
-------------
                                X             Y             Z
Electronic contribution:      1.75576      -0.02785       0.41997
Nuclear contribution   :     -2.06567       0.47555      -0.81755
                        -----------------------------------------
Total Dipole Moment    :     -0.30991       0.44770      -0.39758
                        -----------------------------------------
Magnitude (a.u.)       :      0.67420
Magnitude (Debye)      :      1.71368

Rotational constants in cm-1:     4.293846     0.833843     0.804938
Rotational constants in MHz : 128726.275385 24997.981521 24131.420508

                             ****ORCA TERMINATED NORMALLY****
TOTAL RUN TIME: 0 days 0 hours 0 minutes 35 seconds 447 msec
