                         Program Version 4.1.2  - RELEASE  -
|  1> #Run DFT-D3 single point of the dimer
|  2> ! wB97X-D3 def2-TZVP TIGHTSCF CHELPG PMODEL PAL8
|  3>
|  4> %base "20-181_DFT_AB"
|  5>
|  6> %scf
|  7> MaxIter 1000
|  8> end
|  9>
| 10> * xyz 0 1
| 11>   C                      -1.391945            3.297520             -7.878447
| 12>   O                      -1.548555            4.014057             -9.007819
| 13>   H                      -2.491489            4.133702             -9.258821
| 14>   H                      -1.953114            3.750853             -7.007505
| 15>   H                      -1.819787            2.295117             -8.033450
| 16>   H                      -0.295701            3.124531             -7.632486
| 17>   C                      -1.844517            7.549200             -9.476446
| 18>   O                      -1.036996            7.131007             -8.381999
| 19>   H                      -0.835735            6.198937             -8.380334
| 20>   H                      -1.412930            7.143828             -10.437911
| 21>   H                      -2.886758            7.176697             -9.499812
| 22>   H                      -1.964546            8.643857             -9.423512
| 23> *
| 24>
| 25> #Run DFT-D3 single point of the molecule with dimer basis set
| 26> $new_job
| 27> %base "20-181_DFT_A"
| 28> ! wB97X-D3 def2-TZVP TIGHTSCF CHELPG PMODEL
| 29>
| 30> %scf
| 31> MaxIter 1000
| 32> end
| 33>
| 34> * xyz 0 1
| 35>   C                      -1.391945            3.297520             -7.878447
| 36>   O                      -1.548555            4.014057             -9.007819
| 37>   H                      -2.491489            4.133702             -9.258821
| 38>   H                      -1.953114            3.750853             -7.007505
| 39>   H                      -1.819787            2.295117             -8.033450
| 40>   H                      -0.295701            3.124531             -7.632486
| 41>   C                    : -1.844517            7.549200             -9.476446
| 42>   O                    : -1.036996            7.131007             -8.381999
| 43>   H                    : -0.835735            6.198937             -8.380334
| 44>   H                    : -1.412930            7.143828             -10.437911
| 45>   H                    : -2.886758            7.176697             -9.499812
| 46>   H                    : -1.964546            8.643857             -9.423512
| 47> *
| 48>
| 49> #Run DFT-D3 single point of the particle with dimer basis set
| 50> $new_job
| 51> %base "20-181_DFT_B"
| 52> ! wB97X-D3 def2-TZVP TIGHTSCF CHELPG PMODEL
| 53>
| 54> %scf
| 55> MaxIter 1000
| 56> end
| 57>
| 58> * xyz 0 1
| 59>   C                    : -1.391945            3.297520             -7.878447
| 60>   O                    : -1.548555            4.014057             -9.007819
| 61>   H                    : -2.491489            4.133702             -9.258821
| 62>   H                    : -1.953114            3.750853             -7.007505
| 63>   H                    : -1.819787            2.295117             -8.033450
| 64>   H                    : -0.295701            3.124531             -7.632486
| 65>   C                      -1.844517            7.549200             -9.476446
| 66>   O                      -1.036996            7.131007             -8.381999
| 67>   H                      -0.835735            6.198937             -8.380334
| 68>   H                      -1.412930            7.143828             -10.437911
| 69>   H                      -2.886758            7.176697             -9.499812
| 70>   H                      -1.964546            8.643857             -9.423512
| 71> *
| 72>
| 73>                          ****END OF INPUT****
 Total Charge           Charge          ....    0
 Multiplicity           Mult            ....    1
 Number of Electrons    NEL             ....   36
Dispersion correction           -0.001894168
FINAL SINGLE POINT ENERGY      -231.469227478786
Dispersion correction           -0.000227729
FINAL SINGLE POINT ENERGY      -115.730526482142

CARTESIAN COORDINATES (ANGSTROEM)
---------------------------------
  C     -1.391945    3.297520   -7.878447
  O     -1.548555    4.014057   -9.007819
  H     -2.491489    4.133702   -9.258821
  H     -1.953114    3.750853   -7.007505
  H     -1.819787    2.295117   -8.033450
  H     -0.295701    3.124531   -7.632486
  C     -1.844517    7.549200   -9.476446
  O     -1.036996    7.131007   -8.381999
  H     -0.835735    6.198937   -8.380334
  H     -1.412930    7.143828  -10.437911
  H     -2.886758    7.176697   -9.499812
  H     -1.964546    8.643857   -9.423512

 Multiplicity           Mult            ....    1
 Number of Electrons    NEL             ....   18
 Basis Dimension        Dim             ....  172

ORBITAL ENERGIES
----------------

  NO   OCC          E(Eh)            E(eV)
   0   2.0000     -19.229682      -523.2663
   1   2.0000     -10.321639      -280.8661
   2   2.0000      -1.131928       -30.8013
   3   2.0000      -0.796067       -21.6621
   4   2.0000      -0.614036       -16.7088
   5   2.0000      -0.539244       -14.6736
   6   2.0000      -0.518464       -14.1081
   7   2.0000      -0.431976       -11.7547
   8   2.0000      -0.370896       -10.0926
   9   0.0000       0.069661         1.8956
  10   0.0000       0.129096         3.5129
  11   0.0000       0.146048         3.9742
  12   0.0000       0.171914         4.6780
  13   0.0000       0.187544         5.1033

MULLIKEN ATOMIC CHARGES
-----------------------
   0 C :   -0.002413
   1 O :   -0.001603
   2 H :    0.000124
   3 H :   -0.000645
   4 H :   -0.000079
   5 H :    0.000142
   6 C :   -0.159933
   7 O :   -0.482698
   8 H :    0.315840
   9 H :    0.099115
  10 H :    0.100635
  11 H :    0.131516
Sum of atomic charges:   -0.0000000

LOEWDIN ATOMIC CHARGES
----------------------
   0 C :   -0.003876
   1 O :   -0.006042
   2 H :   -0.001027
   3 H :   -0.000591
   4 H :   -0.000085
   5 H :   -0.000148
   6 C :   -0.383877
   7 O :   -0.075152
   8 H :    0.162563
   9 H :    0.101232
  10 H :    0.094378
  11 H :    0.112625

  Mayer bond orders larger than 0.1
B(  6-C ,  7-O ) :   0.9913 B(  6-C ,  9-H ) :   0.9819 B(  6-C , 10-H ) :   0.9653
B(  6-C , 11-H ) :   0.9719 B(  7-O ,  8-H ) :   0.9016

Dispersion correction           -0.000271357
FINAL SINGLE POINT ENERGY      -115.732793012133

DIPOLE MOMENT
-------------
                                X             Y             Z
Electronic contribution:      1.06683      -0.36322       1.47449
Nuclear contribution   :     -1.27919      -0.06660      -1.90804
                        -----------------------------------------
Total Dipole Moment    :     -0.21235      -0.42981      -0.43356
                        -----------------------------------------
Magnitude (a.u.)       :      0.64638
Magnitude (Debye)      :      1.64297

Rotational constants in cm-1:     4.296772     0.814144     0.777126
Rotational constants in MHz : 128813.975890 24407.433106 23297.660258

                             ****ORCA TERMINATED NORMALLY****
TOTAL RUN TIME: 0 days 0 hours 1 minutes 9 seconds 928 msec
