                         Program Version 4.1.2  - RELEASE  -
|  1> #Run DFT-D3 single point of the dimer
|  2> ! wB97X-D3 def2-TZVP TIGHTSCF CHELPG PMODEL PAL8
|  3>
|  4> %base "1-83_DFT_AB"
|  5>
|  6> %scf
|  7> MaxIter 1000
|  8> end
|  9>
| 10> * xyz 0 1
| 11>   C                      -2.564663            -10.829491           0.819036
| 12>   O                      -1.332082            -11.025152           1.444712
| 13>   H                      -1.579110            -11.609815           2.161669
| 14>   H                      -2.334350            -10.176657           -0.055430
| 15>   H                      -2.996839            -11.752730           0.453297
| 16>   H                      -3.253794            -10.236978           1.399588
| 17>   C                      -0.665410            -8.380681            4.393711
| 18>   O                      0.289953             -8.164521            5.389637
| 19>   H                      0.352855             -8.938722            5.877031
| 20>   H                      -0.398421            -7.807642            3.558172
| 21>   H                      -0.649855            -9.464361            4.143995
| 22>   H                      -1.682944            -8.024090            4.647246
| 23> *
| 24>
| 25> #Run DFT-D3 single point of the molecule with dimer basis set
| 26> $new_job
| 27> %base "1-83_DFT_A"
| 28> ! wB97X-D3 def2-TZVP TIGHTSCF CHELPG PMODEL
| 29>
| 30> %scf
| 31> MaxIter 1000
| 32> end
| 33>
| 34> * xyz 0 1
| 35>   C                      -2.564663            -10.829491           0.819036
| 36>   O                      -1.332082            -11.025152           1.444712
| 37>   H                      -1.579110            -11.609815           2.161669
| 38>   H                      -2.334350            -10.176657           -0.055430
| 39>   H                      -2.996839            -11.752730           0.453297
| 40>   H                      -3.253794            -10.236978           1.399588
| 41>   C                    : -0.665410            -8.380681            4.393711
| 42>   O                    : 0.289953             -8.164521            5.389637
| 43>   H                    : 0.352855             -8.938722            5.877031
| 44>   H                    : -0.398421            -7.807642            3.558172
| 45>   H                    : -0.649855            -9.464361            4.143995
| 46>   H                    : -1.682944            -8.024090            4.647246
| 47> *
| 48>
| 49> #Run DFT-D3 single point of the particle with dimer basis set
| 50> $new_job
| 51> %base "1-83_DFT_B"
| 52> ! wB97X-D3 def2-TZVP TIGHTSCF CHELPG PMODEL
| 53>
| 54> %scf
| 55> MaxIter 1000
| 56> end
| 57>
| 58> * xyz 0 1
| 59>   C                    : -2.564663            -10.829491           0.819036
| 60>   O                    : -1.332082            -11.025152           1.444712
| 61>   H                    : -1.579110            -11.609815           2.161669
| 62>   H                    : -2.334350            -10.176657           -0.055430
| 63>   H                    : -2.996839            -11.752730           0.453297
| 64>   H                    : -3.253794            -10.236978           1.399588
| 65>   C                      -0.665410            -8.380681            4.393711
| 66>   O                      0.289953             -8.164521            5.389637
| 67>   H                      0.352855             -8.938722            5.877031
| 68>   H                      -0.398421            -7.807642            3.558172
| 69>   H                      -0.649855            -9.464361            4.143995
| 70>   H                      -1.682944            -8.024090            4.647246
| 71> *
| 72>
| 73>                          ****END OF INPUT****
 Total Charge           Charge          ....    0
 Multiplicity           Mult            ....    1
 Number of Electrons    NEL             ....   36
Dispersion correction           -0.001116730
FINAL SINGLE POINT ENERGY      -231.466044606467
Dispersion correction           -0.000214971
FINAL SINGLE POINT ENERGY      -115.734022793367

CARTESIAN COORDINATES (ANGSTROEM)
---------------------------------
  C     -2.564663  -10.829491    0.819036
  O     -1.332082  -11.025152    1.444712
  H     -1.579110  -11.609815    2.161669
  H     -2.334350  -10.176657   -0.055430
  H     -2.996839  -11.752730    0.453297
  H     -3.253794  -10.236978    1.399588
  C     -0.665410   -8.380681    4.393711
  O      0.289953   -8.164521    5.389637
  H      0.352855   -8.938722    5.877031
  H     -0.398421   -7.807642    3.558172
  H     -0.649855   -9.464361    4.143995
  H     -1.682944   -8.024090    4.647246

 Multiplicity           Mult            ....    1
 Number of Electrons    NEL             ....   18
 Basis Dimension        Dim             ....  172

ORBITAL ENERGIES
----------------

  NO   OCC          E(Eh)            E(eV)
   0   2.0000     -19.224828      -523.1342
   1   2.0000     -10.310219      -280.5553
   2   2.0000      -1.150828       -31.3156
   3   2.0000      -0.800142       -21.7730
   4   2.0000      -0.616415       -16.7735
   5   2.0000      -0.545356       -14.8399
   6   2.0000      -0.535995       -14.5852
   7   2.0000      -0.434515       -11.8237
   8   2.0000      -0.373004       -10.1500
   9   0.0000       0.080904         2.2015
  10   0.0000       0.117693         3.2026
  11   0.0000       0.150451         4.0940
  12   0.0000       0.166368         4.5271
  13   0.0000       0.192674         5.2429

MULLIKEN ATOMIC CHARGES
-----------------------
   0 C :   -0.000086
   1 O :   -0.000120
   2 H :   -0.000413
   3 H :    0.000020
   4 H :   -0.000002
   5 H :   -0.000066
   6 C :   -0.156724
   7 O :   -0.457808
   8 H :    0.306785
   9 H :    0.118455
  10 H :    0.097221
  11 H :    0.092738
Sum of atomic charges:    0.0000000

LOEWDIN ATOMIC CHARGES
----------------------
   0 C :   -0.000283
   1 O :   -0.000775
   2 H :   -0.000914
   3 H :   -0.000005
   4 H :   -0.000004
   5 H :   -0.000057
   6 C :   -0.389629
   7 O :   -0.043139
   8 H :    0.141271
   9 H :    0.095521
  10 H :    0.101755
  11 H :    0.096259

  Mayer bond orders larger than 0.1
B(  6-C ,  7-O ) :   1.0114 B(  6-C ,  9-H ) :   0.9784 B(  6-C , 10-H ) :   0.9923
B(  6-C , 11-H ) :   0.9687 B(  7-O ,  8-H ) :   0.9128

Dispersion correction           -0.000227501
FINAL SINGLE POINT ENERGY      -115.731430091301

DIPOLE MOMENT
-------------
                                X             Y             Z
Electronic contribution:      1.24654       0.40647       1.23945
Nuclear contribution   :     -1.55087      -0.98710      -1.32468
                        -----------------------------------------
Total Dipole Moment    :     -0.30433      -0.58064      -0.08523
                        -----------------------------------------
Magnitude (a.u.)       :      0.66108
Magnitude (Debye)      :      1.68032

Rotational constants in cm-1:     4.368509     0.857224     0.823694
Rotational constants in MHz : 130964.595117 25698.917924 24693.727418

                             ****ORCA TERMINATED NORMALLY****
TOTAL RUN TIME: 0 days 0 hours 6 minutes 0 seconds 804 msec
