                         Program Version 4.1.2  - RELEASE  -
|  1> #Run DFT-D3 single point of the dimer
|  2> ! wB97X-D3 def2-TZVP TIGHTSCF CHELPG PMODEL PAL8
|  3>
|  4> %base "9-84_DFT_AB"
|  5>
|  6> %scf
|  7> MaxIter 1000
|  8> end
|  9>
| 10> * xyz 0 1
| 11>   C                      6.644204             -5.381908            9.413953
| 12>   O                      6.052512             -6.076243            8.369976
| 13>   H                      6.674226             -6.664635            7.970221
| 14>   H                      5.870115             -4.708260            9.921547
| 15>   H                      6.957315             -6.125516            10.130067
| 16>   H                      7.387805             -4.639974            9.029258
| 17>   C                      3.595984             -3.619805            10.944100
| 18>   O                      2.255405             -3.144784            10.997950
| 19>   H                      1.626830             -3.868004            11.075548
| 20>   H                      4.324983             -2.938812            10.536206
| 21>   H                      4.082260             -3.861688            11.934450
| 22>   H                      3.641428             -4.474892            10.325104
| 23> *
| 24>
| 25> #Run DFT-D3 single point of the molecule with dimer basis set
| 26> $new_job
| 27> %base "9-84_DFT_A"
| 28> ! wB97X-D3 def2-TZVP TIGHTSCF CHELPG PMODEL
| 29>
| 30> %scf
| 31> MaxIter 1000
| 32> end
| 33>
| 34> * xyz 0 1
| 35>   C                      6.644204             -5.381908            9.413953
| 36>   O                      6.052512             -6.076243            8.369976
| 37>   H                      6.674226             -6.664635            7.970221
| 38>   H                      5.870115             -4.708260            9.921547
| 39>   H                      6.957315             -6.125516            10.130067
| 40>   H                      7.387805             -4.639974            9.029258
| 41>   C                    : 3.595984             -3.619805            10.944100
| 42>   O                    : 2.255405             -3.144784            10.997950
| 43>   H                    : 1.626830             -3.868004            11.075548
| 44>   H                    : 4.324983             -2.938812            10.536206
| 45>   H                    : 4.082260             -3.861688            11.934450
| 46>   H                    : 3.641428             -4.474892            10.325104
| 47> *
| 48>
| 49> #Run DFT-D3 single point of the particle with dimer basis set
| 50> $new_job
| 51> %base "9-84_DFT_B"
| 52> ! wB97X-D3 def2-TZVP TIGHTSCF CHELPG PMODEL
| 53>
| 54> %scf
| 55> MaxIter 1000
| 56> end
| 57>
| 58> * xyz 0 1
| 59>   C                    : 6.644204             -5.381908            9.413953
| 60>   O                    : 6.052512             -6.076243            8.369976
| 61>   H                    : 6.674226             -6.664635            7.970221
| 62>   H                    : 5.870115             -4.708260            9.921547
| 63>   H                    : 6.957315             -6.125516            10.130067
| 64>   H                    : 7.387805             -4.639974            9.029258
| 65>   C                      3.595984             -3.619805            10.944100
| 66>   O                      2.255405             -3.144784            10.997950
| 67>   H                      1.626830             -3.868004            11.075548
| 68>   H                      4.324983             -2.938812            10.536206
| 69>   H                      4.082260             -3.861688            11.934450
| 70>   H                      3.641428             -4.474892            10.325104
| 71> *
| 72>
| 73>                          ****END OF INPUT****
 Total Charge           Charge          ....    0
 Multiplicity           Mult            ....    1
 Number of Electrons    NEL             ....   36
Dispersion correction           -0.001450155
FINAL SINGLE POINT ENERGY      -231.462047251900
Dispersion correction           -0.000228829
FINAL SINGLE POINT ENERGY      -115.730831928143

CARTESIAN COORDINATES (ANGSTROEM)
---------------------------------
  C      6.644204   -5.381908    9.413953
  O      6.052512   -6.076243    8.369976
  H      6.674226   -6.664635    7.970221
  H      5.870115   -4.708260    9.921547
  H      6.957315   -6.125516   10.130067
  H      7.387805   -4.639974    9.029258
  C      3.595984   -3.619805   10.944100
  O      2.255405   -3.144784   10.997950
  H      1.626830   -3.868004   11.075548
  H      4.324983   -2.938812   10.536206
  H      4.082260   -3.861688   11.934450
  H      3.641428   -4.474892   10.325104

 Multiplicity           Mult            ....    1
 Number of Electrons    NEL             ....   18
 Basis Dimension        Dim             ....  172

ORBITAL ENERGIES
----------------

  NO   OCC          E(Eh)            E(eV)
   0   2.0000     -19.231786      -523.3235
   1   2.0000     -10.312741      -280.6239
   2   2.0000      -1.131811       -30.7982
   3   2.0000      -0.801599       -21.8126
   4   2.0000      -0.612322       -16.6621
   5   2.0000      -0.542818       -14.7708
   6   2.0000      -0.526446       -14.3253
   7   2.0000      -0.427849       -11.6424
   8   2.0000      -0.374541       -10.1918
   9   0.0000       0.082547         2.2462
  10   0.0000       0.117113         3.1868
  11   0.0000       0.143206         3.8968
  12   0.0000       0.174628         4.7519
  13   0.0000       0.186140         5.0651

MULLIKEN ATOMIC CHARGES
-----------------------
   0 C :    0.000715
   1 O :    0.000190
   2 H :    0.000027
   3 H :   -0.002537
   4 H :   -0.000019
   5 H :   -0.000002
   6 C :   -0.167614
   7 O :   -0.480370
   8 H :    0.319783
   9 H :    0.125171
  10 H :    0.097289
  11 H :    0.107366
Sum of atomic charges:    0.0000000

LOEWDIN ATOMIC CHARGES
----------------------
   0 C :   -0.002910
   1 O :   -0.000106
   2 H :   -0.000006
   3 H :   -0.006892
   4 H :   -0.000030
   5 H :   -0.000028
   6 C :   -0.378471
   7 O :   -0.080743
   8 H :    0.169894
   9 H :    0.106616
  10 H :    0.101518
  11 H :    0.091156

  Mayer bond orders larger than 0.1
B(  6-C ,  7-O ) :   1.0090 B(  6-C ,  9-H ) :   0.9724 B(  6-C , 10-H ) :   0.9699
B(  6-C , 11-H ) :   0.9843 B(  7-O ,  8-H ) :   0.8949

Dispersion correction           -0.000267481
FINAL SINGLE POINT ENERGY      -115.730701321216

DIPOLE MOMENT
-------------
                                X             Y             Z
Electronic contribution:     -1.77537       0.76942       0.01346
Nuclear contribution   :      1.92135      -1.43096      -0.02271
                        -----------------------------------------
Total Dipole Moment    :      0.14597      -0.66154      -0.00925
                        -----------------------------------------
Magnitude (a.u.)       :      0.67752
Magnitude (Debye)      :      1.72211

Rotational constants in cm-1:     4.566900     0.803208     0.781622
Rotational constants in MHz : 136912.208112 24079.581962 23432.450782

                             ****ORCA TERMINATED NORMALLY****
TOTAL RUN TIME: 0 days 0 hours 0 minutes 42 seconds 187 msec
