                         Program Version 4.1.2  - RELEASE  -
|  1> #Run DFT-D3 single point of the dimer
|  2> ! wB97X-D3 def2-TZVP TIGHTSCF CHELPG PMODEL PAL8
|  3>
|  4> %base "18-21_DFT_AB"
|  5>
|  6> %scf
|  7> MaxIter 1000
|  8> end
|  9>
| 10> * xyz 0 1
| 11>   C                      -5.176520            -0.642955            5.468790
| 12>   O                      -4.038877            -1.295501            5.945422
| 13>   H                      -4.126203            -2.205438            5.650035
| 14>   H                      -5.286508            -0.774904            4.375683
| 15>   H                      -6.105946            -0.911018            5.899308
| 16>   H                      -5.090722            0.414521             5.747167
| 17>   C                      -1.190788            1.142633             6.654220
| 18>   O                      -0.403871            2.277754             7.020789
| 19>   H                      -0.822837            2.627458             7.820886
| 20>   H                      -1.397813            0.506782             7.600173
| 21>   H                      -2.133651            1.325674             6.184751
| 22>   H                      -0.679551            0.528703             5.928469
| 23> *
| 24>
| 25> #Run DFT-D3 single point of the molecule with dimer basis set
| 26> $new_job
| 27> %base "18-21_DFT_A"
| 28> ! wB97X-D3 def2-TZVP TIGHTSCF CHELPG PMODEL
| 29>
| 30> %scf
| 31> MaxIter 1000
| 32> end
| 33>
| 34> * xyz 0 1
| 35>   C                      -5.176520            -0.642955            5.468790
| 36>   O                      -4.038877            -1.295501            5.945422
| 37>   H                      -4.126203            -2.205438            5.650035
| 38>   H                      -5.286508            -0.774904            4.375683
| 39>   H                      -6.105946            -0.911018            5.899308
| 40>   H                      -5.090722            0.414521             5.747167
| 41>   C                    : -1.190788            1.142633             6.654220
| 42>   O                    : -0.403871            2.277754             7.020789
| 43>   H                    : -0.822837            2.627458             7.820886
| 44>   H                    : -1.397813            0.506782             7.600173
| 45>   H                    : -2.133651            1.325674             6.184751
| 46>   H                    : -0.679551            0.528703             5.928469
| 47> *
| 48>
| 49> #Run DFT-D3 single point of the particle with dimer basis set
| 50> $new_job
| 51> %base "18-21_DFT_B"
| 52> ! wB97X-D3 def2-TZVP TIGHTSCF CHELPG PMODEL
| 53>
| 54> %scf
| 55> MaxIter 1000
| 56> end
| 57>
| 58> * xyz 0 1
| 59>   C                    : -5.176520            -0.642955            5.468790
| 60>   O                    : -4.038877            -1.295501            5.945422
| 61>   H                    : -4.126203            -2.205438            5.650035
| 62>   H                    : -5.286508            -0.774904            4.375683
| 63>   H                    : -6.105946            -0.911018            5.899308
| 64>   H                    : -5.090722            0.414521             5.747167
| 65>   C                      -1.190788            1.142633             6.654220
| 66>   O                      -0.403871            2.277754             7.020789
| 67>   H                      -0.822837            2.627458             7.820886
| 68>   H                      -1.397813            0.506782             7.600173
| 69>   H                      -2.133651            1.325674             6.184751
| 70>   H                      -0.679551            0.528703             5.928469
| 71> *
| 72>
| 73>                          ****END OF INPUT****
 Total Charge           Charge          ....    0
 Multiplicity           Mult            ....    1
 Number of Electrons    NEL             ....   36
Dispersion correction           -0.001251952
FINAL SINGLE POINT ENERGY      -231.467770499490
Dispersion correction           -0.000229559
FINAL SINGLE POINT ENERGY      -115.734288140939

CARTESIAN COORDINATES (ANGSTROEM)
---------------------------------
  C     -5.176520   -0.642955    5.468790
  O     -4.038877   -1.295501    5.945422
  H     -4.126203   -2.205438    5.650035
  H     -5.286508   -0.774904    4.375683
  H     -6.105946   -0.911018    5.899308
  H     -5.090722    0.414521    5.747167
  C     -1.190788    1.142633    6.654220
  O     -0.403871    2.277754    7.020789
  H     -0.822837    2.627458    7.820886
  H     -1.397813    0.506782    7.600173
  H     -2.133651    1.325674    6.184751
  H     -0.679551    0.528703    5.928469

 Multiplicity           Mult            ....    1
 Number of Electrons    NEL             ....   18
 Basis Dimension        Dim             ....  172

ORBITAL ENERGIES
----------------

  NO   OCC          E(Eh)            E(eV)
   0   2.0000     -19.234687      -523.4024
   1   2.0000     -10.317475      -280.7528
   2   2.0000      -1.133151       -30.8346
   3   2.0000      -0.795212       -21.6388
   4   2.0000      -0.606809       -16.5121
   5   2.0000      -0.538537       -14.6543
   6   2.0000      -0.526176       -14.3180
   7   2.0000      -0.436661       -11.8821
   8   2.0000      -0.375175       -10.2090
   9   0.0000       0.080212         2.1827
  10   0.0000       0.113077         3.0770
  11   0.0000       0.145761         3.9663
  12   0.0000       0.159403         4.3376
  13   0.0000       0.193625         5.2688

MULLIKEN ATOMIC CHARGES
-----------------------
   0 C :   -0.000047
   1 O :   -0.000018
   2 H :   -0.000006
   3 H :   -0.000005
   4 H :   -0.000020
   5 H :   -0.000430
   6 C :   -0.178522
   7 O :   -0.468345
   8 H :    0.317211
   9 H :    0.099166
  10 H :    0.108347
  11 H :    0.122669
Sum of atomic charges:    0.0000000

LOEWDIN ATOMIC CHARGES
----------------------
   0 C :   -0.000894
   1 O :   -0.000468
   2 H :   -0.000021
   3 H :   -0.000009
   4 H :   -0.000009
   5 H :   -0.000691
   6 C :   -0.383477
   7 O :   -0.088715
   8 H :    0.175113
   9 H :    0.106796
  10 H :    0.088013
  11 H :    0.104362

  Mayer bond orders larger than 0.1
B(  6-C ,  7-O ) :   1.0051 B(  6-C ,  9-H ) :   0.9852 B(  6-C , 10-H ) :   0.9648
B(  6-C , 11-H ) :   0.9737 B(  7-O ,  8-H ) :   0.8992

Dispersion correction           -0.000254609
FINAL SINGLE POINT ENERGY      -115.731878650109

DIPOLE MOMENT
-------------
                                X             Y             Z
Electronic contribution:      1.12267       1.55056       0.26067
Nuclear contribution   :     -1.69056      -1.77587       0.06780
                        -----------------------------------------
Total Dipole Moment    :     -0.56789      -0.22531       0.32847
                        -----------------------------------------
Magnitude (a.u.)       :      0.69365
Magnitude (Debye)      :      1.76312

Rotational constants in cm-1:     4.276742     0.814289     0.779737
Rotational constants in MHz : 128213.489064 24411.765141 23375.920549

                             ****ORCA TERMINATED NORMALLY****
TOTAL RUN TIME: 0 days 0 hours 1 minutes 4 seconds 816 msec
