                         Program Version 4.1.2  - RELEASE  -
|  1> #Run DFT-D3 single point of the dimer
|  2> ! wB97X-D3 def2-TZVP TIGHTSCF CHELPG PMODEL PAL8
|  3>
|  4> %base "4-124_DFT_AB"
|  5>
|  6> %scf
|  7> MaxIter 1000
|  8> end
|  9>
| 10> * xyz 0 1
| 11>   C                      6.954746             7.491548             2.890849
| 12>   O                      6.315243             6.971353             1.717059
| 13>   H                      5.920077             7.735909             1.324826
| 14>   H                      7.605254             6.722106             3.359889
| 15>   H                      7.647488             8.305513             2.508878
| 16>   H                      6.250953             7.862724             3.602146
| 17>   C                      5.575884             3.455816             2.278661
| 18>   O                      5.570222             4.240747             1.097227
| 19>   H                      5.316256             5.104723             1.255462
| 20>   H                      6.440792             2.781911             2.223781
| 21>   H                      5.662425             4.071573             3.151950
| 22>   H                      4.681182             2.723832             2.396170
| 23> *
| 24>
| 25> #Run DFT-D3 single point of the molecule with dimer basis set
| 26> $new_job
| 27> %base "4-124_DFT_A"
| 28> ! wB97X-D3 def2-TZVP TIGHTSCF CHELPG PMODEL
| 29>
| 30> %scf
| 31> MaxIter 1000
| 32> end
| 33>
| 34> * xyz 0 1
| 35>   C                      6.954746             7.491548             2.890849
| 36>   O                      6.315243             6.971353             1.717059
| 37>   H                      5.920077             7.735909             1.324826
| 38>   H                      7.605254             6.722106             3.359889
| 39>   H                      7.647488             8.305513             2.508878
| 40>   H                      6.250953             7.862724             3.602146
| 41>   C                    : 5.575884             3.455816             2.278661
| 42>   O                    : 5.570222             4.240747             1.097227
| 43>   H                    : 5.316256             5.104723             1.255462
| 44>   H                    : 6.440792             2.781911             2.223781
| 45>   H                    : 5.662425             4.071573             3.151950
| 46>   H                    : 4.681182             2.723832             2.396170
| 47> *
| 48>
| 49> #Run DFT-D3 single point of the particle with dimer basis set
| 50> $new_job
| 51> %base "4-124_DFT_B"
| 52> ! wB97X-D3 def2-TZVP TIGHTSCF CHELPG PMODEL
| 53>
| 54> %scf
| 55> MaxIter 1000
| 56> end
| 57>
| 58> * xyz 0 1
| 59>   C                    : 6.954746             7.491548             2.890849
| 60>   O                    : 6.315243             6.971353             1.717059
| 61>   H                    : 5.920077             7.735909             1.324826
| 62>   H                    : 7.605254             6.722106             3.359889
| 63>   H                    : 7.647488             8.305513             2.508878
| 64>   H                    : 6.250953             7.862724             3.602146
| 65>   C                      5.575884             3.455816             2.278661
| 66>   O                      5.570222             4.240747             1.097227
| 67>   H                      5.316256             5.104723             1.255462
| 68>   H                      6.440792             2.781911             2.223781
| 69>   H                      5.662425             4.071573             3.151950
| 70>   H                      4.681182             2.723832             2.396170
| 71> *
| 72>
| 73>                          ****END OF INPUT****
 Total Charge           Charge          ....    0
 Multiplicity           Mult            ....    1
 Number of Electrons    NEL             ....   36
Dispersion correction           -0.001725692
FINAL SINGLE POINT ENERGY      -231.468639582124
Dispersion correction           -0.000225224
FINAL SINGLE POINT ENERGY      -115.733294990129

CARTESIAN COORDINATES (ANGSTROEM)
---------------------------------
  C      6.954746    7.491548    2.890849
  O      6.315243    6.971353    1.717059
  H      5.920077    7.735909    1.324826
  H      7.605254    6.722106    3.359889
  H      7.647488    8.305513    2.508878
  H      6.250953    7.862724    3.602146
  C      5.575884    3.455816    2.278661
  O      5.570222    4.240747    1.097227
  H      5.316256    5.104723    1.255462
  H      6.440792    2.781911    2.223781
  H      5.662425    4.071573    3.151950
  H      4.681182    2.723832    2.396170

 Multiplicity           Mult            ....    1
 Number of Electrons    NEL             ....   18
 Basis Dimension        Dim             ....  172

ORBITAL ENERGIES
----------------

  NO   OCC          E(Eh)            E(eV)
   0   2.0000     -19.227342      -523.2026
   1   2.0000     -10.320325      -280.8303
   2   2.0000      -1.143297       -31.1107
   3   2.0000      -0.799872       -21.7656
   4   2.0000      -0.619376       -16.8541
   5   2.0000      -0.536655       -14.6031
   6   2.0000      -0.526535       -14.3278
   7   2.0000      -0.434704       -11.8289
   8   2.0000      -0.373367       -10.1598
   9   0.0000       0.072535         1.9738
  10   0.0000       0.135587         3.6895
  11   0.0000       0.138730         3.7750
  12   0.0000       0.174196         4.7401
  13   0.0000       0.188514         5.1297

MULLIKEN ATOMIC CHARGES
-----------------------
   0 C :   -0.002855
   1 O :   -0.004803
   2 H :   -0.000376
   3 H :    0.000202
   4 H :    0.000091
   5 H :    0.000063
   6 C :   -0.164257
   7 O :   -0.462691
   8 H :    0.307011
   9 H :    0.117837
  10 H :    0.109509
  11 H :    0.100271
Sum of atomic charges:    0.0000000

LOEWDIN ATOMIC CHARGES
----------------------
   0 C :   -0.002170
   1 O :   -0.013699
   2 H :   -0.000936
   3 H :   -0.000252
   4 H :   -0.000035
   5 H :   -0.000043
   6 C :   -0.380422
   7 O :   -0.044608
   8 H :    0.137476
   9 H :    0.106034
  10 H :    0.091790
  11 H :    0.106864

  Mayer bond orders larger than 0.1
B(  6-C ,  7-O ) :   1.0043 B(  6-C ,  9-H ) :   0.9768 B(  6-C , 10-H ) :   0.9786
B(  6-C , 11-H ) :   0.9715 B(  7-O ,  8-H ) :   0.9113

Dispersion correction           -0.000266053
FINAL SINGLE POINT ENERGY      -115.730930146513

DIPOLE MOMENT
-------------
                                X             Y             Z
Electronic contribution:      0.02173       1.02681      -1.54146
Nuclear contribution   :     -0.15573      -0.76107       2.13345
                        -----------------------------------------
Total Dipole Moment    :     -0.13400       0.26574       0.59200
                        -----------------------------------------
Magnitude (a.u.)       :      0.66259
Magnitude (Debye)      :      1.68418

Rotational constants in cm-1:     4.365034     0.816392     0.791377
Rotational constants in MHz : 130860.415462 24474.812142 23724.896238

                             ****ORCA TERMINATED NORMALLY****
TOTAL RUN TIME: 0 days 0 hours 1 minutes 30 seconds 627 msec
