                         Program Version 4.1.2  - RELEASE  -
|  1> #Run DFT-D3 single point of the dimer
|  2> ! wB97X-D3 def2-TZVP TIGHTSCF CHELPG PMODEL PAL8
|  3>
|  4> %base "19-39_DFT_AB"
|  5>
|  6> %scf
|  7> MaxIter 1000
|  8> end
|  9>
| 10> * xyz 0 1
| 11>   C                      7.257563             6.735818             4.442851
| 12>   O                      8.386543             7.556154             4.548185
| 13>   H                      9.044606             7.039462             5.018656
| 14>   H                      7.278685             6.428361             3.430371
| 15>   H                      7.463774             5.931356             5.183014
| 16>   H                      6.305239             7.244127             4.579032
| 17>   C                      10.973674            7.502997             8.169250
| 18>   O                      9.737500             7.254733             7.518770
| 19>   H                      9.252444             8.001876             7.876629
| 20>   H                      11.275367            6.524011             8.602906
| 21>   H                      11.693514            7.941693             7.489010
| 22>   H                      10.940348            8.147701             9.068041
| 23> *
| 24>
| 25> #Run DFT-D3 single point of the molecule with dimer basis set
| 26> $new_job
| 27> %base "19-39_DFT_A"
| 28> ! wB97X-D3 def2-TZVP TIGHTSCF CHELPG PMODEL
| 29>
| 30> %scf
| 31> MaxIter 1000
| 32> end
| 33>
| 34> * xyz 0 1
| 35>   C                      7.257563             6.735818             4.442851
| 36>   O                      8.386543             7.556154             4.548185
| 37>   H                      9.044606             7.039462             5.018656
| 38>   H                      7.278685             6.428361             3.430371
| 39>   H                      7.463774             5.931356             5.183014
| 40>   H                      6.305239             7.244127             4.579032
| 41>   C                    : 10.973674            7.502997             8.169250
| 42>   O                    : 9.737500             7.254733             7.518770
| 43>   H                    : 9.252444             8.001876             7.876629
| 44>   H                    : 11.275367            6.524011             8.602906
| 45>   H                    : 11.693514            7.941693             7.489010
| 46>   H                    : 10.940348            8.147701             9.068041
| 47> *
| 48>
| 49> #Run DFT-D3 single point of the particle with dimer basis set
| 50> $new_job
| 51> %base "19-39_DFT_B"
| 52> ! wB97X-D3 def2-TZVP TIGHTSCF CHELPG PMODEL
| 53>
| 54> %scf
| 55> MaxIter 1000
| 56> end
| 57>
| 58> * xyz 0 1
| 59>   C                    : 7.257563             6.735818             4.442851
| 60>   O                    : 8.386543             7.556154             4.548185
| 61>   H                    : 9.044606             7.039462             5.018656
| 62>   H                    : 7.278685             6.428361             3.430371
| 63>   H                    : 7.463774             5.931356             5.183014
| 64>   H                    : 6.305239             7.244127             4.579032
| 65>   C                      10.973674            7.502997             8.169250
| 66>   O                      9.737500             7.254733             7.518770
| 67>   H                      9.252444             8.001876             7.876629
| 68>   H                      11.275367            6.524011             8.602906
| 69>   H                      11.693514            7.941693             7.489010
| 70>   H                      10.940348            8.147701             9.068041
| 71> *
| 72>
| 73>                          ****END OF INPUT****
 Total Charge           Charge          ....    0
 Multiplicity           Mult            ....    1
 Number of Electrons    NEL             ....   36
Dispersion correction           -0.001342469
FINAL SINGLE POINT ENERGY      -231.461131782046
Dispersion correction           -0.000206596
FINAL SINGLE POINT ENERGY      -115.726800767904

CARTESIAN COORDINATES (ANGSTROEM)
---------------------------------
  C      7.257563    6.735818    4.442851
  O      8.386543    7.556154    4.548185
  H      9.044606    7.039462    5.018656
  H      7.278685    6.428361    3.430371
  H      7.463774    5.931356    5.183014
  H      6.305239    7.244127    4.579032
  C     10.973674    7.502997    8.169250
  O      9.737500    7.254733    7.518770
  H      9.252444    8.001876    7.876629
  H     11.275367    6.524011    8.602906
  H     11.693514    7.941693    7.489010
  H     10.940348    8.147701    9.068041

 Multiplicity           Mult            ....    1
 Number of Electrons    NEL             ....   18
 Basis Dimension        Dim             ....  172

ORBITAL ENERGIES
----------------

  NO   OCC          E(Eh)            E(eV)
   0   2.0000     -19.234327      -523.3926
   1   2.0000     -10.315766      -280.7063
   2   2.0000      -1.143410       -31.1138
   3   2.0000      -0.790150       -21.5011
   4   2.0000      -0.611757       -16.6468
   5   2.0000      -0.551714       -15.0129
   6   2.0000      -0.514246       -13.9934
   7   2.0000      -0.440481       -11.9861
   8   2.0000      -0.377686       -10.2774
   9   0.0000       0.097641         2.6569
  10   0.0000       0.118824         3.2334
  11   0.0000       0.155506         4.2315
  12   0.0000       0.179987         4.8977
  13   0.0000       0.194012         5.2793

MULLIKEN ATOMIC CHARGES
-----------------------
   0 C :    0.000405
   1 O :   -0.000097
   2 H :   -0.006135
   3 H :   -0.000079
   4 H :   -0.001288
   5 H :    0.000052
   6 C :   -0.184500
   7 O :   -0.447524
   8 H :    0.314591
   9 H :    0.108993
  10 H :    0.111131
  11 H :    0.104451
Sum of atomic charges:    0.0000000

LOEWDIN ATOMIC CHARGES
----------------------
   0 C :   -0.000990
   1 O :   -0.002273
   2 H :   -0.011023
   3 H :   -0.000009
   4 H :   -0.000627
   5 H :   -0.000007
   6 C :   -0.394406
   7 O :   -0.067067
   8 H :    0.174708
   9 H :    0.108410
  10 H :    0.095184
  11 H :    0.098099

  Mayer bond orders larger than 0.1
B(  6-C ,  7-O ) :   1.0043 B(  6-C ,  9-H ) :   0.9788 B(  6-C , 10-H ) :   0.9709
B(  6-C , 11-H ) :   0.9771 B(  7-O ,  8-H ) :   0.9035

Dispersion correction           -0.000230103
FINAL SINGLE POINT ENERGY      -115.729502100448

DIPOLE MOMENT
-------------
                                X             Y             Z
Electronic contribution:     -1.55095      -0.39124      -1.00751
Nuclear contribution   :      1.70633       0.95785       1.50877
                        -----------------------------------------
Total Dipole Moment    :      0.15538       0.56661       0.50127
                        -----------------------------------------
Magnitude (a.u.)       :      0.77231
Magnitude (Debye)      :      1.96305

Rotational constants in cm-1:     4.178560     0.832485     0.809565
Rotational constants in MHz : 125270.080469 24957.260885 24270.140994

                             ****ORCA TERMINATED NORMALLY****
TOTAL RUN TIME: 0 days 0 hours 0 minutes 52 seconds 830 msec
