                         Program Version 4.1.2  - RELEASE  -
|  1> #Run DFT-D3 single point of the dimer
|  2> ! wB97X-D3 def2-TZVP TIGHTSCF CHELPG PMODEL PAL8
|  3>
|  4> %base "10-208_DFT_AB"
|  5>
|  6> %scf
|  7> MaxIter 1000
|  8> end
|  9>
| 10> * xyz 0 1
| 11>   C                      -4.436404            -0.272162            -8.295622
| 12>   O                      -4.799837            -0.104857            -6.970533
| 13>   H                      -4.263745            0.539021             -6.535628
| 14>   H                      -4.690986            0.619393             -8.951854
| 15>   H                      -3.332834            -0.407607            -8.352097
| 16>   H                      -4.835055            -1.202201            -8.789078
| 17>   C                      -3.228696            -0.472787            -4.201809
| 18>   O                      -2.604083            0.637141             -3.627678
| 19>   H                      -2.958646            1.373176             -4.128928
| 20>   H                      -2.884306            -1.446869            -3.797506
| 21>   H                      -4.305211            -0.481101            -4.171294
| 22>   H                      -2.946179            -0.543909            -5.263727
| 23> *
| 24>
| 25> #Run DFT-D3 single point of the molecule with dimer basis set
| 26> $new_job
| 27> %base "10-208_DFT_A"
| 28> ! wB97X-D3 def2-TZVP TIGHTSCF CHELPG PMODEL
| 29>
| 30> %scf
| 31> MaxIter 1000
| 32> end
| 33>
| 34> * xyz 0 1
| 35>   C                      -4.436404            -0.272162            -8.295622
| 36>   O                      -4.799837            -0.104857            -6.970533
| 37>   H                      -4.263745            0.539021             -6.535628
| 38>   H                      -4.690986            0.619393             -8.951854
| 39>   H                      -3.332834            -0.407607            -8.352097
| 40>   H                      -4.835055            -1.202201            -8.789078
| 41>   C                    : -3.228696            -0.472787            -4.201809
| 42>   O                    : -2.604083            0.637141             -3.627678
| 43>   H                    : -2.958646            1.373176             -4.128928
| 44>   H                    : -2.884306            -1.446869            -3.797506
| 45>   H                    : -4.305211            -0.481101            -4.171294
| 46>   H                    : -2.946179            -0.543909            -5.263727
| 47> *
| 48>
| 49> #Run DFT-D3 single point of the particle with dimer basis set
| 50> $new_job
| 51> %base "10-208_DFT_B"
| 52> ! wB97X-D3 def2-TZVP TIGHTSCF CHELPG PMODEL
| 53>
| 54> %scf
| 55> MaxIter 1000
| 56> end
| 57>
| 58> * xyz 0 1
| 59>   C                    : -4.436404            -0.272162            -8.295622
| 60>   O                    : -4.799837            -0.104857            -6.970533
| 61>   H                    : -4.263745            0.539021             -6.535628
| 62>   H                    : -4.690986            0.619393             -8.951854
| 63>   H                    : -3.332834            -0.407607            -8.352097
| 64>   H                    : -4.835055            -1.202201            -8.789078
| 65>   C                      -3.228696            -0.472787            -4.201809
| 66>   O                      -2.604083            0.637141             -3.627678
| 67>   H                      -2.958646            1.373176             -4.128928
| 68>   H                      -2.884306            -1.446869            -3.797506
| 69>   H                      -4.305211            -0.481101            -4.171294
| 70>   H                      -2.946179            -0.543909            -5.263727
| 71> *
| 72>
| 73>                          ****END OF INPUT****
 Total Charge           Charge          ....    0
 Multiplicity           Mult            ....    1
 Number of Electrons    NEL             ....   36
Dispersion correction           -0.001787203
FINAL SINGLE POINT ENERGY      -231.465231428575
Dispersion correction           -0.000250377
FINAL SINGLE POINT ENERGY      -115.732821887295

CARTESIAN COORDINATES (ANGSTROEM)
---------------------------------
  C     -4.436404   -0.272162   -8.295622
  O     -4.799837   -0.104857   -6.970533
  H     -4.263745    0.539021   -6.535628
  H     -4.690986    0.619393   -8.951854
  H     -3.332834   -0.407607   -8.352097
  H     -4.835055   -1.202201   -8.789078
  C     -3.228696   -0.472787   -4.201809
  O     -2.604083    0.637141   -3.627678
  H     -2.958646    1.373176   -4.128928
  H     -2.884306   -1.446869   -3.797506
  H     -4.305211   -0.481101   -4.171294
  H     -2.946179   -0.543909   -5.263727

 Multiplicity           Mult            ....    1
 Number of Electrons    NEL             ....   18
 Basis Dimension        Dim             ....  172

ORBITAL ENERGIES
----------------

  NO   OCC          E(Eh)            E(eV)
   0   2.0000     -19.234292      -523.3917
   1   2.0000     -10.312343      -280.6131
   2   2.0000      -1.146608       -31.2008
   3   2.0000      -0.794042       -21.6070
   4   2.0000      -0.615643       -16.7525
   5   2.0000      -0.543643       -14.7933
   6   2.0000      -0.530373       -14.4322
   7   2.0000      -0.435906       -11.8616
   8   2.0000      -0.374244       -10.1837
   9   0.0000       0.078677         2.1409
  10   0.0000       0.117441         3.1957
  11   0.0000       0.152472         4.1490
  12   0.0000       0.176099         4.7919
  13   0.0000       0.190905         5.1948

MULLIKEN ATOMIC CHARGES
-----------------------
   0 C :   -0.001973
   1 O :   -0.002649
   2 H :    0.002460
   3 H :    0.000029
   4 H :   -0.000187
   5 H :    0.000011
   6 C :   -0.170184
   7 O :   -0.459164
   8 H :    0.315702
   9 H :    0.112806
  10 H :    0.103421
  11 H :    0.099728
Sum of atomic charges:   -0.0000000

LOEWDIN ATOMIC CHARGES
----------------------
   0 C :   -0.001981
   1 O :   -0.006809
   2 H :   -0.008994
   3 H :   -0.000022
   4 H :   -0.000576
   5 H :   -0.000023
   6 C :   -0.400077
   7 O :   -0.058817
   8 H :    0.173964
   9 H :    0.110977
  10 H :    0.091166
  11 H :    0.101193

  Mayer bond orders larger than 0.1
B(  6-C ,  7-O ) :   1.0013 B(  6-C ,  9-H ) :   0.9706 B(  6-C , 10-H ) :   0.9708
B(  6-C , 11-H ) :   0.9857 B(  7-O ,  8-H ) :   0.9013

Dispersion correction           -0.000227841
FINAL SINGLE POINT ENERGY      -115.733730396811

DIPOLE MOMENT
-------------
                                X             Y             Z
Electronic contribution:      0.86224       1.45487       0.99655
Nuclear contribution   :     -1.31294      -1.42201      -1.52581
                        -----------------------------------------
Total Dipole Moment    :     -0.45070       0.03286      -0.52926
                        -----------------------------------------
Magnitude (a.u.)       :      0.69594
Magnitude (Debye)      :      1.76894

Rotational constants in cm-1:     4.368120     0.844040     0.811929
Rotational constants in MHz : 130952.951575 25303.690396 24341.020846

                             ****ORCA TERMINATED NORMALLY****
TOTAL RUN TIME: 0 days 0 hours 1 minutes 9 seconds 202 msec
