                         Program Version 4.1.2  - RELEASE  -
|  1> #Run DFT-D3 single point of the dimer
|  2> ! wB97X-D3 def2-TZVP TIGHTSCF CHELPG PMODEL PAL8
|  3>
|  4> %base "22-68_DFT_AB"
|  5>
|  6> %scf
|  7> MaxIter 1000
|  8> end
|  9>
| 10> * xyz 0 1
| 11>   C                      7.094991             -5.874388            4.295036
| 12>   O                      6.607568             -5.115187            5.413430
| 13>   H                      6.014298             -4.411971            5.145993
| 14>   H                      6.600203             -5.667700            3.315345
| 15>   H                      8.165961             -5.827261            4.147364
| 16>   H                      6.868536             -6.907309            4.499651
| 17>   C                      3.075295             -2.827477            5.639292
| 18>   O                      3.897030             -3.892923            5.118715
| 19>   H                      3.291712             -4.647159            5.201886
| 20>   H                      2.228805             -3.120906            6.294508
| 21>   H                      3.704886             -2.050128            6.061457
| 22>   H                      2.606120             -2.342759            4.806780
| 23> *
| 24>
| 25> #Run DFT-D3 single point of the molecule with dimer basis set
| 26> $new_job
| 27> %base "22-68_DFT_A"
| 28> ! wB97X-D3 def2-TZVP TIGHTSCF CHELPG PMODEL
| 29>
| 30> %scf
| 31> MaxIter 1000
| 32> end
| 33>
| 34> * xyz 0 1
| 35>   C                      7.094991             -5.874388            4.295036
| 36>   O                      6.607568             -5.115187            5.413430
| 37>   H                      6.014298             -4.411971            5.145993
| 38>   H                      6.600203             -5.667700            3.315345
| 39>   H                      8.165961             -5.827261            4.147364
| 40>   H                      6.868536             -6.907309            4.499651
| 41>   C                    : 3.075295             -2.827477            5.639292
| 42>   O                    : 3.897030             -3.892923            5.118715
| 43>   H                    : 3.291712             -4.647159            5.201886
| 44>   H                    : 2.228805             -3.120906            6.294508
| 45>   H                    : 3.704886             -2.050128            6.061457
| 46>   H                    : 2.606120             -2.342759            4.806780
| 47> *
| 48>
| 49> #Run DFT-D3 single point of the particle with dimer basis set
| 50> $new_job
| 51> %base "22-68_DFT_B"
| 52> ! wB97X-D3 def2-TZVP TIGHTSCF CHELPG PMODEL
| 53>
| 54> %scf
| 55> MaxIter 1000
| 56> end
| 57>
| 58> * xyz 0 1
| 59>   C                    : 7.094991             -5.874388            4.295036
| 60>   O                    : 6.607568             -5.115187            5.413430
| 61>   H                    : 6.014298             -4.411971            5.145993
| 62>   H                    : 6.600203             -5.667700            3.315345
| 63>   H                    : 8.165961             -5.827261            4.147364
| 64>   H                    : 6.868536             -6.907309            4.499651
| 65>   C                      3.075295             -2.827477            5.639292
| 66>   O                      3.897030             -3.892923            5.118715
| 67>   H                      3.291712             -4.647159            5.201886
| 68>   H                      2.228805             -3.120906            6.294508
| 69>   H                      3.704886             -2.050128            6.061457
| 70>   H                      2.606120             -2.342759            4.806780
| 71> *
| 72>
| 73>                          ****END OF INPUT****
 Total Charge           Charge          ....    0
 Multiplicity           Mult            ....    1
 Number of Electrons    NEL             ....   36
Dispersion correction           -0.001438773
FINAL SINGLE POINT ENERGY      -231.470600140162
Dispersion correction           -0.000278292
FINAL SINGLE POINT ENERGY      -115.733488986816

CARTESIAN COORDINATES (ANGSTROEM)
---------------------------------
  C      7.094991   -5.874388    4.295036
  O      6.607568   -5.115187    5.413430
  H      6.014298   -4.411971    5.145993
  H      6.600203   -5.667700    3.315345
  H      8.165961   -5.827261    4.147364
  H      6.868536   -6.907309    4.499651
  C      3.075295   -2.827477    5.639292
  O      3.897030   -3.892923    5.118715
  H      3.291712   -4.647159    5.201886
  H      2.228805   -3.120906    6.294508
  H      3.704886   -2.050128    6.061457
  H      2.606120   -2.342759    4.806780

 Multiplicity           Mult            ....    1
 Number of Electrons    NEL             ....   18
 Basis Dimension        Dim             ....  172

ORBITAL ENERGIES
----------------

  NO   OCC          E(Eh)            E(eV)
   0   2.0000     -19.234457      -523.3962
   1   2.0000     -10.313351      -280.6405
   2   2.0000      -1.130995       -30.7759
   3   2.0000      -0.795777       -21.6542
   4   2.0000      -0.607218       -16.5233
   5   2.0000      -0.531774       -14.4703
   6   2.0000      -0.524016       -14.2592
   7   2.0000      -0.451449       -12.2845
   8   2.0000      -0.371755       -10.1160
   9   0.0000       0.097020         2.6400
  10   0.0000       0.118779         3.2321
  11   0.0000       0.152742         4.1563
  12   0.0000       0.183358         4.9894
  13   0.0000       0.202280         5.5043

MULLIKEN ATOMIC CHARGES
-----------------------
   0 C :    0.000277
   1 O :   -0.000034
   2 H :   -0.009258
   3 H :   -0.000810
   4 H :   -0.000096
   5 H :    0.000005
   6 C :   -0.188215
   7 O :   -0.454453
   8 H :    0.311630
   9 H :    0.110932
  10 H :    0.122710
  11 H :    0.107312
Sum of atomic charges:   -0.0000000

LOEWDIN ATOMIC CHARGES
----------------------
   0 C :   -0.001216
   1 O :   -0.004950
   2 H :   -0.025194
   3 H :   -0.000303
   4 H :   -0.000016
   5 H :   -0.000017
   6 C :   -0.371674
   7 O :   -0.073510
   8 H :    0.176998
   9 H :    0.101388
  10 H :    0.105366
  11 H :    0.093128

  Mayer bond orders larger than 0.1
B(  6-C ,  7-O ) :   0.9959 B(  6-C ,  9-H ) :   0.9723 B(  6-C , 10-H ) :   0.9784
B(  6-C , 11-H ) :   0.9771 B(  7-O ,  8-H ) :   0.9022

Dispersion correction           -0.000243810
FINAL SINGLE POINT ENERGY      -115.731081697367

DIPOLE MOMENT
-------------
                                X             Y             Z
Electronic contribution:      1.19790      -1.31696      -0.57072
Nuclear contribution   :     -1.91862       1.29095       0.81378
                        -----------------------------------------
Total Dipole Moment    :     -0.72072      -0.02601       0.24306
                        -----------------------------------------
Magnitude (a.u.)       :      0.76105
Magnitude (Debye)      :      1.93443

Rotational constants in cm-1:     4.277529     0.817041     0.773611
Rotational constants in MHz : 128237.091407 24494.282620 23192.279532

                             ****ORCA TERMINATED NORMALLY****
TOTAL RUN TIME: 0 days 0 hours 0 minutes 56 seconds 79 msec
