                         Program Version 4.1.2  - RELEASE  -
|  1> #Run DFT-D3 single point of the dimer
|  2> ! wB97X-D3 def2-TZVP TIGHTSCF CHELPG PMODEL PAL8
|  3>
|  4> %base "12-126_DFT_AB"
|  5>
|  6> %scf
|  7> MaxIter 1000
|  8> end
|  9>
| 10> * xyz 0 1
| 11>   C                      -0.481099            9.376045             6.559686
| 12>   O                      -1.784589            9.792264             6.733425
| 13>   H                      -1.960106            10.217070            5.901776
| 14>   H                      0.121125             10.172576            6.041656
| 15>   H                      -0.019971            9.083515             7.531341
| 16>   H                      -0.468462            8.544020             5.812568
| 17>   C                      -3.272401            6.414772             7.903279
| 18>   O                      -2.221952            7.192676             8.481812
| 19>   H                      -2.096548            8.004167             7.918444
| 20>   H                      -3.352770            5.419782             8.481370
| 21>   H                      -4.210993            6.998517             8.036973
| 22>   H                      -3.129233            6.191496             6.820200
| 23> *
| 24>
| 25> #Run DFT-D3 single point of the molecule with dimer basis set
| 26> $new_job
| 27> %base "12-126_DFT_A"
| 28> ! wB97X-D3 def2-TZVP TIGHTSCF CHELPG PMODEL
| 29>
| 30> %scf
| 31> MaxIter 1000
| 32> end
| 33>
| 34> * xyz 0 1
| 35>   C                      -0.481099            9.376045             6.559686
| 36>   O                      -1.784589            9.792264             6.733425
| 37>   H                      -1.960106            10.217070            5.901776
| 38>   H                      0.121125             10.172576            6.041656
| 39>   H                      -0.019971            9.083515             7.531341
| 40>   H                      -0.468462            8.544020             5.812568
| 41>   C                    : -3.272401            6.414772             7.903279
| 42>   O                    : -2.221952            7.192676             8.481812
| 43>   H                    : -2.096548            8.004167             7.918444
| 44>   H                    : -3.352770            5.419782             8.481370
| 45>   H                    : -4.210993            6.998517             8.036973
| 46>   H                    : -3.129233            6.191496             6.820200
| 47> *
| 48>
| 49> #Run DFT-D3 single point of the particle with dimer basis set
| 50> $new_job
| 51> %base "12-126_DFT_B"
| 52> ! wB97X-D3 def2-TZVP TIGHTSCF CHELPG PMODEL
| 53>
| 54> %scf
| 55> MaxIter 1000
| 56> end
| 57>
| 58> * xyz 0 1
| 59>   C                    : -0.481099            9.376045             6.559686
| 60>   O                    : -1.784589            9.792264             6.733425
| 61>   H                    : -1.960106            10.217070            5.901776
| 62>   H                    : 0.121125             10.172576            6.041656
| 63>   H                    : -0.019971            9.083515             7.531341
| 64>   H                    : -0.468462            8.544020             5.812568
| 65>   C                      -3.272401            6.414772             7.903279
| 66>   O                      -2.221952            7.192676             8.481812
| 67>   H                      -2.096548            8.004167             7.918444
| 68>   H                      -3.352770            5.419782             8.481370
| 69>   H                      -4.210993            6.998517             8.036973
| 70>   H                      -3.129233            6.191496             6.820200
| 71> *
| 72>
| 73>                          ****END OF INPUT****
 Total Charge           Charge          ....    0
 Multiplicity           Mult            ....    1
 Number of Electrons    NEL             ....   36
Dispersion correction           -0.001750114
FINAL SINGLE POINT ENERGY      -231.470030744723
Dispersion correction           -0.000206102
FINAL SINGLE POINT ENERGY      -115.731426050991

CARTESIAN COORDINATES (ANGSTROEM)
---------------------------------
  C     -0.481099    9.376045    6.559686
  O     -1.784589    9.792264    6.733425
  H     -1.960106   10.217070    5.901776
  H      0.121125   10.172576    6.041656
  H     -0.019971    9.083515    7.531341
  H     -0.468462    8.544020    5.812568
  C     -3.272401    6.414772    7.903279
  O     -2.221952    7.192676    8.481812
  H     -2.096548    8.004167    7.918444
  H     -3.352770    5.419782    8.481370
  H     -4.210993    6.998517    8.036973
  H     -3.129233    6.191496    6.820200

 Multiplicity           Mult            ....    1
 Number of Electrons    NEL             ....   18
 Basis Dimension        Dim             ....  172

ORBITAL ENERGIES
----------------

  NO   OCC          E(Eh)            E(eV)
   0   2.0000     -19.233974      -523.3830
   1   2.0000     -10.325075      -280.9596
   2   2.0000      -1.125853       -30.6360
   3   2.0000      -0.784481       -21.3468
   4   2.0000      -0.602586       -16.3972
   5   2.0000      -0.539003       -14.6670
   6   2.0000      -0.518125       -14.0989
   7   2.0000      -0.432131       -11.7589
   8   2.0000      -0.372258       -10.1297
   9   0.0000       0.069385         1.8881
  10   0.0000       0.131735         3.5847
  11   0.0000       0.150914         4.1066
  12   0.0000       0.163495         4.4489
  13   0.0000       0.183730         4.9995

MULLIKEN ATOMIC CHARGES
-----------------------
   0 C :   -0.009413
   1 O :   -0.000082
   2 H :    0.000034
   3 H :   -0.000376
   4 H :    0.000523
   5 H :    0.000608
   6 C :   -0.170715
   7 O :   -0.469900
   8 H :    0.314712
   9 H :    0.120599
  10 H :    0.108245
  11 H :    0.105766
Sum of atomic charges:    0.0000000

LOEWDIN ATOMIC CHARGES
----------------------
   0 C :   -0.012739
   1 O :   -0.009842
   2 H :   -0.000435
   3 H :   -0.000206
   4 H :   -0.002347
   5 H :   -0.000867
   6 C :   -0.388587
   7 O :   -0.096261
   8 H :    0.196552
   9 H :    0.120092
  10 H :    0.098243
  11 H :    0.096396

  Mayer bond orders larger than 0.1
B(  6-C ,  7-O ) :   0.9896 B(  6-C ,  9-H ) :   0.9690 B(  6-C , 10-H ) :   0.9828
B(  6-C , 11-H ) :   0.9637 B(  7-O ,  8-H ) :   0.8989

Dispersion correction           -0.000254535
FINAL SINGLE POINT ENERGY      -115.732795199263

DIPOLE MOMENT
-------------
                                X             Y             Z
Electronic contribution:      1.37179       0.85149       0.79978
Nuclear contribution   :     -1.71458      -0.66919      -1.37166
                        -----------------------------------------
Total Dipole Moment    :     -0.34279       0.18230      -0.57188
                        -----------------------------------------
Magnitude (a.u.)       :      0.69122
Magnitude (Debye)      :      1.75694

Rotational constants in cm-1:     3.996511     0.814386     0.780463
Rotational constants in MHz : 119812.399921 24414.674813 23397.700521

                             ****ORCA TERMINATED NORMALLY****
TOTAL RUN TIME: 0 days 0 hours 1 minutes 12 seconds 82 msec
