                         Program Version 4.1.2  - RELEASE  -
|  1> #Run DFT-D3 single point of the dimer
|  2> ! wB97X-D3 def2-TZVP TIGHTSCF CHELPG PMODEL PAL8
|  3>
|  4> %base "18-100_DFT_AB"
|  5>
|  6> %scf
|  7> MaxIter 1000
|  8> end
|  9>
| 10> * xyz 0 1
| 11>   C                      6.430916             -8.552411            -1.489255
| 12>   O                      6.868516             -9.819716            -2.040261
| 13>   H                      7.680427             -9.616635            -2.544591
| 14>   H                      5.535664             -8.670275            -0.881404
| 15>   H                      7.250177             -8.131062            -0.814206
| 16>   H                      6.147152             -7.774020            -2.250141
| 17>   C                      8.273102             -7.968551            -5.283972
| 18>   O                      9.584337             -8.352203            -5.495567
| 19>   H                      9.979997             -8.543245            -4.605110
| 20>   H                      8.219475             -6.964434            -4.870195
| 21>   H                      7.756888             -7.911019            -6.244043
| 22>   H                      7.823246             -8.630043            -4.533174
| 23> *
| 24>
| 25> #Run DFT-D3 single point of the molecule with dimer basis set
| 26> $new_job
| 27> %base "18-100_DFT_A"
| 28> ! wB97X-D3 def2-TZVP TIGHTSCF CHELPG PMODEL
| 29>
| 30> %scf
| 31> MaxIter 1000
| 32> end
| 33>
| 34> * xyz 0 1
| 35>   C                      6.430916             -8.552411            -1.489255
| 36>   O                      6.868516             -9.819716            -2.040261
| 37>   H                      7.680427             -9.616635            -2.544591
| 38>   H                      5.535664             -8.670275            -0.881404
| 39>   H                      7.250177             -8.131062            -0.814206
| 40>   H                      6.147152             -7.774020            -2.250141
| 41>   C                    : 8.273102             -7.968551            -5.283972
| 42>   O                    : 9.584337             -8.352203            -5.495567
| 43>   H                    : 9.979997             -8.543245            -4.605110
| 44>   H                    : 8.219475             -6.964434            -4.870195
| 45>   H                    : 7.756888             -7.911019            -6.244043
| 46>   H                    : 7.823246             -8.630043            -4.533174
| 47> *
| 48>
| 49> #Run DFT-D3 single point of the particle with dimer basis set
| 50> $new_job
| 51> %base "18-100_DFT_B"
| 52> ! wB97X-D3 def2-TZVP TIGHTSCF CHELPG PMODEL
| 53>
| 54> %scf
| 55> MaxIter 1000
| 56> end
| 57>
| 58> * xyz 0 1
| 59>   C                    : 6.430916             -8.552411            -1.489255
| 60>   O                    : 6.868516             -9.819716            -2.040261
| 61>   H                    : 7.680427             -9.616635            -2.544591
| 62>   H                    : 5.535664             -8.670275            -0.881404
| 63>   H                    : 7.250177             -8.131062            -0.814206
| 64>   H                    : 6.147152             -7.774020            -2.250141
| 65>   C                      8.273102             -7.968551            -5.283972
| 66>   O                      9.584337             -8.352203            -5.495567
| 67>   H                      9.979997             -8.543245            -4.605110
| 68>   H                      8.219475             -6.964434            -4.870195
| 69>   H                      7.756888             -7.911019            -6.244043
| 70>   H                      7.823246             -8.630043            -4.533174
| 71> *
| 72>
| 73>                          ****END OF INPUT****
 Total Charge           Charge          ....    0
 Multiplicity           Mult            ....    1
 Number of Electrons    NEL             ....   36
Dispersion correction           -0.001596587
FINAL SINGLE POINT ENERGY      -231.466481570348
Dispersion correction           -0.000270722
FINAL SINGLE POINT ENERGY      -115.733708719848

CARTESIAN COORDINATES (ANGSTROEM)
---------------------------------
  C      6.430916   -8.552411   -1.489255
  O      6.868516   -9.819716   -2.040261
  H      7.680427   -9.616635   -2.544591
  H      5.535664   -8.670275   -0.881404
  H      7.250177   -8.131062   -0.814206
  H      6.147152   -7.774020   -2.250141
  C      8.273102   -7.968551   -5.283972
  O      9.584337   -8.352203   -5.495567
  H      9.979997   -8.543245   -4.605110
  H      8.219475   -6.964434   -4.870195
  H      7.756888   -7.911019   -6.244043
  H      7.823246   -8.630043   -4.533174

 Multiplicity           Mult            ....    1
 Number of Electrons    NEL             ....   18
 Basis Dimension        Dim             ....  172

ORBITAL ENERGIES
----------------

  NO   OCC          E(Eh)            E(eV)
   0   2.0000     -19.230776      -523.2960
   1   2.0000     -10.308735      -280.5150
   2   2.0000      -1.140605       -31.0374
   3   2.0000      -0.789690       -21.4886
   4   2.0000      -0.614524       -16.7221
   5   2.0000      -0.544820       -14.8253
   6   2.0000      -0.529635       -14.4121
   7   2.0000      -0.434320       -11.8184
   8   2.0000      -0.366786        -9.9808
   9   0.0000       0.077012         2.0956
  10   0.0000       0.114459         3.1146
  11   0.0000       0.156533         4.2595
  12   0.0000       0.167549         4.5592
  13   0.0000       0.191172         5.2021

MULLIKEN ATOMIC CHARGES
-----------------------
   0 C :   -0.000889
   1 O :   -0.000350
   2 H :    0.001950
   3 H :   -0.000034
   4 H :   -0.000019
   5 H :   -0.000823
   6 C :   -0.157192
   7 O :   -0.469532
   8 H :    0.317353
   9 H :    0.094687
  10 H :    0.118349
  11 H :    0.096500
Sum of atomic charges:    0.0000000

LOEWDIN ATOMIC CHARGES
----------------------
   0 C :   -0.001988
   1 O :   -0.001110
   2 H :   -0.005269
   3 H :   -0.000015
   4 H :   -0.000021
   5 H :   -0.000863
   6 C :   -0.409800
   7 O :   -0.069860
   8 H :    0.190824
   9 H :    0.091034
  10 H :    0.108861
  11 H :    0.098206

  Mayer bond orders larger than 0.1
B(  6-C ,  7-O ) :   1.0043 B(  6-C ,  9-H ) :   0.9757 B(  6-C , 10-H ) :   0.9714
B(  6-C , 11-H ) :   0.9837 B(  7-O ,  8-H ) :   0.8933

Dispersion correction           -0.000214890
FINAL SINGLE POINT ENERGY      -115.733239423529

DIPOLE MOMENT
-------------
                                X             Y             Z
Electronic contribution:      1.64084      -0.54153      -0.49131
Nuclear contribution   :     -1.88399       0.57298       1.11897
                        -----------------------------------------
Total Dipole Moment    :     -0.24314       0.03145       0.62766
                        -----------------------------------------
Magnitude (a.u.)       :      0.67385
Magnitude (Debye)      :      1.71278

Rotational constants in cm-1:     4.197387     0.874190     0.828479
Rotational constants in MHz : 125834.487216 26207.556150 24837.183501

                             ****ORCA TERMINATED NORMALLY****
TOTAL RUN TIME: 0 days 0 hours 1 minutes 4 seconds 471 msec
