                         Program Version 4.1.2  - RELEASE  -
|  1> #Run DFT-D3 single point of the dimer
|  2> ! wB97X-D3 def2-TZVP TIGHTSCF CHELPG PMODEL PAL8
|  3>
|  4> %base "9-163_DFT_AB"
|  5>
|  6> %scf
|  7> MaxIter 1000
|  8> end
|  9>
| 10> * xyz 0 1
| 11>   C                      -6.343450            -1.847859            -8.942804
| 12>   O                      -7.682245            -1.594019            -9.050073
| 13>   H                      -8.145457            -2.414893            -8.938471
| 14>   H                      -6.074179            -2.331905            -8.002115
| 15>   H                      -6.188625            -2.642796            -9.680107
| 16>   H                      -5.730921            -0.938933            -9.192595
| 17>   C                      -8.738837            -1.335997            -5.019116
| 18>   O                      -8.838069            -1.696355            -6.417131
| 19>   H                      -9.184487            -2.523988            -6.605745
| 20>   H                      -8.285534            -0.334798            -4.854895
| 21>   H                      -9.699945            -1.314421            -4.538570
| 22>   H                      -8.130867            -2.108910            -4.444958
| 23> *
| 24>
| 25> #Run DFT-D3 single point of the molecule with dimer basis set
| 26> $new_job
| 27> %base "9-163_DFT_A"
| 28> ! wB97X-D3 def2-TZVP TIGHTSCF CHELPG PMODEL
| 29>
| 30> %scf
| 31> MaxIter 1000
| 32> end
| 33>
| 34> * xyz 0 1
| 35>   C                      -6.343450            -1.847859            -8.942804
| 36>   O                      -7.682245            -1.594019            -9.050073
| 37>   H                      -8.145457            -2.414893            -8.938471
| 38>   H                      -6.074179            -2.331905            -8.002115
| 39>   H                      -6.188625            -2.642796            -9.680107
| 40>   H                      -5.730921            -0.938933            -9.192595
| 41>   C                    : -8.738837            -1.335997            -5.019116
| 42>   O                    : -8.838069            -1.696355            -6.417131
| 43>   H                    : -9.184487            -2.523988            -6.605745
| 44>   H                    : -8.285534            -0.334798            -4.854895
| 45>   H                    : -9.699945            -1.314421            -4.538570
| 46>   H                    : -8.130867            -2.108910            -4.444958
| 47> *
| 48>
| 49> #Run DFT-D3 single point of the particle with dimer basis set
| 50> $new_job
| 51> %base "9-163_DFT_B"
| 52> ! wB97X-D3 def2-TZVP TIGHTSCF CHELPG PMODEL
| 53>
| 54> %scf
| 55> MaxIter 1000
| 56> end
| 57>
| 58> * xyz 0 1
| 59>   C                    : -6.343450            -1.847859            -8.942804
| 60>   O                    : -7.682245            -1.594019            -9.050073
| 61>   H                    : -8.145457            -2.414893            -8.938471
| 62>   H                    : -6.074179            -2.331905            -8.002115
| 63>   H                    : -6.188625            -2.642796            -9.680107
| 64>   H                    : -5.730921            -0.938933            -9.192595
| 65>   C                      -8.738837            -1.335997            -5.019116
| 66>   O                      -8.838069            -1.696355            -6.417131
| 67>   H                      -9.184487            -2.523988            -6.605745
| 68>   H                      -8.285534            -0.334798            -4.854895
| 69>   H                      -9.699945            -1.314421            -4.538570
| 70>   H                      -8.130867            -2.108910            -4.444958
| 71> *
| 72>
| 73>                          ****END OF INPUT****
 Total Charge           Charge          ....    0
 Multiplicity           Mult            ....    1
 Number of Electrons    NEL             ....   36
Dispersion correction           -0.001641949
FINAL SINGLE POINT ENERGY      -231.454382128693
Dispersion correction           -0.000200057
FINAL SINGLE POINT ENERGY      -115.729375216754

CARTESIAN COORDINATES (ANGSTROEM)
---------------------------------
  C     -6.343450   -1.847859   -8.942804
  O     -7.682245   -1.594019   -9.050073
  H     -8.145457   -2.414893   -8.938471
  H     -6.074179   -2.331905   -8.002115
  H     -6.188625   -2.642796   -9.680107
  H     -5.730921   -0.938933   -9.192595
  C     -8.738837   -1.335997   -5.019116
  O     -8.838069   -1.696355   -6.417131
  H     -9.184487   -2.523988   -6.605745
  H     -8.285534   -0.334798   -4.854895
  H     -9.699945   -1.314421   -4.538570
  H     -8.130867   -2.108910   -4.444958

 Multiplicity           Mult            ....    1
 Number of Electrons    NEL             ....   18
 Basis Dimension        Dim             ....  172

ORBITAL ENERGIES
----------------

  NO   OCC          E(Eh)            E(eV)
   0   2.0000     -19.224306      -523.1200
   1   2.0000     -10.323607      -280.9196
   2   2.0000      -1.130389       -30.7595
   3   2.0000      -0.802779       -21.8447
   4   2.0000      -0.613361       -16.6904
   5   2.0000      -0.532101       -14.4792
   6   2.0000      -0.528680       -14.3861
   7   2.0000      -0.426737       -11.6121
   8   2.0000      -0.374666       -10.1952
   9   0.0000       0.095774         2.6062
  10   0.0000       0.129018         3.5107
  11   0.0000       0.146303         3.9811
  12   0.0000       0.189266         5.1502
  13   0.0000       0.194795         5.3006

MULLIKEN ATOMIC CHARGES
-----------------------
   0 C :   -0.002144
   1 O :    0.005117
   2 H :   -0.004203
   3 H :   -0.003859
   4 H :   -0.000222
   5 H :   -0.000081
   6 C :   -0.158375
   7 O :   -0.488853
   8 H :    0.311732
   9 H :    0.128653
  10 H :    0.110677
  11 H :    0.101556
Sum of atomic charges:    0.0000000

LOEWDIN ATOMIC CHARGES
----------------------
   0 C :   -0.006139
   1 O :   -0.008630
   2 H :   -0.005038
   3 H :   -0.002366
   4 H :   -0.000083
   5 H :   -0.000097
   6 C :   -0.357690
   7 O :   -0.064473
   8 H :    0.136036
   9 H :    0.114178
  10 H :    0.091286
  11 H :    0.103015

  Mayer bond orders larger than 0.1
B(  6-C ,  7-O ) :   0.9803 B(  6-C ,  9-H ) :   0.9706 B(  6-C , 10-H ) :   0.9724
B(  6-C , 11-H ) :   0.9769 B(  7-O ,  8-H ) :   0.9008

Dispersion correction           -0.000280891
FINAL SINGLE POINT ENERGY      -115.729904428131

DIPOLE MOMENT
-------------
                                X             Y             Z
Electronic contribution:     -0.12056      -0.28945      -1.80569
Nuclear contribution   :     -0.09798      -0.09638       2.30782
                        -----------------------------------------
Total Dipole Moment    :     -0.21853      -0.38583       0.50213
                        -----------------------------------------
Magnitude (a.u.)       :      0.66990
Magnitude (Debye)      :      1.70274

Rotational constants in cm-1:     4.437111     0.785096     0.760194
Rotational constants in MHz : 133021.228542 23536.574749 22790.029519

                             ****ORCA TERMINATED NORMALLY****
TOTAL RUN TIME: 0 days 0 hours 0 minutes 45 seconds 396 msec
