                         Program Version 4.1.2  - RELEASE  -
|  1> #Run DFT-D3 single point of the dimer
|  2> ! wB97X-D3 def2-TZVP TIGHTSCF CHELPG PMODEL PAL8
|  3>
|  4> %base "20-34_DFT_AB"
|  5>
|  6> %scf
|  7> MaxIter 1000
|  8> end
|  9>
| 10> * xyz 0 1
| 11>   C                      -1.641794            5.307331             1.637861
| 12>   O                      -2.575965            4.229584             1.491744
| 13>   H                      -2.767324            3.875175             2.374490
| 14>   H                      -1.946451            5.984514             2.464272
| 15>   H                      -0.555480            5.066071             1.793109
| 16>   H                      -1.550788            5.846078             0.708489
| 17>   C                      -2.065024            1.993870             3.896017
| 18>   O                      -3.350795            2.456137             3.500753
| 19>   H                      -3.641695            1.730003             2.923520
| 20>   H                      -1.640461            2.669533             4.674647
| 21>   H                      -2.055082            1.008764             4.267049
| 22>   H                      -1.361127            2.053364             3.044576
| 23> *
| 24>
| 25> #Run DFT-D3 single point of the molecule with dimer basis set
| 26> $new_job
| 27> %base "20-34_DFT_A"
| 28> ! wB97X-D3 def2-TZVP TIGHTSCF CHELPG PMODEL
| 29>
| 30> %scf
| 31> MaxIter 1000
| 32> end
| 33>
| 34> * xyz 0 1
| 35>   C                      -1.641794            5.307331             1.637861
| 36>   O                      -2.575965            4.229584             1.491744
| 37>   H                      -2.767324            3.875175             2.374490
| 38>   H                      -1.946451            5.984514             2.464272
| 39>   H                      -0.555480            5.066071             1.793109
| 40>   H                      -1.550788            5.846078             0.708489
| 41>   C                    : -2.065024            1.993870             3.896017
| 42>   O                    : -3.350795            2.456137             3.500753
| 43>   H                    : -3.641695            1.730003             2.923520
| 44>   H                    : -1.640461            2.669533             4.674647
| 45>   H                    : -2.055082            1.008764             4.267049
| 46>   H                    : -1.361127            2.053364             3.044576
| 47> *
| 48>
| 49> #Run DFT-D3 single point of the particle with dimer basis set
| 50> $new_job
| 51> %base "20-34_DFT_B"
| 52> ! wB97X-D3 def2-TZVP TIGHTSCF CHELPG PMODEL
| 53>
| 54> %scf
| 55> MaxIter 1000
| 56> end
| 57>
| 58> * xyz 0 1
| 59>   C                    : -1.641794            5.307331             1.637861
| 60>   O                    : -2.575965            4.229584             1.491744
| 61>   H                    : -2.767324            3.875175             2.374490
| 62>   H                    : -1.946451            5.984514             2.464272
| 63>   H                    : -0.555480            5.066071             1.793109
| 64>   H                    : -1.550788            5.846078             0.708489
| 65>   C                      -2.065024            1.993870             3.896017
| 66>   O                      -3.350795            2.456137             3.500753
| 67>   H                      -3.641695            1.730003             2.923520
| 68>   H                      -1.640461            2.669533             4.674647
| 69>   H                      -2.055082            1.008764             4.267049
| 70>   H                      -1.361127            2.053364             3.044576
| 71> *
| 72>
| 73>                          ****END OF INPUT****
 Total Charge           Charge          ....    0
 Multiplicity           Mult            ....    1
 Number of Electrons    NEL             ....   36
Dispersion correction           -0.001924831
FINAL SINGLE POINT ENERGY      -231.474611396711
Dispersion correction           -0.000275766
FINAL SINGLE POINT ENERGY      -115.732986237293

CARTESIAN COORDINATES (ANGSTROEM)
---------------------------------
  C     -1.641794    5.307331    1.637861
  O     -2.575965    4.229584    1.491744
  H     -2.767324    3.875175    2.374490
  H     -1.946451    5.984514    2.464272
  H     -0.555480    5.066071    1.793109
  H     -1.550788    5.846078    0.708489
  C     -2.065024    1.993870    3.896017
  O     -3.350795    2.456137    3.500753
  H     -3.641695    1.730003    2.923520
  H     -1.640461    2.669533    4.674647
  H     -2.055082    1.008764    4.267049
  H     -1.361127    2.053364    3.044576

 Multiplicity           Mult            ....    1
 Number of Electrons    NEL             ....   18
 Basis Dimension        Dim             ....  172

ORBITAL ENERGIES
----------------

  NO   OCC          E(Eh)            E(eV)
   0   2.0000     -19.235233      -523.4173
   1   2.0000     -10.312315      -280.6123
   2   2.0000      -1.137080       -30.9415
   3   2.0000      -0.793389       -21.5892
   4   2.0000      -0.609990       -16.5987
   5   2.0000      -0.543279       -14.7834
   6   2.0000      -0.522873       -14.2281
   7   2.0000      -0.442643       -12.0449
   8   2.0000      -0.375397       -10.2151
   9   0.0000       0.092071         2.5054
  10   0.0000       0.122205         3.3254
  11   0.0000       0.153355         4.1730
  12   0.0000       0.185289         5.0420
  13   0.0000       0.193174         5.2565

MULLIKEN ATOMIC CHARGES
-----------------------
   0 C :    0.000225
   1 O :   -0.004326
   2 H :   -0.002002
   3 H :   -0.000314
   4 H :   -0.000249
   5 H :    0.000015
   6 C :   -0.186599
   7 O :   -0.461901
   8 H :    0.314663
   9 H :    0.118267
  10 H :    0.118280
  11 H :    0.103941
Sum of atomic charges:    0.0000000

LOEWDIN ATOMIC CHARGES
----------------------
   0 C :   -0.001392
   1 O :   -0.009050
   2 H :   -0.045435
   3 H :   -0.000060
   4 H :   -0.000185
   5 H :   -0.000018
   6 C :   -0.380710
   7 O :   -0.043396
   8 H :    0.180479
   9 H :    0.114377
  10 H :    0.086770
  11 H :    0.098620

  Mayer bond orders larger than 0.1
B(  6-C ,  7-O ) :   0.9834 B(  6-C ,  9-H ) :   0.9763 B(  6-C , 10-H ) :   0.9704
B(  6-C , 11-H ) :   0.9808 B(  7-O ,  8-H ) :   0.9002

Dispersion correction           -0.000226609
FINAL SINGLE POINT ENERGY      -115.734277505456

DIPOLE MOMENT
-------------
                                X             Y             Z
Electronic contribution:     -1.71810       0.64277      -0.36414
Nuclear contribution   :      2.04050      -1.28391       0.18504
                        -----------------------------------------
Total Dipole Moment    :      0.32240      -0.64114      -0.17910
                        -----------------------------------------
Magnitude (a.u.)       :      0.73965
Magnitude (Debye)      :      1.88004

Rotational constants in cm-1:     4.253391     0.830373     0.796546
Rotational constants in MHz : 127513.450331 24893.942558 23879.860816

                             ****ORCA TERMINATED NORMALLY****
TOTAL RUN TIME: 0 days 0 hours 1 minutes 9 seconds 321 msec
