                         Program Version 4.1.2  - RELEASE  -
|  1> #Run DFT-D3 single point of the dimer
|  2> ! wB97X-D3 def2-TZVP TIGHTSCF CHELPG PMODEL PAL8
|  3>
|  4> %base "4-180_DFT_AB"
|  5>
|  6> %scf
|  7> MaxIter 1000
|  8> end
|  9>
| 10> * xyz 0 1
| 11>   C                      1.282036             -0.526095            -2.447714
| 12>   O                      0.667628             0.654097             -2.888777
| 13>   H                      -0.115765            0.328344             -3.366132
| 14>   H                      0.807238             -0.864721            -1.598369
| 15>   H                      1.260012             -1.403564            -3.131987
| 16>   H                      2.306597             -0.287448            -2.217805
| 17>   C                      -3.083535            -0.036181            -1.632068
| 18>   O                      -2.170263            -0.152564            -2.684207
| 19>   H                      -2.682957            -0.716666            -3.265436
| 20>   H                      -4.043141            0.216827             -1.945819
| 21>   H                      -3.099565            -0.922506            -1.014812
| 22>   H                      -2.800930            0.780589             -0.955522
| 23> *
| 24>
| 25> #Run DFT-D3 single point of the molecule with dimer basis set
| 26> $new_job
| 27> %base "4-180_DFT_A"
| 28> ! wB97X-D3 def2-TZVP TIGHTSCF CHELPG PMODEL
| 29>
| 30> %scf
| 31> MaxIter 1000
| 32> end
| 33>
| 34> * xyz 0 1
| 35>   C                      1.282036             -0.526095            -2.447714
| 36>   O                      0.667628             0.654097             -2.888777
| 37>   H                      -0.115765            0.328344             -3.366132
| 38>   H                      0.807238             -0.864721            -1.598369
| 39>   H                      1.260012             -1.403564            -3.131987
| 40>   H                      2.306597             -0.287448            -2.217805
| 41>   C                    : -3.083535            -0.036181            -1.632068
| 42>   O                    : -2.170263            -0.152564            -2.684207
| 43>   H                    : -2.682957            -0.716666            -3.265436
| 44>   H                    : -4.043141            0.216827             -1.945819
| 45>   H                    : -3.099565            -0.922506            -1.014812
| 46>   H                    : -2.800930            0.780589             -0.955522
| 47> *
| 48>
| 49> #Run DFT-D3 single point of the particle with dimer basis set
| 50> $new_job
| 51> %base "4-180_DFT_B"
| 52> ! wB97X-D3 def2-TZVP TIGHTSCF CHELPG PMODEL
| 53>
| 54> %scf
| 55> MaxIter 1000
| 56> end
| 57>
| 58> * xyz 0 1
| 59>   C                    : 1.282036             -0.526095            -2.447714
| 60>   O                    : 0.667628             0.654097             -2.888777
| 61>   H                    : -0.115765            0.328344             -3.366132
| 62>   H                    : 0.807238             -0.864721            -1.598369
| 63>   H                    : 1.260012             -1.403564            -3.131987
| 64>   H                    : 2.306597             -0.287448            -2.217805
| 65>   C                      -3.083535            -0.036181            -1.632068
| 66>   O                      -2.170263            -0.152564            -2.684207
| 67>   H                      -2.682957            -0.716666            -3.265436
| 68>   H                      -4.043141            0.216827             -1.945819
| 69>   H                      -3.099565            -0.922506            -1.014812
| 70>   H                      -2.800930            0.780589             -0.955522
| 71> *
| 72>
| 73>                          ****END OF INPUT****
 Total Charge           Charge          ....    0
 Multiplicity           Mult            ....    1
 Number of Electrons    NEL             ....   36
Dispersion correction           -0.001630377
FINAL SINGLE POINT ENERGY      -231.467576633034
Dispersion correction           -0.000220104
FINAL SINGLE POINT ENERGY      -115.731525991755

CARTESIAN COORDINATES (ANGSTROEM)
---------------------------------
  C      1.282036   -0.526095   -2.447714
  O      0.667628    0.654097   -2.888777
  H     -0.115765    0.328344   -3.366132
  H      0.807238   -0.864721   -1.598369
  H      1.260012   -1.403564   -3.131987
  H      2.306597   -0.287448   -2.217805
  C     -3.083535   -0.036181   -1.632068
  O     -2.170263   -0.152564   -2.684207
  H     -2.682957   -0.716666   -3.265436
  H     -4.043141    0.216827   -1.945819
  H     -3.099565   -0.922506   -1.014812
  H     -2.800930    0.780589   -0.955522

 Multiplicity           Mult            ....    1
 Number of Electrons    NEL             ....   18
 Basis Dimension        Dim             ....  172

ORBITAL ENERGIES
----------------

  NO   OCC          E(Eh)            E(eV)
   0   2.0000     -19.233836      -523.3793
   1   2.0000     -10.304369      -280.3961
   2   2.0000      -1.148733       -31.2586
   3   2.0000      -0.797425       -21.6990
   4   2.0000      -0.615214       -16.7408
   5   2.0000      -0.553177       -15.0527
   6   2.0000      -0.527581       -14.3562
   7   2.0000      -0.440206       -11.9786
   8   2.0000      -0.377061       -10.2603
   9   0.0000       0.099012         2.6943
  10   0.0000       0.126023         3.4292
  11   0.0000       0.155968         4.2441
  12   0.0000       0.190867         5.1938
  13   0.0000       0.200945         5.4680

MULLIKEN ATOMIC CHARGES
-----------------------
   0 C :    0.001581
   1 O :    0.001261
   2 H :   -0.008262
   3 H :   -0.003083
   4 H :   -0.000968
   5 H :   -0.000338
   6 C :   -0.173089
   7 O :   -0.446088
   8 H :    0.311555
   9 H :    0.104134
  10 H :    0.101168
  11 H :    0.112129
Sum of atomic charges:   -0.0000000

LOEWDIN ATOMIC CHARGES
----------------------
   0 C :   -0.005856
   1 O :   -0.004260
   2 H :   -0.021656
   3 H :   -0.001454
   4 H :   -0.000340
   5 H :   -0.000093
   6 C :   -0.396925
   7 O :   -0.033026
   8 H :    0.175603
   9 H :    0.084414
  10 H :    0.093339
  11 H :    0.110255

  Mayer bond orders larger than 0.1
B(  6-C ,  7-O ) :   0.9969 B(  6-C ,  9-H ) :   0.9770 B(  6-C , 10-H ) :   0.9770
B(  6-C , 11-H ) :   0.9786 B(  7-O ,  8-H ) :   0.9028

Dispersion correction           -0.000207451
FINAL SINGLE POINT ENERGY      -115.731829906772

DIPOLE MOMENT
-------------
                                X             Y             Z
Electronic contribution:      1.25750      -0.09034      -1.38715
Nuclear contribution   :     -1.94422      -0.19018       1.42819
                        -----------------------------------------
Total Dipole Moment    :     -0.68671      -0.28052       0.04104
                        -----------------------------------------
Magnitude (a.u.)       :      0.74294
Magnitude (Debye)      :      1.88839

Rotational constants in cm-1:     4.412419     0.856303     0.826464
Rotational constants in MHz : 132281.002617 25671.326707 24776.758048

                             ****ORCA TERMINATED NORMALLY****
TOTAL RUN TIME: 0 days 0 hours 1 minutes 34 seconds 687 msec
