                         Program Version 4.1.2  - RELEASE  -
|  1> #Run DFT-D3 single point of the dimer
|  2> ! wB97X-D3 def2-TZVP TIGHTSCF CHELPG PMODEL PAL8
|  3>
|  4> %base "5-116_DFT_AB"
|  5>
|  6> %scf
|  7> MaxIter 1000
|  8> end
|  9>
| 10> * xyz 0 1
| 11>   C                      3.183736             5.995113             10.955954
| 12>   O                      3.499495             4.613569             11.171923
| 13>   H                      2.819800             4.190897             11.702328
| 14>   H                      3.994705             6.451378             10.373368
| 15>   H                      2.292251             6.198718             10.312832
| 16>   H                      3.131440             6.583796             11.863189
| 17>   C                      3.486480             3.228859             8.221319
| 18>   O                      2.522415             3.169753             7.171578
| 19>   H                      2.924334             3.012917             6.317033
| 20>   H                      3.112496             2.768738             9.151670
| 21>   H                      4.386893             2.667311             8.000667
| 22>   H                      3.835800             4.237860             8.215932
| 23> *
| 24>
| 25> #Run DFT-D3 single point of the molecule with dimer basis set
| 26> $new_job
| 27> %base "5-116_DFT_A"
| 28> ! wB97X-D3 def2-TZVP TIGHTSCF CHELPG PMODEL
| 29>
| 30> %scf
| 31> MaxIter 1000
| 32> end
| 33>
| 34> * xyz 0 1
| 35>   C                      3.183736             5.995113             10.955954
| 36>   O                      3.499495             4.613569             11.171923
| 37>   H                      2.819800             4.190897             11.702328
| 38>   H                      3.994705             6.451378             10.373368
| 39>   H                      2.292251             6.198718             10.312832
| 40>   H                      3.131440             6.583796             11.863189
| 41>   C                    : 3.486480             3.228859             8.221319
| 42>   O                    : 2.522415             3.169753             7.171578
| 43>   H                    : 2.924334             3.012917             6.317033
| 44>   H                    : 3.112496             2.768738             9.151670
| 45>   H                    : 4.386893             2.667311             8.000667
| 46>   H                    : 3.835800             4.237860             8.215932
| 47> *
| 48>
| 49> #Run DFT-D3 single point of the particle with dimer basis set
| 50> $new_job
| 51> %base "5-116_DFT_B"
| 52> ! wB97X-D3 def2-TZVP TIGHTSCF CHELPG PMODEL
| 53>
| 54> %scf
| 55> MaxIter 1000
| 56> end
| 57>
| 58> * xyz 0 1
| 59>   C                    : 3.183736             5.995113             10.955954
| 60>   O                    : 3.499495             4.613569             11.171923
| 61>   H                    : 2.819800             4.190897             11.702328
| 62>   H                    : 3.994705             6.451378             10.373368
| 63>   H                    : 2.292251             6.198718             10.312832
| 64>   H                    : 3.131440             6.583796             11.863189
| 65>   C                      3.486480             3.228859             8.221319
| 66>   O                      2.522415             3.169753             7.171578
| 67>   H                      2.924334             3.012917             6.317033
| 68>   H                      3.112496             2.768738             9.151670
| 69>   H                      4.386893             2.667311             8.000667
| 70>   H                      3.835800             4.237860             8.215932
| 71> *
| 72>
| 73>                          ****END OF INPUT****
 Total Charge           Charge          ....    0
 Multiplicity           Mult            ....    1
 Number of Electrons    NEL             ....   36
Dispersion correction           -0.001832396
FINAL SINGLE POINT ENERGY      -231.466085988879
Dispersion correction           -0.000278919
FINAL SINGLE POINT ENERGY      -115.735253296718

CARTESIAN COORDINATES (ANGSTROEM)
---------------------------------
  C      3.183736    5.995113   10.955954
  O      3.499495    4.613569   11.171923
  H      2.819800    4.190897   11.702328
  H      3.994705    6.451378   10.373368
  H      2.292251    6.198718   10.312832
  H      3.131440    6.583796   11.863189
  C      3.486480    3.228859    8.221319
  O      2.522415    3.169753    7.171578
  H      2.924334    3.012917    6.317033
  H      3.112496    2.768738    9.151670
  H      4.386893    2.667311    8.000667
  H      3.835800    4.237860    8.215932

 Multiplicity           Mult            ....    1
 Number of Electrons    NEL             ....   18
 Basis Dimension        Dim             ....  172

ORBITAL ENERGIES
----------------

  NO   OCC          E(Eh)            E(eV)
   0   2.0000     -19.224672      -523.1299
   1   2.0000     -10.310978      -280.5760
   2   2.0000      -1.128451       -30.7067
   3   2.0000      -0.799240       -21.7484
   4   2.0000      -0.611314       -16.6347
   5   2.0000      -0.554624       -15.0921
   6   2.0000      -0.512965       -13.9585
   7   2.0000      -0.427330       -11.6282
   8   2.0000      -0.371730       -10.1153
   9   0.0000       0.086972         2.3666
  10   0.0000       0.116898         3.1809
  11   0.0000       0.150275         4.0892
  12   0.0000       0.163766         4.4563
  13   0.0000       0.189131         5.1465

MULLIKEN ATOMIC CHARGES
-----------------------
   0 C :    0.000659
   1 O :   -0.000949
   2 H :   -0.000306
   3 H :   -0.000409
   4 H :    0.000224
   5 H :    0.000070
   6 C :   -0.167779
   7 O :   -0.485677
   8 H :    0.315915
   9 H :    0.122133
  10 H :    0.105108
  11 H :    0.111012
Sum of atomic charges:    0.0000000

LOEWDIN ATOMIC CHARGES
----------------------
   0 C :   -0.003606
   1 O :   -0.003836
   2 H :   -0.001005
   3 H :   -0.000721
   4 H :   -0.000267
   5 H :   -0.000034
   6 C :   -0.367904
   7 O :   -0.089778
   8 H :    0.163805
   9 H :    0.112671
  10 H :    0.093741
  11 H :    0.096935

  Mayer bond orders larger than 0.1
B(  6-C ,  7-O ) :   0.9917 B(  6-C ,  9-H ) :   0.9679 B(  6-C , 10-H ) :   0.9766
B(  6-C , 11-H ) :   0.9808 B(  7-O ,  8-H ) :   0.8968

Dispersion correction           -0.000240975
FINAL SINGLE POINT ENERGY      -115.729696885394

DIPOLE MOMENT
-------------
                                X             Y             Z
Electronic contribution:     -1.36103      -0.02691      -1.11376
Nuclear contribution   :      2.05635      -0.07707       0.97564
                        -----------------------------------------
Total Dipole Moment    :      0.69532      -0.10398      -0.13811
                        -----------------------------------------
Magnitude (a.u.)       :      0.71649
Magnitude (Debye)      :      1.82116

Rotational constants in cm-1:     4.376339     0.819178     0.792303
Rotational constants in MHz : 131199.329601 24558.335729 23752.649770

                             ****ORCA TERMINATED NORMALLY****
TOTAL RUN TIME: 0 days 0 hours 1 minutes 3 seconds 67 msec
