                         Program Version 4.1.2  - RELEASE  -
|  1> #Run DFT-D3 single point of the dimer
|  2> ! wB97X-D3 def2-TZVP TIGHTSCF CHELPG PMODEL PAL8
|  3>
|  4> %base "8-78_DFT_AB"
|  5>
|  6> %scf
|  7> MaxIter 1000
|  8> end
|  9>
| 10> * xyz 0 1
| 11>   C                      6.555521             2.875121             5.302771
| 12>   O                      5.960526             2.912413             6.541502
| 13>   H                      5.034107             2.707951             6.433674
| 14>   H                      6.880396             3.815636             4.981021
| 15>   H                      7.546284             2.419773             5.320943
| 16>   H                      5.929050             2.395693             4.578541
| 17>   C                      5.516910             4.798344             0.486500
| 18>   O                      5.933246             5.897615             1.108298
| 19>   H                      6.394821             6.479765             0.481301
| 20>   H                      4.789262             4.296935             1.139114
| 21>   H                      4.936789             4.924250             -0.411263
| 22>   H                      6.246772             4.066543             0.165103
| 23> *
| 24>
| 25> #Run DFT-D3 single point of the molecule with dimer basis set
| 26> $new_job
| 27> %base "8-78_DFT_A"
| 28> ! wB97X-D3 def2-TZVP TIGHTSCF CHELPG PMODEL
| 29>
| 30> %scf
| 31> MaxIter 1000
| 32> end
| 33>
| 34> * xyz 0 1
| 35>   C                      6.555521             2.875121             5.302771
| 36>   O                      5.960526             2.912413             6.541502
| 37>   H                      5.034107             2.707951             6.433674
| 38>   H                      6.880396             3.815636             4.981021
| 39>   H                      7.546284             2.419773             5.320943
| 40>   H                      5.929050             2.395693             4.578541
| 41>   C                    : 5.516910             4.798344             0.486500
| 42>   O                    : 5.933246             5.897615             1.108298
| 43>   H                    : 6.394821             6.479765             0.481301
| 44>   H                    : 4.789262             4.296935             1.139114
| 45>   H                    : 4.936789             4.924250             -0.411263
| 46>   H                    : 6.246772             4.066543             0.165103
| 47> *
| 48>
| 49> #Run DFT-D3 single point of the particle with dimer basis set
| 50> $new_job
| 51> %base "8-78_DFT_B"
| 52> ! wB97X-D3 def2-TZVP TIGHTSCF CHELPG PMODEL
| 53>
| 54> %scf
| 55> MaxIter 1000
| 56> end
| 57>
| 58> * xyz 0 1
| 59>   C                    : 6.555521             2.875121             5.302771
| 60>   O                    : 5.960526             2.912413             6.541502
| 61>   H                    : 5.034107             2.707951             6.433674
| 62>   H                    : 6.880396             3.815636             4.981021
| 63>   H                    : 7.546284             2.419773             5.320943
| 64>   H                    : 5.929050             2.395693             4.578541
| 65>   C                      5.516910             4.798344             0.486500
| 66>   O                      5.933246             5.897615             1.108298
| 67>   H                      6.394821             6.479765             0.481301
| 68>   H                      4.789262             4.296935             1.139114
| 69>   H                      4.936789             4.924250             -0.411263
| 70>   H                      6.246772             4.066543             0.165103
| 71> *
| 72>
| 73>                          ****END OF INPUT****
 Total Charge           Charge          ....    0
 Multiplicity           Mult            ....    1
 Number of Electrons    NEL             ....   36
Dispersion correction           -0.000688655
FINAL SINGLE POINT ENERGY      -231.458142176209
Dispersion correction           -0.000227656
FINAL SINGLE POINT ENERGY      -115.728538482963

CARTESIAN COORDINATES (ANGSTROEM)
---------------------------------
  C      6.555521    2.875121    5.302771
  O      5.960526    2.912413    6.541502
  H      5.034107    2.707951    6.433674
  H      6.880396    3.815636    4.981021
  H      7.546284    2.419773    5.320943
  H      5.929050    2.395693    4.578541
  C      5.516910    4.798344    0.486500
  O      5.933246    5.897615    1.108298
  H      6.394821    6.479765    0.481301
  H      4.789262    4.296935    1.139114
  H      4.936789    4.924250   -0.411263
  H      6.246772    4.066543    0.165103

 Multiplicity           Mult            ....    1
 Number of Electrons    NEL             ....   18
 Basis Dimension        Dim             ....  172

ORBITAL ENERGIES
----------------

  NO   OCC          E(Eh)            E(eV)
   0   2.0000     -19.235878      -523.4348
   1   2.0000     -10.301525      -280.3187
   2   2.0000      -1.163910       -31.6716
   3   2.0000      -0.797016       -21.6879
   4   2.0000      -0.635400       -17.2901
   5   2.0000      -0.547960       -14.9108
   6   2.0000      -0.535320       -14.5668
   7   2.0000      -0.425231       -11.5711
   8   2.0000      -0.371285       -10.1032
   9   0.0000       0.092427         2.5151
  10   0.0000       0.115585         3.1452
  11   0.0000       0.152203         4.1417
  12   0.0000       0.168534         4.5860
  13   0.0000       0.189460         5.1555

MULLIKEN ATOMIC CHARGES
-----------------------
   0 C :    0.000162
   1 O :    0.000000
   2 H :   -0.000000
   3 H :   -0.000369
   4 H :   -0.000006
   5 H :   -0.000067
   6 C :   -0.152941
   7 O :   -0.452694
   8 H :    0.318956
   9 H :    0.108486
  10 H :    0.090268
  11 H :    0.088204
Sum of atomic charges:   -0.0000000

LOEWDIN ATOMIC CHARGES
----------------------
   0 C :   -0.000035
   1 O :   -0.000001
   2 H :   -0.000000
   3 H :   -0.000108
   4 H :   -0.000001
   5 H :   -0.000044
   6 C :   -0.462988
   7 O :   -0.007917
   8 H :    0.184686
   9 H :    0.111542
  10 H :    0.087292
  11 H :    0.087574

  Mayer bond orders larger than 0.1
B(  6-C ,  7-O ) :   1.0234 B(  6-C ,  9-H ) :   0.9758 B(  6-C , 10-H ) :   0.9765
B(  6-C , 11-H ) :   0.9711 B(  7-O ,  8-H ) :   0.8912

Dispersion correction           -0.000231216
FINAL SINGLE POINT ENERGY      -115.729281085816

DIPOLE MOMENT
-------------
                                X             Y             Z
Electronic contribution:      0.66704       1.59534       1.00478
Nuclear contribution   :     -0.53114      -1.58107      -1.62914
                        -----------------------------------------
Total Dipole Moment    :      0.13591       0.01427      -0.62436
                        -----------------------------------------
Magnitude (a.u.)       :      0.63914
Magnitude (Debye)      :      1.62456

Rotational constants in cm-1:     4.567823     0.902926     0.864489
Rotational constants in MHz : 136939.877931 27069.032904 25916.736739

                             ****ORCA TERMINATED NORMALLY****
TOTAL RUN TIME: 0 days 0 hours 0 minutes 44 seconds 196 msec
