                         Program Version 4.1.2  - RELEASE  -
|  1> #Run DFT-D3 single point of the dimer
|  2> ! wB97X-D3 def2-TZVP TIGHTSCF  CHELPG PAL8
|  3>
|  4> %base "91_charges"
|  5>
|  6> %scf
|  7> MaxIter 1000
|  8> end
|  9> %output
| 10>   Print[ P_Mayer ] 1
| 11>   Print[ P_NatPop ] 1
| 12>   Print[ P_Hirshfeld ] 1
| 13>   Print[ P_Mulliken ] 1
| 14>   Print [ P_Loewdin ] 1
| 15> end
| 16>
| 17> * xyz 0 1
| 18>   C                      7.724144             -6.032143            -3.309285
| 19>   O                      7.841854             -6.128180            -4.721289
| 20>   H                      6.889611             -6.159205            -4.885336
| 21>   H                      6.863186             -6.620997            -2.928870
| 22>   H                      8.575960             -6.429634            -2.794604
| 23>   H                      7.598050             -4.964165            -3.096054
| 24> *
| 25>
| 26>                          ****END OF INPUT****

CARTESIAN COORDINATES (ANGSTROEM)
---------------------------------
  C      7.724144   -6.032143   -3.309285
  O      7.841854   -6.128180   -4.721289
  H      6.889611   -6.159205   -4.885336
  H      6.863186   -6.620997   -2.928870
  H      8.575960   -6.429634   -2.794604
  H      7.598050   -4.964165   -3.096054

 Total Charge           Charge          ....    0
 Multiplicity           Mult            ....    1
 Number of Electrons    NEL             ....   18
 Basis Dimension        Dim             ....   86

ORBITAL ENERGIES
----------------

  NO   OCC          E(Eh)            E(eV)
   0   2.0000     -19.231828      -523.3246
   1   2.0000     -10.313465      -280.6437
   2   2.0000      -1.141824       -31.0706
   3   2.0000      -0.789406       -21.4808
   4   2.0000      -0.606139       -16.4939
   5   2.0000      -0.551147       -14.9975
   6   2.0000      -0.522457       -14.2168
   7   2.0000      -0.443692       -12.0735
   8   2.0000      -0.373428       -10.1615
   9   0.0000       0.111505         3.0342
  10   0.0000       0.159141         4.3305
  11   0.0000       0.193284         5.2595
  12   0.0000       0.207199         5.6382
  13   0.0000       0.227034         6.1779

MULLIKEN ATOMIC CHARGES
-----------------------
   0 C :   -0.188010
   1 O :   -0.453859
   2 H :    0.315062
   3 H :    0.100951
   4 H :    0.119656
   5 H :    0.106199
Sum of atomic charges:   -0.0000000

LOEWDIN ATOMIC CHARGES
----------------------
   0 C :   -0.390050
   1 O :   -0.085907
   2 H :    0.179819
   3 H :    0.098392
   4 H :    0.099578
   5 H :    0.098167

  Mayer bond orders larger than 0.1
B(  0-C ,  1-O ) :   1.0001 B(  0-C ,  3-H ) :   0.9829 B(  0-C ,  4-H ) :   0.9723
B(  0-C ,  5-H ) :   0.9796 B(  1-O ,  2-H ) :   0.9046

Dispersion correction           -0.000205051
FINAL SINGLE POINT ENERGY      -115.729305538764

DIPOLE MOMENT
-------------
                                X             Y             Z
Electronic contribution:      0.40402      -0.14336      -1.80754
Nuclear contribution   :     -1.01457       0.14200       2.25195
                        -----------------------------------------
Total Dipole Moment    :     -0.61055      -0.00135       0.44441
                        -----------------------------------------
Magnitude (a.u.)       :      0.75516
Magnitude (Debye)      :      1.91947

Rotational constants in cm-1:     4.161690     0.841803     0.813556
Rotational constants in MHz : 124764.321330 25236.632666 24389.800854

                             ****ORCA TERMINATED NORMALLY****
TOTAL RUN TIME: 0 days 0 hours 0 minutes 41 seconds 177 msec
