                         Program Version 4.1.2  - RELEASE  -
|  1> #Run DFT-D3 single point of the dimer
|  2> ! wB97X-D3 def2-TZVP TIGHTSCF CHELPG PMODEL PAL8
|  3>
|  4> %base "10-33_DFT_AB"
|  5>
|  6> %scf
|  7> MaxIter 1000
|  8> end
|  9>
| 10> * xyz 0 1
| 11>   C                      -0.107336            -6.761295            -6.715591
| 12>   O                      -0.840736            -7.925506            -6.762882
| 13>   H                      -0.625648            -8.537022            -6.098598
| 14>   H                      0.918834             -6.900276            -6.443235
| 15>   H                      -0.136207            -6.196261            -7.628469
| 16>   H                      -0.460480            -6.062073            -5.931819
| 17>   C                      2.052238             -2.423676            -8.966001
| 18>   O                      1.824543             -3.739333            -8.398036
| 19>   H                      1.137843             -3.681050            -7.729025
| 20>   H                      1.261028             -1.726732            -8.568119
| 21>   H                      3.064639             -2.062793            -8.737179
| 22>   H                      2.089660             -2.461131            -10.045646
| 23> *
| 24>
| 25> #Run DFT-D3 single point of the molecule with dimer basis set
| 26> $new_job
| 27> %base "10-33_DFT_A"
| 28> ! wB97X-D3 def2-TZVP TIGHTSCF CHELPG PMODEL
| 29>
| 30> %scf
| 31> MaxIter 1000
| 32> end
| 33>
| 34> * xyz 0 1
| 35>   C                      -0.107336            -6.761295            -6.715591
| 36>   O                      -0.840736            -7.925506            -6.762882
| 37>   H                      -0.625648            -8.537022            -6.098598
| 38>   H                      0.918834             -6.900276            -6.443235
| 39>   H                      -0.136207            -6.196261            -7.628469
| 40>   H                      -0.460480            -6.062073            -5.931819
| 41>   C                    : 2.052238             -2.423676            -8.966001
| 42>   O                    : 1.824543             -3.739333            -8.398036
| 43>   H                    : 1.137843             -3.681050            -7.729025
| 44>   H                    : 1.261028             -1.726732            -8.568119
| 45>   H                    : 3.064639             -2.062793            -8.737179
| 46>   H                    : 2.089660             -2.461131            -10.045646
| 47> *
| 48>
| 49> #Run DFT-D3 single point of the particle with dimer basis set
| 50> $new_job
| 51> %base "10-33_DFT_B"
| 52> ! wB97X-D3 def2-TZVP TIGHTSCF CHELPG PMODEL
| 53>
| 54> %scf
| 55> MaxIter 1000
| 56> end
| 57>
| 58> * xyz 0 1
| 59>   C                    : -0.107336            -6.761295            -6.715591
| 60>   O                    : -0.840736            -7.925506            -6.762882
| 61>   H                    : -0.625648            -8.537022            -6.098598
| 62>   H                    : 0.918834             -6.900276            -6.443235
| 63>   H                    : -0.136207            -6.196261            -7.628469
| 64>   H                    : -0.460480            -6.062073            -5.931819
| 65>   C                      2.052238             -2.423676            -8.966001
| 66>   O                      1.824543             -3.739333            -8.398036
| 67>   H                      1.137843             -3.681050            -7.729025
| 68>   H                      1.261028             -1.726732            -8.568119
| 69>   H                      3.064639             -2.062793            -8.737179
| 70>   H                      2.089660             -2.461131            -10.045646
| 71> *
| 72>
| 73>                          ****END OF INPUT****
 Total Charge           Charge          ....    0
 Multiplicity           Mult            ....    1
 Number of Electrons    NEL             ....   36
Dispersion correction           -0.001139943
FINAL SINGLE POINT ENERGY      -231.465218449667
Dispersion correction           -0.000241885
FINAL SINGLE POINT ENERGY      -115.732577441782

CARTESIAN COORDINATES (ANGSTROEM)
---------------------------------
  C     -0.107336   -6.761295   -6.715591
  O     -0.840736   -7.925506   -6.762882
  H     -0.625648   -8.537022   -6.098598
  H      0.918834   -6.900276   -6.443235
  H     -0.136207   -6.196261   -7.628469
  H     -0.460480   -6.062073   -5.931819
  C      2.052238   -2.423676   -8.966001
  O      1.824543   -3.739333   -8.398036
  H      1.137843   -3.681050   -7.729025
  H      1.261028   -1.726732   -8.568119
  H      3.064639   -2.062793   -8.737179
  H      2.089660   -2.461131  -10.045646

 Multiplicity           Mult            ....    1
 Number of Electrons    NEL             ....   18
 Basis Dimension        Dim             ....  172

ORBITAL ENERGIES
----------------

  NO   OCC          E(Eh)            E(eV)
   0   2.0000     -19.228863      -523.2440
   1   2.0000     -10.320396      -280.8322
   2   2.0000      -1.124100       -30.5883
   3   2.0000      -0.796363       -21.6701
   4   2.0000      -0.601879       -16.3780
   5   2.0000      -0.538086       -14.6421
   6   2.0000      -0.526848       -14.3363
   7   2.0000      -0.433753       -11.8030
   8   2.0000      -0.371698       -10.1144
   9   0.0000       0.081893         2.2284
  10   0.0000       0.117827         3.2062
  11   0.0000       0.147440         4.0121
  12   0.0000       0.182443         4.9645
  13   0.0000       0.192366         5.2345

MULLIKEN ATOMIC CHARGES
-----------------------
   0 C :    0.002059
   1 O :   -0.000033
   2 H :   -0.000002
   3 H :   -0.000325
   4 H :   -0.005187
   5 H :   -0.000104
   6 C :   -0.172227
   7 O :   -0.478266
   8 H :    0.317656
   9 H :    0.108278
  10 H :    0.107868
  11 H :    0.120284
Sum of atomic charges:   -0.0000000

LOEWDIN ATOMIC CHARGES
----------------------
   0 C :   -0.001301
   1 O :   -0.000016
   2 H :   -0.000002
   3 H :   -0.000199
   4 H :   -0.002228
   5 H :   -0.000097
   6 C :   -0.359207
   7 O :   -0.106238
   8 H :    0.165655
   9 H :    0.105576
  10 H :    0.099033
  11 H :    0.099023

  Mayer bond orders larger than 0.1
B(  6-C ,  7-O ) :   1.0069 B(  6-C ,  9-H ) :   0.9850 B(  6-C , 10-H ) :   0.9737
B(  6-C , 11-H ) :   0.9749 B(  7-O ,  8-H ) :   0.8988

Dispersion correction           -0.000264356
FINAL SINGLE POINT ENERGY      -115.731988678691

DIPOLE MOMENT
-------------
                                X             Y             Z
Electronic contribution:     -0.22403      -1.66647       0.59982
Nuclear contribution   :     -0.11255       2.26124      -0.41739
                        -----------------------------------------
Total Dipole Moment    :     -0.33658       0.59477       0.18243
                        -----------------------------------------
Magnitude (a.u.)       :      0.70734
Magnitude (Debye)      :      1.79791

Rotational constants in cm-1:     4.240751     0.801825     0.761262
Rotational constants in MHz : 127134.528067 24038.113460 22822.051363

                             ****ORCA TERMINATED NORMALLY****
TOTAL RUN TIME: 0 days 0 hours 1 minutes 3 seconds 675 msec
