                         Program Version 4.1.2  - RELEASE  -
|  1> #Run DFT-D3 single point of the dimer
|  2> ! wB97X-D3 def2-TZVP TIGHTSCF CHELPG PMODEL PAL8
|  3>
|  4> %base "7-216_DFT_AB"
|  5>
|  6> %scf
|  7> MaxIter 1000
|  8> end
|  9>
| 10> * xyz 0 1
| 11>   C                      -2.313152            2.209491             1.472491
| 12>   O                      -3.409687            1.365567             1.882178
| 13>   H                      -3.929460            1.988193             2.385590
| 14>   H                      -1.861746            1.840108             0.494320
| 15>   H                      -2.520141            3.299756             1.321185
| 16>   H                      -1.539403            2.151524             2.219451
| 17>   C                      -6.765205            1.697143             0.374729
| 18>   O                      -5.553797            1.993042             -0.275726
| 19>   H                      -4.852191            1.883917             0.424422
| 20>   H                      -7.021550            2.335747             1.241367
| 21>   H                      -7.545263            1.932627             -0.311194
| 22>   H                      -6.856817            0.635440             0.722618
| 23> *
| 24>
| 25> #Run DFT-D3 single point of the molecule with dimer basis set
| 26> $new_job
| 27> %base "7-216_DFT_A"
| 28> ! wB97X-D3 def2-TZVP TIGHTSCF CHELPG PMODEL
| 29>
| 30> %scf
| 31> MaxIter 1000
| 32> end
| 33>
| 34> * xyz 0 1
| 35>   C                      -2.313152            2.209491             1.472491
| 36>   O                      -3.409687            1.365567             1.882178
| 37>   H                      -3.929460            1.988193             2.385590
| 38>   H                      -1.861746            1.840108             0.494320
| 39>   H                      -2.520141            3.299756             1.321185
| 40>   H                      -1.539403            2.151524             2.219451
| 41>   C                    : -6.765205            1.697143             0.374729
| 42>   O                    : -5.553797            1.993042             -0.275726
| 43>   H                    : -4.852191            1.883917             0.424422
| 44>   H                    : -7.021550            2.335747             1.241367
| 45>   H                    : -7.545263            1.932627             -0.311194
| 46>   H                    : -6.856817            0.635440             0.722618
| 47> *
| 48>
| 49> #Run DFT-D3 single point of the particle with dimer basis set
| 50> $new_job
| 51> %base "7-216_DFT_B"
| 52> ! wB97X-D3 def2-TZVP TIGHTSCF CHELPG PMODEL
| 53>
| 54> %scf
| 55> MaxIter 1000
| 56> end
| 57>
| 58> * xyz 0 1
| 59>   C                    : -2.313152            2.209491             1.472491
| 60>   O                    : -3.409687            1.365567             1.882178
| 61>   H                    : -3.929460            1.988193             2.385590
| 62>   H                    : -1.861746            1.840108             0.494320
| 63>   H                    : -2.520141            3.299756             1.321185
| 64>   H                    : -1.539403            2.151524             2.219451
| 65>   C                      -6.765205            1.697143             0.374729
| 66>   O                      -5.553797            1.993042             -0.275726
| 67>   H                      -4.852191            1.883917             0.424422
| 68>   H                      -7.021550            2.335747             1.241367
| 69>   H                      -7.545263            1.932627             -0.311194
| 70>   H                      -6.856817            0.635440             0.722618
| 71> *
| 72>
| 73>                          ****END OF INPUT****
 Total Charge           Charge          ....    0
 Multiplicity           Mult            ....    1
 Number of Electrons    NEL             ....   36
Dispersion correction           -0.001783840
FINAL SINGLE POINT ENERGY      -231.471100162964
Dispersion correction           -0.000256277
FINAL SINGLE POINT ENERGY      -115.731566589490

CARTESIAN COORDINATES (ANGSTROEM)
---------------------------------
  C     -2.313152    2.209491    1.472491
  O     -3.409687    1.365567    1.882178
  H     -3.929460    1.988193    2.385590
  H     -1.861746    1.840108    0.494320
  H     -2.520141    3.299756    1.321185
  H     -1.539403    2.151524    2.219451
  C     -6.765205    1.697143    0.374729
  O     -5.553797    1.993042   -0.275726
  H     -4.852191    1.883917    0.424422
  H     -7.021550    2.335747    1.241367
  H     -7.545263    1.932627   -0.311194
  H     -6.856817    0.635440    0.722618

 Multiplicity           Mult            ....    1
 Number of Electrons    NEL             ....   18
 Basis Dimension        Dim             ....  172

ORBITAL ENERGIES
----------------

  NO   OCC          E(Eh)            E(eV)
   0   2.0000     -19.238489      -523.5059
   1   2.0000     -10.312328      -280.6127
   2   2.0000      -1.135659       -30.9029
   3   2.0000      -0.792094       -21.5540
   4   2.0000      -0.609529       -16.5861
   5   2.0000      -0.540406       -14.7052
   6   2.0000      -0.523484       -14.2447
   7   2.0000      -0.437681       -11.9099
   8   2.0000      -0.374949       -10.2029
   9   0.0000       0.068507         1.8642
  10   0.0000       0.127874         3.4796
  11   0.0000       0.154034         4.1915
  12   0.0000       0.172832         4.7030
  13   0.0000       0.187098         5.0912

MULLIKEN ATOMIC CHARGES
-----------------------
   0 C :    0.000740
   1 O :   -0.001191
   2 H :   -0.001534
   3 H :   -0.000226
   4 H :   -0.000923
   5 H :    0.000038
   6 C :   -0.171548
   7 O :   -0.460809
   8 H :    0.312991
   9 H :    0.099406
  10 H :    0.123569
  11 H :    0.099486
Sum of atomic charges:    0.0000000

LOEWDIN ATOMIC CHARGES
----------------------
   0 C :   -0.005683
   1 O :   -0.011759
   2 H :   -0.003397
   3 H :   -0.000302
   4 H :   -0.000639
   5 H :   -0.000086
   6 C :   -0.404068
   7 O :   -0.072488
   8 H :    0.200644
   9 H :    0.095628
  10 H :    0.103352
  11 H :    0.098798

  Mayer bond orders larger than 0.1
B(  6-C ,  7-O ) :   1.0027 B(  6-C ,  9-H ) :   0.9700 B(  6-C , 10-H ) :   0.9756
B(  6-C , 11-H ) :   0.9726 B(  7-O ,  8-H ) :   0.9045

Dispersion correction           -0.000251375
FINAL SINGLE POINT ENERGY      -115.733785865457

DIPOLE MOMENT
-------------
                                X             Y             Z
Electronic contribution:      1.57107       0.39668      -1.02971
Nuclear contribution   :     -1.61751      -0.55295       1.68800
                        -----------------------------------------
Total Dipole Moment    :     -0.04643      -0.15627       0.65829
                        -----------------------------------------
Magnitude (a.u.)       :      0.67817
Magnitude (Debye)      :      1.72378

Rotational constants in cm-1:     4.255198     0.832228     0.802762
Rotational constants in MHz : 127567.623098 24949.560667 24066.186843

                             ****ORCA TERMINATED NORMALLY****
TOTAL RUN TIME: 0 days 0 hours 1 minutes 2 seconds 298 msec
