                         Program Version 4.1.2  - RELEASE  -
|  1> #Run DFT-D3 single point of the dimer
|  2> ! wB97X-D3 def2-TZVP TIGHTSCF CHELPG PMODEL PAL8
|  3>
|  4> %base "11-162_DFT_AB"
|  5>
|  6> %scf
|  7> MaxIter 1000
|  8> end
|  9>
| 10> * xyz 0 1
| 11>   C                      -5.760055            -8.513829            -0.368279
| 12>   O                      -4.328419            -8.570165            -0.232964
| 13>   H                      -3.882338            -8.895393            -1.060434
| 14>   H                      -6.142381            -9.490656            -0.599843
| 15>   H                      -6.286830            -8.176719            0.543374
| 16>   H                      -6.157992            -7.898399            -1.183509
| 17>   C                      -2.958133            -5.910956            1.866469
| 18>   O                      -2.832775            -7.293299            1.854868
| 19>   H                      -3.467590            -7.636709            1.262656
| 20>   H                      -2.945001            -5.442606            0.902511
| 21>   H                      -3.971730            -5.552848            2.280433
| 22>   H                      -2.192545            -5.548036            2.414765
| 23> *
| 24>
| 25> #Run DFT-D3 single point of the molecule with dimer basis set
| 26> $new_job
| 27> %base "11-162_DFT_A"
| 28> ! wB97X-D3 def2-TZVP TIGHTSCF CHELPG PMODEL
| 29>
| 30> %scf
| 31> MaxIter 1000
| 32> end
| 33>
| 34> * xyz 0 1
| 35>   C                      -5.760055            -8.513829            -0.368279
| 36>   O                      -4.328419            -8.570165            -0.232964
| 37>   H                      -3.882338            -8.895393            -1.060434
| 38>   H                      -6.142381            -9.490656            -0.599843
| 39>   H                      -6.286830            -8.176719            0.543374
| 40>   H                      -6.157992            -7.898399            -1.183509
| 41>   C                    : -2.958133            -5.910956            1.866469
| 42>   O                    : -2.832775            -7.293299            1.854868
| 43>   H                    : -3.467590            -7.636709            1.262656
| 44>   H                    : -2.945001            -5.442606            0.902511
| 45>   H                    : -3.971730            -5.552848            2.280433
| 46>   H                    : -2.192545            -5.548036            2.414765
| 47> *
| 48>
| 49> #Run DFT-D3 single point of the particle with dimer basis set
| 50> $new_job
| 51> %base "11-162_DFT_B"
| 52> ! wB97X-D3 def2-TZVP TIGHTSCF CHELPG PMODEL
| 53>
| 54> %scf
| 55> MaxIter 1000
| 56> end
| 57>
| 58> * xyz 0 1
| 59>   C                    : -5.760055            -8.513829            -0.368279
| 60>   O                    : -4.328419            -8.570165            -0.232964
| 61>   H                    : -3.882338            -8.895393            -1.060434
| 62>   H                    : -6.142381            -9.490656            -0.599843
| 63>   H                    : -6.286830            -8.176719            0.543374
| 64>   H                    : -6.157992            -7.898399            -1.183509
| 65>   C                      -2.958133            -5.910956            1.866469
| 66>   O                      -2.832775            -7.293299            1.854868
| 67>   H                      -3.467590            -7.636709            1.262656
| 68>   H                      -2.945001            -5.442606            0.902511
| 69>   H                      -3.971730            -5.552848            2.280433
| 70>   H                      -2.192545            -5.548036            2.414765
| 71> *
| 72>
| 73>                          ****END OF INPUT****
 Total Charge           Charge          ....    0
 Multiplicity           Mult            ....    1
 Number of Electrons    NEL             ....   36
Dispersion correction           -0.001666743
FINAL SINGLE POINT ENERGY      -231.468410696725
Dispersion correction           -0.000276317
FINAL SINGLE POINT ENERGY      -115.731465564637

CARTESIAN COORDINATES (ANGSTROEM)
---------------------------------
  C     -5.760055   -8.513829   -0.368279
  O     -4.328419   -8.570165   -0.232964
  H     -3.882338   -8.895393   -1.060434
  H     -6.142381   -9.490656   -0.599843
  H     -6.286830   -8.176719    0.543374
  H     -6.157992   -7.898399   -1.183509
  C     -2.958133   -5.910956    1.866469
  O     -2.832775   -7.293299    1.854868
  H     -3.467590   -7.636709    1.262656
  H     -2.945001   -5.442606    0.902511
  H     -3.971730   -5.552848    2.280433
  H     -2.192545   -5.548036    2.414765

 Multiplicity           Mult            ....    1
 Number of Electrons    NEL             ....   18
 Basis Dimension        Dim             ....  172

ORBITAL ENERGIES
----------------

  NO   OCC          E(Eh)            E(eV)
   0   2.0000     -19.230210      -523.2806
   1   2.0000     -10.305425      -280.4249
   2   2.0000      -1.151073       -31.3223
   3   2.0000      -0.804125       -21.8813
   4   2.0000      -0.624718       -16.9994
   5   2.0000      -0.541616       -14.7381
   6   2.0000      -0.531756       -14.4698
   7   2.0000      -0.444372       -12.0920
   8   2.0000      -0.370897       -10.0926
   9   0.0000       0.068762         1.8711
  10   0.0000       0.134426         3.6579
  11   0.0000       0.148445         4.0394
  12   0.0000       0.164927         4.4879
  13   0.0000       0.192731         5.2445

MULLIKEN ATOMIC CHARGES
-----------------------
   0 C :   -0.001021
   1 O :   -0.003447
   2 H :   -0.000373
   3 H :   -0.000063
   4 H :   -0.000317
   5 H :    0.000018
   6 C :   -0.159731
   7 O :   -0.453987
   8 H :    0.306983
   9 H :    0.099777
  10 H :    0.083741
  11 H :    0.128421
Sum of atomic charges:   -0.0000000

LOEWDIN ATOMIC CHARGES
----------------------
   0 C :   -0.003260
   1 O :   -0.018541
   2 H :   -0.001145
   3 H :   -0.000078
   4 H :   -0.000429
   5 H :   -0.000043
   6 C :   -0.392152
   7 O :   -0.026644
   8 H :    0.161388
   9 H :    0.090348
  10 H :    0.101471
  11 H :    0.089085

  Mayer bond orders larger than 0.1
B(  6-C ,  7-O ) :   1.0003 B(  6-C ,  9-H ) :   0.9711 B(  6-C , 10-H ) :   0.9778
B(  6-C , 11-H ) :   0.9786 B(  7-O ,  8-H ) :   0.9145

Dispersion correction           -0.000228277
FINAL SINGLE POINT ENERGY      -115.729168073516

DIPOLE MOMENT
-------------
                                X             Y             Z
Electronic contribution:      0.43066      -1.83361       0.08173
Nuclear contribution   :     -0.84406       2.14032      -0.47466
                        -----------------------------------------
Total Dipole Moment    :     -0.41340       0.30671      -0.39293
                        -----------------------------------------
Magnitude (a.u.)       :      0.64758
Magnitude (Debye)      :      1.64603

Rotational constants in cm-1:     4.487101     0.858477     0.826950
Rotational constants in MHz : 134519.914412 25736.482950 24791.324195

                             ****ORCA TERMINATED NORMALLY****
TOTAL RUN TIME: 0 days 0 hours 1 minutes 11 seconds 932 msec
