                         Program Version 4.1.2  - RELEASE  -
|  1> #Run DFT-D3 single point of the dimer
|  2> ! wB97X-D3 def2-TZVP TIGHTSCF CHELPG PMODEL PAL8
|  3>
|  4> %base "20-87_DFT_AB"
|  5>
|  6> %scf
|  7> MaxIter 1000
|  8> end
|  9>
| 10> * xyz 0 1
| 11>   C                      -2.839955            -3.953407            -0.078150
| 12>   O                      -2.008247            -2.946951            0.371114
| 13>   H                      -2.187683            -2.219467            -0.178250
| 14>   H                      -3.058394            -3.772306            -1.120352
| 15>   H                      -2.431864            -4.948480            0.016022
| 16>   H                      -3.792097            -3.920621            0.402216
| 17>   C                      -5.187840            -5.626479            3.601586
| 18>   O                      -4.440785            -4.681219            2.812045
| 19>   H                      -3.502146            -4.902189            2.922035
| 20>   H                      -4.747590            -5.765776            4.629819
| 21>   H                      -6.267407            -5.338771            3.654883
| 22>   H                      -5.067076            -6.568381            3.197691
| 23> *
| 24>
| 25> #Run DFT-D3 single point of the molecule with dimer basis set
| 26> $new_job
| 27> %base "20-87_DFT_A"
| 28> ! wB97X-D3 def2-TZVP TIGHTSCF CHELPG PMODEL
| 29>
| 30> %scf
| 31> MaxIter 1000
| 32> end
| 33>
| 34> * xyz 0 1
| 35>   C                      -2.839955            -3.953407            -0.078150
| 36>   O                      -2.008247            -2.946951            0.371114
| 37>   H                      -2.187683            -2.219467            -0.178250
| 38>   H                      -3.058394            -3.772306            -1.120352
| 39>   H                      -2.431864            -4.948480            0.016022
| 40>   H                      -3.792097            -3.920621            0.402216
| 41>   C                    : -5.187840            -5.626479            3.601586
| 42>   O                    : -4.440785            -4.681219            2.812045
| 43>   H                    : -3.502146            -4.902189            2.922035
| 44>   H                    : -4.747590            -5.765776            4.629819
| 45>   H                    : -6.267407            -5.338771            3.654883
| 46>   H                    : -5.067076            -6.568381            3.197691
| 47> *
| 48>
| 49> #Run DFT-D3 single point of the particle with dimer basis set
| 50> $new_job
| 51> %base "20-87_DFT_B"
| 52> ! wB97X-D3 def2-TZVP TIGHTSCF CHELPG PMODEL
| 53>
| 54> %scf
| 55> MaxIter 1000
| 56> end
| 57>
| 58> * xyz 0 1
| 59>   C                    : -2.839955            -3.953407            -0.078150
| 60>   O                    : -2.008247            -2.946951            0.371114
| 61>   H                    : -2.187683            -2.219467            -0.178250
| 62>   H                    : -3.058394            -3.772306            -1.120352
| 63>   H                    : -2.431864            -4.948480            0.016022
| 64>   H                    : -3.792097            -3.920621            0.402216
| 65>   C                      -5.187840            -5.626479            3.601586
| 66>   O                      -4.440785            -4.681219            2.812045
| 67>   H                      -3.502146            -4.902189            2.922035
| 68>   H                      -4.747590            -5.765776            4.629819
| 69>   H                      -6.267407            -5.338771            3.654883
| 70>   H                      -5.067076            -6.568381            3.197691
| 71> *
| 72>
| 73>                          ****END OF INPUT****
 Total Charge           Charge          ....    0
 Multiplicity           Mult            ....    1
 Number of Electrons    NEL             ....   36
Dispersion correction           -0.001455728
FINAL SINGLE POINT ENERGY      -231.464091757394
Dispersion correction           -0.000207890
FINAL SINGLE POINT ENERGY      -115.731778617938

CARTESIAN COORDINATES (ANGSTROEM)
---------------------------------
  C     -2.839955   -3.953407   -0.078150
  O     -2.008247   -2.946951    0.371114
  H     -2.187683   -2.219467   -0.178250
  H     -3.058394   -3.772306   -1.120352
  H     -2.431864   -4.948480    0.016022
  H     -3.792097   -3.920621    0.402216
  C     -5.187840   -5.626479    3.601586
  O     -4.440785   -4.681219    2.812045
  H     -3.502146   -4.902189    2.922035
  H     -4.747590   -5.765776    4.629819
  H     -6.267407   -5.338771    3.654883
  H     -5.067076   -6.568381    3.197691

 Multiplicity           Mult            ....    1
 Number of Electrons    NEL             ....   18
 Basis Dimension        Dim             ....  172

ORBITAL ENERGIES
----------------

  NO   OCC          E(Eh)            E(eV)
   0   2.0000     -19.231220      -523.3081
   1   2.0000     -10.314959      -280.6843
   2   2.0000      -1.127152       -30.6714
   3   2.0000      -0.796609       -21.6768
   4   2.0000      -0.609002       -16.5718
   5   2.0000      -0.536061       -14.5870
   6   2.0000      -0.523358       -14.2413
   7   2.0000      -0.440503       -11.9867
   8   2.0000      -0.371923       -10.1205
   9   0.0000       0.090228         2.4552
  10   0.0000       0.122343         3.3291
  11   0.0000       0.152841         4.1590
  12   0.0000       0.177037         4.8174
  13   0.0000       0.192461         5.2371

MULLIKEN ATOMIC CHARGES
-----------------------
   0 C :   -0.000953
   1 O :   -0.000059
   2 H :   -0.000051
   3 H :   -0.000661
   4 H :   -0.000829
   5 H :   -0.006849
   6 C :   -0.180421
   7 O :   -0.467712
   8 H :    0.315723
   9 H :    0.098472
  10 H :    0.127546
  11 H :    0.115793
Sum of atomic charges:   -0.0000000

LOEWDIN ATOMIC CHARGES
----------------------
   0 C :   -0.007968
   1 O :   -0.000065
   2 H :   -0.000013
   3 H :   -0.000059
   4 H :   -0.000798
   5 H :   -0.009571
   6 C :   -0.365528
   7 O :   -0.088700
   8 H :    0.174945
   9 H :    0.101119
  10 H :    0.116021
  11 H :    0.080617

  Mayer bond orders larger than 0.1
B(  6-C ,  7-O ) :   0.9885 B(  6-C ,  9-H ) :   0.9750 B(  6-C , 10-H ) :   0.9718
B(  6-C , 11-H ) :   0.9760 B(  7-O ,  8-H ) :   0.8964

Dispersion correction           -0.000239362
FINAL SINGLE POINT ENERGY      -115.730795146417

DIPOLE MOMENT
-------------
                                X             Y             Z
Electronic contribution:      0.71612       1.26544      -1.07868
Nuclear contribution   :     -0.43763      -1.82093       1.47201
                        -----------------------------------------
Total Dipole Moment    :      0.27849      -0.55548       0.39332
                        -----------------------------------------
Magnitude (a.u.)       :      0.73541
Magnitude (Debye)      :      1.86926

Rotational constants in cm-1:     4.264330     0.815477     0.771448
Rotational constants in MHz : 127841.382893 24447.383236 23127.422130

                             ****ORCA TERMINATED NORMALLY****
TOTAL RUN TIME: 0 days 0 hours 0 minutes 58 seconds 875 msec
