                         Program Version 4.1.2  - RELEASE  -
|  1> #Run DFT-D3 single point of the dimer
|  2> ! wB97X-D3 def2-TZVP TIGHTSCF CHELPG PMODEL PAL8
|  3>
|  4> %base "20-150_DFT_AB"
|  5>
|  6> %scf
|  7> MaxIter 1000
|  8> end
|  9>
| 10> * xyz 0 1
| 11>   C                      8.338665             -5.466422            7.264269
| 12>   O                      9.675011             -5.533234            7.796910
| 13>   H                      10.091754            -6.202308            7.263621
| 14>   H                      7.825557             -6.392799            7.377399
| 15>   H                      7.740624             -4.840618            7.877893
| 16>   H                      8.060300             -5.156455            6.205642
| 17>   C                      8.634688             -5.268934            11.587748
| 18>   O                      9.217806             -4.402397            10.598828
| 19>   H                      9.336167             -5.022159            9.761521
| 20>   H                      8.340984             -4.738358            12.480780
| 21>   H                      7.631109             -5.722182            11.245005
| 22>   H                      9.297304             -6.075081            11.703729
| 23> *
| 24>
| 25> #Run DFT-D3 single point of the molecule with dimer basis set
| 26> $new_job
| 27> %base "20-150_DFT_A"
| 28> ! wB97X-D3 def2-TZVP TIGHTSCF CHELPG PMODEL
| 29>
| 30> %scf
| 31> MaxIter 1000
| 32> end
| 33>
| 34> * xyz 0 1
| 35>   C                      8.338665             -5.466422            7.264269
| 36>   O                      9.675011             -5.533234            7.796910
| 37>   H                      10.091754            -6.202308            7.263621
| 38>   H                      7.825557             -6.392799            7.377399
| 39>   H                      7.740624             -4.840618            7.877893
| 40>   H                      8.060300             -5.156455            6.205642
| 41>   C                    : 8.634688             -5.268934            11.587748
| 42>   O                    : 9.217806             -4.402397            10.598828
| 43>   H                    : 9.336167             -5.022159            9.761521
| 44>   H                    : 8.340984             -4.738358            12.480780
| 45>   H                    : 7.631109             -5.722182            11.245005
| 46>   H                    : 9.297304             -6.075081            11.703729
| 47> *
| 48>
| 49> #Run DFT-D3 single point of the particle with dimer basis set
| 50> $new_job
| 51> %base "20-150_DFT_B"
| 52> ! wB97X-D3 def2-TZVP TIGHTSCF CHELPG PMODEL
| 53>
| 54> %scf
| 55> MaxIter 1000
| 56> end
| 57>
| 58> * xyz 0 1
| 59>   C                    : 8.338665             -5.466422            7.264269
| 60>   O                    : 9.675011             -5.533234            7.796910
| 61>   H                    : 10.091754            -6.202308            7.263621
| 62>   H                    : 7.825557             -6.392799            7.377399
| 63>   H                    : 7.740624             -4.840618            7.877893
| 64>   H                    : 8.060300             -5.156455            6.205642
| 65>   C                      8.634688             -5.268934            11.587748
| 66>   O                      9.217806             -4.402397            10.598828
| 67>   H                      9.336167             -5.022159            9.761521
| 68>   H                      8.340984             -4.738358            12.480780
| 69>   H                      7.631109             -5.722182            11.245005
| 70>   H                      9.297304             -6.075081            11.703729
| 71> *
| 72>
| 73>                          ****END OF INPUT****
 Total Charge           Charge          ....    0
 Multiplicity           Mult            ....    1
 Number of Electrons    NEL             ....   36
Dispersion correction           -0.001765245
FINAL SINGLE POINT ENERGY      -231.457709945600
Dispersion correction           -0.000280649
FINAL SINGLE POINT ENERGY      -115.726594911443

CARTESIAN COORDINATES (ANGSTROEM)
---------------------------------
  C      8.338665   -5.466422    7.264269
  O      9.675011   -5.533234    7.796910
  H     10.091754   -6.202308    7.263621
  H      7.825557   -6.392799    7.377399
  H      7.740624   -4.840618    7.877893
  H      8.060300   -5.156455    6.205642
  C      8.634688   -5.268934   11.587748
  O      9.217806   -4.402397   10.598828
  H      9.336167   -5.022159    9.761521
  H      8.340984   -4.738358   12.480780
  H      7.631109   -5.722182   11.245005
  H      9.297304   -6.075081   11.703729

 Multiplicity           Mult            ....    1
 Number of Electrons    NEL             ....   18
 Basis Dimension        Dim             ....  172

ORBITAL ENERGIES
----------------

  NO   OCC          E(Eh)            E(eV)
   0   2.0000     -19.239078      -523.5219
   1   2.0000     -10.315220      -280.6914
   2   2.0000      -1.117119       -30.3984
   3   2.0000      -0.788978       -21.4692
   4   2.0000      -0.597205       -16.2508
   5   2.0000      -0.547901       -14.9092
   6   2.0000      -0.515669       -14.0321
   7   2.0000      -0.437160       -11.8957
   8   2.0000      -0.370179       -10.0731
   9   0.0000       0.066329         1.8049
  10   0.0000       0.130428         3.5491
  11   0.0000       0.143510         3.9051
  12   0.0000       0.162302         4.4165
  13   0.0000       0.192799         5.2463

MULLIKEN ATOMIC CHARGES
-----------------------
   0 C :   -0.003349
   1 O :    0.001801
   2 H :    0.000122
   3 H :    0.000466
   4 H :   -0.004474
   5 H :   -0.000405
   6 C :   -0.170991
   7 O :   -0.467670
   8 H :    0.311789
   9 H :    0.128476
  10 H :    0.089718
  11 H :    0.114518
Sum of atomic charges:    0.0000000

LOEWDIN ATOMIC CHARGES
----------------------
   0 C :   -0.007684
   1 O :   -0.014420
   2 H :   -0.000703
   3 H :   -0.000161
   4 H :   -0.003314
   5 H :   -0.000122
   6 C :   -0.375816
   7 O :   -0.119315
   8 H :    0.227559
   9 H :    0.105674
  10 H :    0.101740
  11 H :    0.086561

  Mayer bond orders larger than 0.1
B(  6-C ,  7-O ) :   0.9948 B(  6-C ,  9-H ) :   0.9693 B(  6-C , 10-H ) :   0.9712
B(  6-C , 11-H ) :   0.9851 B(  7-O ,  8-H ) :   0.8962

Dispersion correction           -0.000239343
FINAL SINGLE POINT ENERGY      -115.723898239490

DIPOLE MOMENT
-------------
                                X             Y             Z
Electronic contribution:      0.88100       1.30815      -0.96839
Nuclear contribution   :     -1.03355      -2.01239       0.89493
                        -----------------------------------------
Total Dipole Moment    :     -0.15255      -0.70424      -0.07346
                        -----------------------------------------
Magnitude (a.u.)       :      0.72431
Magnitude (Debye)      :      1.84104

Rotational constants in cm-1:     4.097397     0.812741     0.775648
Rotational constants in MHz : 122836.859598 24365.372615 23253.339201

                             ****ORCA TERMINATED NORMALLY****
TOTAL RUN TIME: 0 days 0 hours 1 minutes 8 seconds 847 msec
