                         Program Version 4.1.2  - RELEASE  -
|  1> #Run DFT-D3 single point of the dimer
|  2> ! wB97X-D3 def2-TZVP TIGHTSCF CHELPG PMODEL PAL8
|  3>
|  4> %base "3-137_DFT_AB"
|  5>
|  6> %scf
|  7> MaxIter 1000
|  8> end
|  9>
| 10> * xyz 0 1
| 11>   C                      -7.916342            -6.777899            -3.497241
| 12>   O                      -8.592063            -7.645050            -2.610539
| 13>   H                      -8.289805            -7.563570            -1.732779
| 14>   H                      -6.857783            -7.080269            -3.642114
| 15>   H                      -8.305381            -6.748343            -4.490312
| 16>   H                      -8.036397            -5.738256            -3.130291
| 17>   C                      -2.793664            -8.134331            -3.088028
| 18>   O                      -3.895256            -7.291389            -3.248590
| 19>   H                      -4.031382            -6.886609            -2.384556
| 20>   H                      -2.518803            -8.453922            -4.049778
| 21>   H                      -2.005301            -7.562429            -2.620502
| 22>   H                      -2.992806            -9.027853            -2.518333
| 23> *
| 24>
| 25> #Run DFT-D3 single point of the molecule with dimer basis set
| 26> $new_job
| 27> %base "3-137_DFT_A"
| 28> ! wB97X-D3 def2-TZVP TIGHTSCF CHELPG PMODEL
| 29>
| 30> %scf
| 31> MaxIter 1000
| 32> end
| 33>
| 34> * xyz 0 1
| 35>   C                      -7.916342            -6.777899            -3.497241
| 36>   O                      -8.592063            -7.645050            -2.610539
| 37>   H                      -8.289805            -7.563570            -1.732779
| 38>   H                      -6.857783            -7.080269            -3.642114
| 39>   H                      -8.305381            -6.748343            -4.490312
| 40>   H                      -8.036397            -5.738256            -3.130291
| 41>   C                    : -2.793664            -8.134331            -3.088028
| 42>   O                    : -3.895256            -7.291389            -3.248590
| 43>   H                    : -4.031382            -6.886609            -2.384556
| 44>   H                    : -2.518803            -8.453922            -4.049778
| 45>   H                    : -2.005301            -7.562429            -2.620502
| 46>   H                    : -2.992806            -9.027853            -2.518333
| 47> *
| 48>
| 49> #Run DFT-D3 single point of the particle with dimer basis set
| 50> $new_job
| 51> %base "3-137_DFT_B"
| 52> ! wB97X-D3 def2-TZVP TIGHTSCF CHELPG PMODEL
| 53>
| 54> %scf
| 55> MaxIter 1000
| 56> end
| 57>
| 58> * xyz 0 1
| 59>   C                    : -7.916342            -6.777899            -3.497241
| 60>   O                    : -8.592063            -7.645050            -2.610539
| 61>   H                    : -8.289805            -7.563570            -1.732779
| 62>   H                    : -6.857783            -7.080269            -3.642114
| 63>   H                    : -8.305381            -6.748343            -4.490312
| 64>   H                    : -8.036397            -5.738256            -3.130291
| 65>   C                      -2.793664            -8.134331            -3.088028
| 66>   O                      -3.895256            -7.291389            -3.248590
| 67>   H                      -4.031382            -6.886609            -2.384556
| 68>   H                      -2.518803            -8.453922            -4.049778
| 69>   H                      -2.005301            -7.562429            -2.620502
| 70>   H                      -2.992806            -9.027853            -2.518333
| 71> *
| 72>
| 73>                          ****END OF INPUT****
 Total Charge           Charge          ....    0
 Multiplicity           Mult            ....    1
 Number of Electrons    NEL             ....   36
Dispersion correction           -0.001019383
FINAL SINGLE POINT ENERGY      -231.467743024222
Dispersion correction           -0.000249556
FINAL SINGLE POINT ENERGY      -115.732297006132

CARTESIAN COORDINATES (ANGSTROEM)
---------------------------------
  C     -7.916342   -6.777899   -3.497241
  O     -8.592063   -7.645050   -2.610539
  H     -8.289805   -7.563570   -1.732779
  H     -6.857783   -7.080269   -3.642114
  H     -8.305381   -6.748343   -4.490312
  H     -8.036397   -5.738256   -3.130291
  C     -2.793664   -8.134331   -3.088028
  O     -3.895256   -7.291389   -3.248590
  H     -4.031382   -6.886609   -2.384556
  H     -2.518803   -8.453922   -4.049778
  H     -2.005301   -7.562429   -2.620502
  H     -2.992806   -9.027853   -2.518333

 Multiplicity           Mult            ....    1
 Number of Electrons    NEL             ....   18
 Basis Dimension        Dim             ....  172

ORBITAL ENERGIES
----------------

  NO   OCC          E(Eh)            E(eV)
   0   2.0000     -19.229288      -523.2555
   1   2.0000     -10.302862      -280.3551
   2   2.0000      -1.142505       -31.0891
   3   2.0000      -0.798172       -21.7194
   4   2.0000      -0.614017       -16.7082
   5   2.0000      -0.550119       -14.9695
   6   2.0000      -0.530156       -14.4263
   7   2.0000      -0.437887       -11.9155
   8   2.0000      -0.372681       -10.1412
   9   0.0000       0.091356         2.4859
  10   0.0000       0.120261         3.2725
  11   0.0000       0.160540         4.3685
  12   0.0000       0.169806         4.6207
  13   0.0000       0.201619         5.4863

MULLIKEN ATOMIC CHARGES
-----------------------
   0 C :    0.002094
   1 O :    0.000091
   2 H :   -0.000033
   3 H :   -0.007667
   4 H :   -0.000225
   5 H :   -0.000036
   6 C :   -0.146311
   7 O :   -0.464786
   8 H :    0.313232
   9 H :    0.111284
  10 H :    0.096881
  11 H :    0.095475
Sum of atomic charges:   -0.0000000

LOEWDIN ATOMIC CHARGES
----------------------
   0 C :   -0.001223
   1 O :   -0.000019
   2 H :   -0.000020
   3 H :   -0.005161
   4 H :   -0.000011
   5 H :   -0.000011
   6 C :   -0.388128
   7 O :   -0.062034
   8 H :    0.173040
   9 H :    0.098976
  10 H :    0.094095
  11 H :    0.090495

  Mayer bond orders larger than 0.1
B(  6-C ,  7-O ) :   0.9982 B(  6-C ,  9-H ) :   0.9801 B(  6-C , 10-H ) :   0.9848
B(  6-C , 11-H ) :   0.9710 B(  7-O ,  8-H ) :   0.9005

Dispersion correction           -0.000210277
FINAL SINGLE POINT ENERGY      -115.734516162699

DIPOLE MOMENT
-------------
                                X             Y             Z
Electronic contribution:     -1.39175       0.99972      -0.34906
Nuclear contribution   :      1.74973      -1.07611       0.93813
                        -----------------------------------------
Total Dipole Moment    :      0.35798      -0.07639       0.58907
                        -----------------------------------------
Magnitude (a.u.)       :      0.69353
Magnitude (Debye)      :      1.76282

Rotational constants in cm-1:     4.370253     0.862985     0.829839
Rotational constants in MHz : 131016.895619 25871.641449 24877.950052

                             ****ORCA TERMINATED NORMALLY****
TOTAL RUN TIME: 0 days 0 hours 5 minutes 50 seconds 400 msec
