                         Program Version 4.1.2  - RELEASE  -
|  1> #Run DFT-D3 single point of the dimer
|  2> ! wB97X-D3 def2-TZVP TIGHTSCF CHELPG PMODEL PAL8
|  3>
|  4> %base "17-137_DFT_AB"
|  5>
|  6> %scf
|  7> MaxIter 1000
|  8> end
|  9>
| 10> * xyz 0 1
| 11>   C                      -10.389428           -5.668474            0.886552
| 12>   O                      -9.427594            -5.129751            -0.008684
| 13>   H                      -8.619964            -5.665520            0.023088
| 14>   H                      -11.126881           -4.947132            1.176537
| 15>   H                      -10.780607           -6.594603            0.450729
| 16>   H                      -9.779254            -5.947587            1.825181
| 17>   C                      -5.806224            -7.343673            -0.405373
| 18>   O                      -6.798770            -6.609270            0.234810
| 19>   H                      -7.044524            -7.136931            0.983341
| 20>   H                      -5.128321            -7.722086            0.349345
| 21>   H                      -6.127042            -8.151048            -0.959240
| 22>   H                      -5.253298            -6.661296            -0.932409
| 23> *
| 24>
| 25> #Run DFT-D3 single point of the molecule with dimer basis set
| 26> $new_job
| 27> %base "17-137_DFT_A"
| 28> ! wB97X-D3 def2-TZVP TIGHTSCF CHELPG PMODEL
| 29>
| 30> %scf
| 31> MaxIter 1000
| 32> end
| 33>
| 34> * xyz 0 1
| 35>   C                      -10.389428           -5.668474            0.886552
| 36>   O                      -9.427594            -5.129751            -0.008684
| 37>   H                      -8.619964            -5.665520            0.023088
| 38>   H                      -11.126881           -4.947132            1.176537
| 39>   H                      -10.780607           -6.594603            0.450729
| 40>   H                      -9.779254            -5.947587            1.825181
| 41>   C                    : -5.806224            -7.343673            -0.405373
| 42>   O                    : -6.798770            -6.609270            0.234810
| 43>   H                    : -7.044524            -7.136931            0.983341
| 44>   H                    : -5.128321            -7.722086            0.349345
| 45>   H                    : -6.127042            -8.151048            -0.959240
| 46>   H                    : -5.253298            -6.661296            -0.932409
| 47> *
| 48>
| 49> #Run DFT-D3 single point of the particle with dimer basis set
| 50> $new_job
| 51> %base "17-137_DFT_B"
| 52> ! wB97X-D3 def2-TZVP TIGHTSCF CHELPG PMODEL
| 53>
| 54> %scf
| 55> MaxIter 1000
| 56> end
| 57>
| 58> * xyz 0 1
| 59>   C                    : -10.389428           -5.668474            0.886552
| 60>   O                    : -9.427594            -5.129751            -0.008684
| 61>   H                    : -8.619964            -5.665520            0.023088
| 62>   H                    : -11.126881           -4.947132            1.176537
| 63>   H                    : -10.780607           -6.594603            0.450729
| 64>   H                    : -9.779254            -5.947587            1.825181
| 65>   C                      -5.806224            -7.343673            -0.405373
| 66>   O                      -6.798770            -6.609270            0.234810
| 67>   H                      -7.044524            -7.136931            0.983341
| 68>   H                      -5.128321            -7.722086            0.349345
| 69>   H                      -6.127042            -8.151048            -0.959240
| 70>   H                      -5.253298            -6.661296            -0.932409
| 71> *
| 72>
| 73>                          ****END OF INPUT****
 Total Charge           Charge          ....    0
 Multiplicity           Mult            ....    1
 Number of Electrons    NEL             ....   36
Dispersion correction           -0.001459333
FINAL SINGLE POINT ENERGY      -231.465888023967
Dispersion correction           -0.000226562
FINAL SINGLE POINT ENERGY      -115.731183406248

CARTESIAN COORDINATES (ANGSTROEM)
---------------------------------
  C    -10.389428   -5.668474    0.886552
  O     -9.427594   -5.129751   -0.008684
  H     -8.619964   -5.665520    0.023088
  H    -11.126881   -4.947132    1.176537
  H    -10.780607   -6.594603    0.450729
  H     -9.779254   -5.947587    1.825181
  C     -5.806224   -7.343673   -0.405373
  O     -6.798770   -6.609270    0.234810
  H     -7.044524   -7.136931    0.983341
  H     -5.128321   -7.722086    0.349345
  H     -6.127042   -8.151048   -0.959240
  H     -5.253298   -6.661296   -0.932409

 Multiplicity           Mult            ....    1
 Number of Electrons    NEL             ....   18
 Basis Dimension        Dim             ....  172

ORBITAL ENERGIES
----------------

  NO   OCC          E(Eh)            E(eV)
   0   2.0000     -19.227559      -523.2085
   1   2.0000     -10.294455      -280.1264
   2   2.0000      -1.147425       -31.2230
   3   2.0000      -0.805486       -21.9184
   4   2.0000      -0.620461       -16.8836
   5   2.0000      -0.557048       -15.1580
   6   2.0000      -0.530918       -14.4470
   7   2.0000      -0.437607       -11.9079
   8   2.0000      -0.375139       -10.2081
   9   0.0000       0.092898         2.5279
  10   0.0000       0.125955         3.4274
  11   0.0000       0.162740         4.4284
  12   0.0000       0.187913         5.1134
  13   0.0000       0.203181         5.5288

MULLIKEN ATOMIC CHARGES
-----------------------
   0 C :   -0.001275
   1 O :    0.001509
   2 H :   -0.013147
   3 H :   -0.000211
   4 H :    0.000158
   5 H :   -0.000220
   6 C :   -0.153490
   7 O :   -0.461165
   8 H :    0.312411
   9 H :    0.092332
  10 H :    0.104654
  11 H :    0.118445
Sum of atomic charges:    0.0000000

LOEWDIN ATOMIC CHARGES
----------------------
   0 C :   -0.001720
   1 O :   -0.003244
   2 H :   -0.034351
   3 H :   -0.000042
   4 H :   -0.000098
   5 H :   -0.000380
   6 C :   -0.379512
   7 O :   -0.021633
   8 H :    0.166288
   9 H :    0.097867
  10 H :    0.081611
  11 H :    0.095214

  Mayer bond orders larger than 0.1
B(  6-C ,  7-O ) :   0.9919 B(  6-C ,  9-H ) :   0.9866 B(  6-C , 10-H ) :   0.9698
B(  6-C , 11-H ) :   0.9838 B(  7-O ,  8-H ) :   0.9026

Dispersion correction           -0.000196337
FINAL SINGLE POINT ENERGY      -115.728264449320

DIPOLE MOMENT
-------------
                                X             Y             Z
Electronic contribution:     -1.32160       0.99437       0.55393
Nuclear contribution   :      1.58338      -1.61384      -0.32391
                        -----------------------------------------
Total Dipole Moment    :      0.26178      -0.61946       0.23002
                        -----------------------------------------
Magnitude (a.u.)       :      0.71075
Magnitude (Debye)      :      1.80659

Rotational constants in cm-1:     4.562545     0.873413     0.842573
Rotational constants in MHz : 136781.669223 26184.273336 25259.714268

                             ****ORCA TERMINATED NORMALLY****
TOTAL RUN TIME: 0 days 0 hours 1 minutes 12 seconds 187 msec
