                         Program Version 4.1.2  - RELEASE  -
|  1> #Run DFT-D3 single point of the dimer
|  2> ! wB97X-D3 def2-TZVP TIGHTSCF CHELPG PMODEL PAL8
|  3>
|  4> %base "8-0_DFT_AB"
|  5>
|  6> %scf
|  7> MaxIter 1000
|  8> end
|  9>
| 10> * xyz 0 1
| 11>   C                      3.233414             -3.571402            3.480505
| 12>   O                      2.255676             -2.570167            3.219103
| 13>   H                      1.566001             -2.787145            3.844910
| 14>   H                      2.766447             -4.558397            3.518261
| 15>   H                      4.083400             -3.498807            2.869667
| 16>   H                      3.649298             -3.340378            4.517966
| 17>   C                      1.242681             -1.490844            -1.242399
| 18>   O                      2.017750             -2.223303            -0.392427
| 19>   H                      2.854270             -2.385998            -0.915143
| 20>   H                      0.235646             -1.382705            -0.890573
| 21>   H                      1.563453             -0.460555            -1.422829
| 22>   H                      1.015853             -1.921014            -2.215583
| 23> *
| 24>
| 25> #Run DFT-D3 single point of the molecule with dimer basis set
| 26> $new_job
| 27> %base "8-0_DFT_A"
| 28> ! wB97X-D3 def2-TZVP TIGHTSCF CHELPG PMODEL
| 29>
| 30> %scf
| 31> MaxIter 1000
| 32> end
| 33>
| 34> * xyz 0 1
| 35>   C                      3.233414             -3.571402            3.480505
| 36>   O                      2.255676             -2.570167            3.219103
| 37>   H                      1.566001             -2.787145            3.844910
| 38>   H                      2.766447             -4.558397            3.518261
| 39>   H                      4.083400             -3.498807            2.869667
| 40>   H                      3.649298             -3.340378            4.517966
| 41>   C                    : 1.242681             -1.490844            -1.242399
| 42>   O                    : 2.017750             -2.223303            -0.392427
| 43>   H                    : 2.854270             -2.385998            -0.915143
| 44>   H                    : 0.235646             -1.382705            -0.890573
| 45>   H                    : 1.563453             -0.460555            -1.422829
| 46>   H                    : 1.015853             -1.921014            -2.215583
| 47> *
| 48>
| 49> #Run DFT-D3 single point of the particle with dimer basis set
| 50> $new_job
| 51> %base "8-0_DFT_B"
| 52> ! wB97X-D3 def2-TZVP TIGHTSCF CHELPG PMODEL
| 53>
| 54> %scf
| 55> MaxIter 1000
| 56> end
| 57>
| 58> * xyz 0 1
| 59>   C                    : 3.233414             -3.571402            3.480505
| 60>   O                    : 2.255676             -2.570167            3.219103
| 61>   H                    : 1.566001             -2.787145            3.844910
| 62>   H                    : 2.766447             -4.558397            3.518261
| 63>   H                    : 4.083400             -3.498807            2.869667
| 64>   H                    : 3.649298             -3.340378            4.517966
| 65>   C                      1.242681             -1.490844            -1.242399
| 66>   O                      2.017750             -2.223303            -0.392427
| 67>   H                      2.854270             -2.385998            -0.915143
| 68>   H                      0.235646             -1.382705            -0.890573
| 69>   H                      1.563453             -0.460555            -1.422829
| 70>   H                      1.015853             -1.921014            -2.215583
| 71> *
| 72>
| 73>                          ****END OF INPUT****
 Total Charge           Charge          ....    0
 Multiplicity           Mult            ....    1
 Number of Electrons    NEL             ....   36
Dispersion correction           -0.000889985
FINAL SINGLE POINT ENERGY      -231.458407815627
Dispersion correction           -0.000215901
FINAL SINGLE POINT ENERGY      -115.730711890894

CARTESIAN COORDINATES (ANGSTROEM)
---------------------------------
  C      3.233414   -3.571402    3.480505
  O      2.255676   -2.570167    3.219103
  H      1.566001   -2.787145    3.844910
  H      2.766447   -4.558397    3.518261
  H      4.083400   -3.498807    2.869667
  H      3.649298   -3.340378    4.517966
  C      1.242681   -1.490844   -1.242399
  O      2.017750   -2.223303   -0.392427
  H      2.854270   -2.385998   -0.915143
  H      0.235646   -1.382705   -0.890573
  H      1.563453   -0.460555   -1.422829
  H      1.015853   -1.921014   -2.215583

 Multiplicity           Mult            ....    1
 Number of Electrons    NEL             ....   18
 Basis Dimension        Dim             ....  172

ORBITAL ENERGIES
----------------

  NO   OCC          E(Eh)            E(eV)
   0   2.0000     -19.241225      -523.5804
   1   2.0000     -10.304009      -280.3864
   2   2.0000      -1.151256       -31.3273
   3   2.0000      -0.794986       -21.6327
   4   2.0000      -0.618414       -16.8279
   5   2.0000      -0.547571       -14.9002
   6   2.0000      -0.534361       -14.5407
   7   2.0000      -0.428781       -11.6677
   8   2.0000      -0.375649       -10.2219
   9   0.0000       0.093690         2.5494
  10   0.0000       0.114090         3.1045
  11   0.0000       0.150653         4.0995
  12   0.0000       0.174503         4.7485
  13   0.0000       0.205398         5.5892

MULLIKEN ATOMIC CHARGES
-----------------------
   0 C :   -0.001282
   1 O :   -0.000301
   2 H :   -0.000004
   3 H :    0.000096
   4 H :   -0.000207
   5 H :   -0.000015
   6 C :   -0.168250
   7 O :   -0.446929
   8 H :    0.320858
   9 H :    0.112447
  10 H :    0.091537
  11 H :    0.092049
Sum of atomic charges:    0.0000000

LOEWDIN ATOMIC CHARGES
----------------------
   0 C :   -0.000919
   1 O :   -0.001013
   2 H :   -0.000080
   3 H :   -0.000014
   4 H :   -0.000139
   5 H :   -0.000018
   6 C :   -0.443985
   7 O :   -0.044213
   8 H :    0.202276
   9 H :    0.104575
  10 H :    0.091718
  11 H :    0.091812

  Mayer bond orders larger than 0.1
B(  6-C ,  7-O ) :   1.0205 B(  6-C ,  9-H ) :   0.9751 B(  6-C , 10-H ) :   0.9760
B(  6-C , 11-H ) :   0.9739 B(  7-O ,  8-H ) :   0.8911

Dispersion correction           -0.000235095
FINAL SINGLE POINT ENERGY      -115.729822794946

DIPOLE MOMENT
-------------
                                X             Y             Z
Electronic contribution:      1.08398      -1.06704       1.35243
Nuclear contribution   :     -0.87404       1.21385      -1.97532
                        -----------------------------------------
Total Dipole Moment    :      0.20994       0.14681      -0.62289
                        -----------------------------------------
Magnitude (a.u.)       :      0.67351
Magnitude (Debye)      :      1.71194

Rotational constants in cm-1:     4.478622     0.865326     0.837368
Rotational constants in MHz : 134265.708115 25941.823538 25103.670968

                             ****ORCA TERMINATED NORMALLY****
TOTAL RUN TIME: 0 days 0 hours 0 minutes 43 seconds 91 msec
