                         Program Version 4.1.2  - RELEASE  -
|  1> #Run DFT-D3 single point of the dimer
|  2> ! wB97X-D3 def2-TZVP TIGHTSCF CHELPG PMODEL PAL8
|  3>
|  4> %base "22-119_DFT_AB"
|  5>
|  6> %scf
|  7> MaxIter 1000
|  8> end
|  9>
| 10> * xyz 0 1
| 11>   C                      11.131593            -7.344835            -2.963129
| 12>   O                      11.372094            -8.689135            -3.112150
| 13>   H                      11.419656            -9.113296            -2.276006
| 14>   H                      11.439993            -6.752302            -3.807982
| 15>   H                      10.118018            -7.126478            -2.706469
| 16>   H                      11.730790            -6.856825            -2.190263
| 17>   C                      9.218978             -7.987972            -5.915427
| 18>   O                      9.819521             -9.176341            -5.595037
| 19>   H                      10.185162            -9.170977            -4.710851
| 20>   H                      8.622314             -7.578588            -5.051792
| 21>   H                      9.991690             -7.261423            -6.133714
| 22>   H                      8.580099             -8.173163            -6.801020
| 23> *
| 24>
| 25> #Run DFT-D3 single point of the molecule with dimer basis set
| 26> $new_job
| 27> %base "22-119_DFT_A"
| 28> ! wB97X-D3 def2-TZVP TIGHTSCF CHELPG PMODEL
| 29>
| 30> %scf
| 31> MaxIter 1000
| 32> end
| 33>
| 34> * xyz 0 1
| 35>   C                      11.131593            -7.344835            -2.963129
| 36>   O                      11.372094            -8.689135            -3.112150
| 37>   H                      11.419656            -9.113296            -2.276006
| 38>   H                      11.439993            -6.752302            -3.807982
| 39>   H                      10.118018            -7.126478            -2.706469
| 40>   H                      11.730790            -6.856825            -2.190263
| 41>   C                    : 9.218978             -7.987972            -5.915427
| 42>   O                    : 9.819521             -9.176341            -5.595037
| 43>   H                    : 10.185162            -9.170977            -4.710851
| 44>   H                    : 8.622314             -7.578588            -5.051792
| 45>   H                    : 9.991690             -7.261423            -6.133714
| 46>   H                    : 8.580099             -8.173163            -6.801020
| 47> *
| 48>
| 49> #Run DFT-D3 single point of the particle with dimer basis set
| 50> $new_job
| 51> %base "22-119_DFT_B"
| 52> ! wB97X-D3 def2-TZVP TIGHTSCF CHELPG PMODEL
| 53>
| 54> %scf
| 55> MaxIter 1000
| 56> end
| 57>
| 58> * xyz 0 1
| 59>   C                    : 11.131593            -7.344835            -2.963129
| 60>   O                    : 11.372094            -8.689135            -3.112150
| 61>   H                    : 11.419656            -9.113296            -2.276006
| 62>   H                    : 11.439993            -6.752302            -3.807982
| 63>   H                    : 10.118018            -7.126478            -2.706469
| 64>   H                    : 11.730790            -6.856825            -2.190263
| 65>   C                      9.218978             -7.987972            -5.915427
| 66>   O                      9.819521             -9.176341            -5.595037
| 67>   H                      10.185162            -9.170977            -4.710851
| 68>   H                      8.622314             -7.578588            -5.051792
| 69>   H                      9.991690             -7.261423            -6.133714
| 70>   H                      8.580099             -8.173163            -6.801020
| 71> *
| 72>
| 73>                          ****END OF INPUT****
 Total Charge           Charge          ....    0
 Multiplicity           Mult            ....    1
 Number of Electrons    NEL             ....   36
Dispersion correction           -0.002237313
FINAL SINGLE POINT ENERGY      -231.474272267363
Dispersion correction           -0.000233463
FINAL SINGLE POINT ENERGY      -115.732807048371

CARTESIAN COORDINATES (ANGSTROEM)
---------------------------------
  C     11.131593   -7.344835   -2.963129
  O     11.372094   -8.689135   -3.112150
  H     11.419656   -9.113296   -2.276006
  H     11.439993   -6.752302   -3.807982
  H     10.118018   -7.126478   -2.706469
  H     11.730790   -6.856825   -2.190263
  C      9.218978   -7.987972   -5.915427
  O      9.819521   -9.176341   -5.595037
  H     10.185162   -9.170977   -4.710851
  H      8.622314   -7.578588   -5.051792
  H      9.991690   -7.261423   -6.133714
  H      8.580099   -8.173163   -6.801020

 Multiplicity           Mult            ....    1
 Number of Electrons    NEL             ....   18
 Basis Dimension        Dim             ....  172

ORBITAL ENERGIES
----------------

  NO   OCC          E(Eh)            E(eV)
   0   2.0000     -19.226456      -523.1785
   1   2.0000     -10.312525      -280.6181
   2   2.0000      -1.148405       -31.2497
   3   2.0000      -0.792355       -21.5611
   4   2.0000      -0.618913       -16.8415
   5   2.0000      -0.545730       -14.8501
   6   2.0000      -0.532286       -14.4842
   7   2.0000      -0.427046       -11.6205
   8   2.0000      -0.368000       -10.0138
   9   0.0000       0.068078         1.8525
  10   0.0000       0.138932         3.7805
  11   0.0000       0.144127         3.9219
  12   0.0000       0.170617         4.6427
  13   0.0000       0.186875         5.0851

MULLIKEN ATOMIC CHARGES
-----------------------
   0 C :   -0.003954
   1 O :   -0.001682
   2 H :   -0.000119
   3 H :    0.000001
   4 H :   -0.000311
   5 H :   -0.000132
   6 C :   -0.159147
   7 O :   -0.470440
   8 H :    0.315917
   9 H :    0.094497
  10 H :    0.099950
  11 H :    0.125420
Sum of atomic charges:   -0.0000000

LOEWDIN ATOMIC CHARGES
----------------------
   0 C :   -0.009576
   1 O :   -0.014854
   2 H :   -0.000835
   3 H :   -0.001309
   4 H :   -0.001226
   5 H :   -0.000132
   6 C :   -0.415170
   7 O :   -0.035716
   8 H :    0.174741
   9 H :    0.099425
  10 H :    0.091731
  11 H :    0.112920

  Mayer bond orders larger than 0.1
B(  6-C ,  7-O ) :   0.9860 B(  6-C ,  9-H ) :   0.9814 B(  6-C , 10-H ) :   0.9798
B(  6-C , 11-H ) :   0.9718 B(  7-O ,  8-H ) :   0.9032

Dispersion correction           -0.000222634
FINAL SINGLE POINT ENERGY      -115.734212404977

DIPOLE MOMENT
-------------
                                X             Y             Z
Electronic contribution:      0.72344      -1.58836       0.25352
Nuclear contribution   :     -0.70826       2.02756       0.19245
                        -----------------------------------------
Total Dipole Moment    :      0.01518       0.43920       0.44597
                        -----------------------------------------
Magnitude (a.u.)       :      0.62612
Magnitude (Debye)      :      1.59146

Rotational constants in cm-1:     4.195385     0.879942     0.841534
Rotational constants in MHz : 125774.473449 26380.004576 25228.546844

                             ****ORCA TERMINATED NORMALLY****
TOTAL RUN TIME: 0 days 0 hours 1 minutes 9 seconds 287 msec
