                         Program Version 4.1.2  - RELEASE  -
|  1> #Run DFT-D3 single point of the dimer
|  2> ! wB97X-D3 def2-TZVP TIGHTSCF CHELPG PMODEL PAL8
|  3>
|  4> %base "3-150_DFT_AB"
|  5>
|  6> %scf
|  7> MaxIter 1000
|  8> end
|  9>
| 10> * xyz 0 1
| 11>   C                      6.745725             9.675620             6.100346
| 12>   O                      6.065059             8.799649             5.211877
| 13>   H                      5.292187             9.106264             4.782544
| 14>   H                      7.817412             9.817642             5.772021
| 15>   H                      6.263485             10.669242            6.151953
| 16>   H                      6.794358             9.337570             7.126804
| 17>   C                      5.047431             11.493174            9.649811
| 18>   O                      4.819667             10.563582            8.597940
| 19>   H                      3.923183             10.205155            8.649925
| 20>   H                      5.873638             12.126344            9.378140
| 21>   H                      4.129296             12.240879            9.732500
| 22>   H                      5.280151             11.083046            10.628110
| 23> *
| 24>
| 25> #Run DFT-D3 single point of the molecule with dimer basis set
| 26> $new_job
| 27> %base "3-150_DFT_A"
| 28> ! wB97X-D3 def2-TZVP TIGHTSCF CHELPG PMODEL
| 29>
| 30> %scf
| 31> MaxIter 1000
| 32> end
| 33>
| 34> * xyz 0 1
| 35>   C                      6.745725             9.675620             6.100346
| 36>   O                      6.065059             8.799649             5.211877
| 37>   H                      5.292187             9.106264             4.782544
| 38>   H                      7.817412             9.817642             5.772021
| 39>   H                      6.263485             10.669242            6.151953
| 40>   H                      6.794358             9.337570             7.126804
| 41>   C                    : 5.047431             11.493174            9.649811
| 42>   O                    : 4.819667             10.563582            8.597940
| 43>   H                    : 3.923183             10.205155            8.649925
| 44>   H                    : 5.873638             12.126344            9.378140
| 45>   H                    : 4.129296             12.240879            9.732500
| 46>   H                    : 5.280151             11.083046            10.628110
| 47> *
| 48>
| 49> #Run DFT-D3 single point of the particle with dimer basis set
| 50> $new_job
| 51> %base "3-150_DFT_B"
| 52> ! wB97X-D3 def2-TZVP TIGHTSCF CHELPG PMODEL
| 53>
| 54> %scf
| 55> MaxIter 1000
| 56> end
| 57>
| 58> * xyz 0 1
| 59>   C                    : 6.745725             9.675620             6.100346
| 60>   O                    : 6.065059             8.799649             5.211877
| 61>   H                    : 5.292187             9.106264             4.782544
| 62>   H                    : 7.817412             9.817642             5.772021
| 63>   H                    : 6.263485             10.669242            6.151953
| 64>   H                    : 6.794358             9.337570             7.126804
| 65>   C                      5.047431             11.493174            9.649811
| 66>   O                      4.819667             10.563582            8.597940
| 67>   H                      3.923183             10.205155            8.649925
| 68>   H                      5.873638             12.126344            9.378140
| 69>   H                      4.129296             12.240879            9.732500
| 70>   H                      5.280151             11.083046            10.628110
| 71> *
| 72>
| 73>                          ****END OF INPUT****
 Total Charge           Charge          ....    0
 Multiplicity           Mult            ....    1
 Number of Electrons    NEL             ....   36
Dispersion correction           -0.001668068
FINAL SINGLE POINT ENERGY      -231.464003564923
Dispersion correction           -0.000278855
FINAL SINGLE POINT ENERGY      -115.731068450679

CARTESIAN COORDINATES (ANGSTROEM)
---------------------------------
  C      6.745725    9.675620    6.100346
  O      6.065059    8.799649    5.211877
  H      5.292187    9.106264    4.782544
  H      7.817412    9.817642    5.772021
  H      6.263485   10.669242    6.151953
  H      6.794358    9.337570    7.126804
  C      5.047431   11.493174    9.649811
  O      4.819667   10.563582    8.597940
  H      3.923183   10.205155    8.649925
  H      5.873638   12.126344    9.378140
  H      4.129296   12.240879    9.732500
  H      5.280151   11.083046   10.628110

 Multiplicity           Mult            ....    1
 Number of Electrons    NEL             ....   18
 Basis Dimension        Dim             ....  172

ORBITAL ENERGIES
----------------

  NO   OCC          E(Eh)            E(eV)
   0   2.0000     -19.233545      -523.3714
   1   2.0000     -10.321654      -280.8665
   2   2.0000      -1.132581       -30.8191
   3   2.0000      -0.794437       -21.6177
   4   2.0000      -0.607123       -16.5207
   5   2.0000      -0.538577       -14.6554
   6   2.0000      -0.527338       -14.3496
   7   2.0000      -0.427108       -11.6222
   8   2.0000      -0.376485       -10.2447
   9   0.0000       0.097523         2.6537
  10   0.0000       0.122790         3.3413
  11   0.0000       0.148817         4.0495
  12   0.0000       0.173021         4.7081
  13   0.0000       0.192434         5.2364

MULLIKEN ATOMIC CHARGES
-----------------------
   0 C :    0.011432
   1 O :   -0.000539
   2 H :   -0.000245
   3 H :   -0.000403
   4 H :   -0.007943
   5 H :   -0.008861
   6 C :   -0.165878
   7 O :   -0.471118
   8 H :    0.317427
   9 H :    0.126070
  10 H :    0.093408
  11 H :    0.106650
Sum of atomic charges:   -0.0000000

LOEWDIN ATOMIC CHARGES
----------------------
   0 C :   -0.010736
   1 O :   -0.000014
   2 H :   -0.000060
   3 H :   -0.000078
   4 H :   -0.004816
   5 H :   -0.006578
   6 C :   -0.386181
   7 O :   -0.067592
   8 H :    0.171998
   9 H :    0.103773
  10 H :    0.108886
  11 H :    0.091399

  Mayer bond orders larger than 0.1
B(  6-C ,  7-O ) :   1.0026 B(  6-C ,  9-H ) :   0.9760 B(  6-C , 10-H ) :   0.9774
B(  6-C , 11-H ) :   0.9644 B(  7-O ,  8-H ) :   0.8943

Dispersion correction           -0.000273082
FINAL SINGLE POINT ENERGY      -115.731599391466

DIPOLE MOMENT
-------------
                                X             Y             Z
Electronic contribution:     -0.07572      -1.33015      -1.34251
Nuclear contribution   :     -0.38100       1.47491       1.79059
                        -----------------------------------------
Total Dipole Moment    :     -0.45672       0.14476       0.44808
                        -----------------------------------------
Magnitude (a.u.)       :      0.65599
Magnitude (Debye)      :      1.66740

Rotational constants in cm-1:     4.215811     0.809402     0.785032
Rotational constants in MHz : 126386.833544 24265.252612 23534.666039

                             ****ORCA TERMINATED NORMALLY****
TOTAL RUN TIME: 0 days 0 hours 6 minutes 23 seconds 619 msec
