                         Program Version 4.1.2  - RELEASE  -
|  1> #Run DFT-D3 single point of the dimer
|  2> ! wB97X-D3 def2-TZVP TIGHTSCF CHELPG PMODEL PAL8
|  3>
|  4> %base "3-54_DFT_AB"
|  5>
|  6> %scf
|  7> MaxIter 1000
|  8> end
|  9>
| 10> * xyz 0 1
| 11>   C                      -1.585375            -0.526504            1.034932
| 12>   O                      -1.659778            -0.611331            2.447003
| 13>   H                      -2.532319            -0.358363            2.745018
| 14>   H                      -0.888317            0.258825             0.604334
| 15>   H                      -1.291051            -1.503012            0.632394
| 16>   H                      -2.593034            -0.391837            0.618044
| 17>   C                      -5.681517            -0.035943            0.537583
| 18>   O                      -4.971244            0.956705             1.270055
| 19>   H                      -5.458685            1.163747             2.077245
| 20>   H                      -5.172222            -0.251793            -0.411621
| 21>   H                      -5.730246            -0.965608            1.081801
| 22>   H                      -6.693816            0.404260             0.361183
| 23> *
| 24>
| 25> #Run DFT-D3 single point of the molecule with dimer basis set
| 26> $new_job
| 27> %base "3-54_DFT_A"
| 28> ! wB97X-D3 def2-TZVP TIGHTSCF CHELPG PMODEL
| 29>
| 30> %scf
| 31> MaxIter 1000
| 32> end
| 33>
| 34> * xyz 0 1
| 35>   C                      -1.585375            -0.526504            1.034932
| 36>   O                      -1.659778            -0.611331            2.447003
| 37>   H                      -2.532319            -0.358363            2.745018
| 38>   H                      -0.888317            0.258825             0.604334
| 39>   H                      -1.291051            -1.503012            0.632394
| 40>   H                      -2.593034            -0.391837            0.618044
| 41>   C                    : -5.681517            -0.035943            0.537583
| 42>   O                    : -4.971244            0.956705             1.270055
| 43>   H                    : -5.458685            1.163747             2.077245
| 44>   H                    : -5.172222            -0.251793            -0.411621
| 45>   H                    : -5.730246            -0.965608            1.081801
| 46>   H                    : -6.693816            0.404260             0.361183
| 47> *
| 48>
| 49> #Run DFT-D3 single point of the particle with dimer basis set
| 50> $new_job
| 51> %base "3-54_DFT_B"
| 52> ! wB97X-D3 def2-TZVP TIGHTSCF CHELPG PMODEL
| 53>
| 54> %scf
| 55> MaxIter 1000
| 56> end
| 57>
| 58> * xyz 0 1
| 59>   C                    : -1.585375            -0.526504            1.034932
| 60>   O                    : -1.659778            -0.611331            2.447003
| 61>   H                    : -2.532319            -0.358363            2.745018
| 62>   H                    : -0.888317            0.258825             0.604334
| 63>   H                    : -1.291051            -1.503012            0.632394
| 64>   H                    : -2.593034            -0.391837            0.618044
| 65>   C                      -5.681517            -0.035943            0.537583
| 66>   O                      -4.971244            0.956705             1.270055
| 67>   H                      -5.458685            1.163747             2.077245
| 68>   H                      -5.172222            -0.251793            -0.411621
| 69>   H                      -5.730246            -0.965608            1.081801
| 70>   H                      -6.693816            0.404260             0.361183
| 71> *
| 72>
| 73>                          ****END OF INPUT****
 Total Charge           Charge          ....    0
 Multiplicity           Mult            ....    1
 Number of Electrons    NEL             ....   36
Dispersion correction           -0.001773191
FINAL SINGLE POINT ENERGY      -231.470996404657
Dispersion correction           -0.000262640
FINAL SINGLE POINT ENERGY      -115.732743950225

CARTESIAN COORDINATES (ANGSTROEM)
---------------------------------
  C     -1.585375   -0.526504    1.034932
  O     -1.659778   -0.611331    2.447003
  H     -2.532319   -0.358363    2.745018
  H     -0.888317    0.258825    0.604334
  H     -1.291051   -1.503012    0.632394
  H     -2.593034   -0.391837    0.618044
  C     -5.681517   -0.035943    0.537583
  O     -4.971244    0.956705    1.270055
  H     -5.458685    1.163747    2.077245
  H     -5.172222   -0.251793   -0.411621
  H     -5.730246   -0.965608    1.081801
  H     -6.693816    0.404260    0.361183

 Multiplicity           Mult            ....    1
 Number of Electrons    NEL             ....   18
 Basis Dimension        Dim             ....  172

ORBITAL ENERGIES
----------------

  NO   OCC          E(Eh)            E(eV)
   0   2.0000     -19.227326      -523.2021
   1   2.0000     -10.315267      -280.6927
   2   2.0000      -1.130632       -30.7661
   3   2.0000      -0.793525       -21.5929
   4   2.0000      -0.604201       -16.4412
   5   2.0000      -0.546828       -14.8799
   6   2.0000      -0.527423       -14.3519
   7   2.0000      -0.429174       -11.6784
   8   2.0000      -0.371711       -10.1148
   9   0.0000       0.094275         2.5653
  10   0.0000       0.123901         3.3715
  11   0.0000       0.152585         4.1521
  12   0.0000       0.175648         4.7796
  13   0.0000       0.196442         5.3455

MULLIKEN ATOMIC CHARGES
-----------------------
   0 C :   -0.001257
   1 O :    0.000447
   2 H :   -0.005325
   3 H :    0.000013
   4 H :    0.000002
   5 H :    0.002343
   6 C :   -0.163866
   7 O :   -0.480529
   8 H :    0.313583
   9 H :    0.120955
  10 H :    0.106794
  11 H :    0.106841
Sum of atomic charges:    0.0000000

LOEWDIN ATOMIC CHARGES
----------------------
   0 C :   -0.003457
   1 O :   -0.000259
   2 H :   -0.004001
   3 H :   -0.000043
   4 H :   -0.000022
   5 H :   -0.003898
   6 C :   -0.376188
   7 O :   -0.085771
   8 H :    0.169645
   9 H :    0.110206
  10 H :    0.091187
  11 H :    0.102601

  Mayer bond orders larger than 0.1
B(  6-C ,  7-O ) :   0.9837 B(  6-C ,  9-H ) :   0.9731 B(  6-C , 10-H ) :   0.9736
B(  6-C , 11-H ) :   0.9821 B(  7-O ,  8-H ) :   0.8970

Dispersion correction           -0.000230990
FINAL SINGLE POINT ENERGY      -115.735021630904

DIPOLE MOMENT
-------------
                                X             Y             Z
Electronic contribution:      0.99638       1.16986       0.78365
Nuclear contribution   :     -1.59522      -1.44743      -0.58161
                        -----------------------------------------
Total Dipole Moment    :     -0.59884      -0.27757       0.20204
                        -----------------------------------------
Magnitude (a.u.)       :      0.69027
Magnitude (Debye)      :      1.75453

Rotational constants in cm-1:     4.201746     0.826184     0.798413
Rotational constants in MHz : 125965.186221 24768.382770 23935.809696

                             ****ORCA TERMINATED NORMALLY****
TOTAL RUN TIME: 0 days 0 hours 5 minutes 59 seconds 286 msec
