                         Program Version 4.1.2  - RELEASE  -
|  1> #Run DFT-D3 single point of the dimer
|  2> ! wB97X-D3 def2-TZVP TIGHTSCF CHELPG PMODEL PAL8
|  3>
|  4> %base "10-101_DFT_AB"
|  5>
|  6> %scf
|  7> MaxIter 1000
|  8> end
|  9>
| 10> * xyz 0 1
| 11>   C                      -6.546840            0.074704             9.038280
| 12>   O                      -6.336000            1.429750             8.808845
| 13>   H                      -5.428613            1.515341             8.559811
| 14>   H                      -7.109638            -0.391232            8.240486
| 15>   H                      -5.589320            -0.496312            9.039589
| 16>   H                      -7.081118            -0.070553            9.995042
| 17>   C                      -2.808617            -1.737059            8.696222
| 18>   O                      -3.519960            -1.248605            9.838495
| 19>   H                      -3.025267            -1.574409            10.619669
| 20>   H                      -2.767888            -2.814282            8.543875
| 21>   H                      -3.162831            -1.196957            7.815363
| 22>   H                      -1.744119            -1.591351            8.727154
| 23> *
| 24>
| 25> #Run DFT-D3 single point of the molecule with dimer basis set
| 26> $new_job
| 27> %base "10-101_DFT_A"
| 28> ! wB97X-D3 def2-TZVP TIGHTSCF CHELPG PMODEL
| 29>
| 30> %scf
| 31> MaxIter 1000
| 32> end
| 33>
| 34> * xyz 0 1
| 35>   C                      -6.546840            0.074704             9.038280
| 36>   O                      -6.336000            1.429750             8.808845
| 37>   H                      -5.428613            1.515341             8.559811
| 38>   H                      -7.109638            -0.391232            8.240486
| 39>   H                      -5.589320            -0.496312            9.039589
| 40>   H                      -7.081118            -0.070553            9.995042
| 41>   C                    : -2.808617            -1.737059            8.696222
| 42>   O                    : -3.519960            -1.248605            9.838495
| 43>   H                    : -3.025267            -1.574409            10.619669
| 44>   H                    : -2.767888            -2.814282            8.543875
| 45>   H                    : -3.162831            -1.196957            7.815363
| 46>   H                    : -1.744119            -1.591351            8.727154
| 47> *
| 48>
| 49> #Run DFT-D3 single point of the particle with dimer basis set
| 50> $new_job
| 51> %base "10-101_DFT_B"
| 52> ! wB97X-D3 def2-TZVP TIGHTSCF CHELPG PMODEL
| 53>
| 54> %scf
| 55> MaxIter 1000
| 56> end
| 57>
| 58> * xyz 0 1
| 59>   C                    : -6.546840            0.074704             9.038280
| 60>   O                    : -6.336000            1.429750             8.808845
| 61>   H                    : -5.428613            1.515341             8.559811
| 62>   H                    : -7.109638            -0.391232            8.240486
| 63>   H                    : -5.589320            -0.496312            9.039589
| 64>   H                    : -7.081118            -0.070553            9.995042
| 65>   C                      -2.808617            -1.737059            8.696222
| 66>   O                      -3.519960            -1.248605            9.838495
| 67>   H                      -3.025267            -1.574409            10.619669
| 68>   H                      -2.767888            -2.814282            8.543875
| 69>   H                      -3.162831            -1.196957            7.815363
| 70>   H                      -1.744119            -1.591351            8.727154
| 71> *
| 72>
| 73>                          ****END OF INPUT****
 Total Charge           Charge          ....    0
 Multiplicity           Mult            ....    1
 Number of Electrons    NEL             ....   36
Dispersion correction           -0.001619288
FINAL SINGLE POINT ENERGY      -231.466851212730
Dispersion correction           -0.000234363
FINAL SINGLE POINT ENERGY      -115.734113229272

CARTESIAN COORDINATES (ANGSTROEM)
---------------------------------
  C     -6.546840    0.074704    9.038280
  O     -6.336000    1.429750    8.808845
  H     -5.428613    1.515341    8.559811
  H     -7.109638   -0.391232    8.240486
  H     -5.589320   -0.496312    9.039589
  H     -7.081118   -0.070553    9.995042
  C     -2.808617   -1.737059    8.696222
  O     -3.519960   -1.248605    9.838495
  H     -3.025267   -1.574409   10.619669
  H     -2.767888   -2.814282    8.543875
  H     -3.162831   -1.196957    7.815363
  H     -1.744119   -1.591351    8.727154

 Multiplicity           Mult            ....    1
 Number of Electrons    NEL             ....   18
 Basis Dimension        Dim             ....  172

ORBITAL ENERGIES
----------------

  NO   OCC          E(Eh)            E(eV)
   0   2.0000     -19.237659      -523.4833
   1   2.0000     -10.311721      -280.5962
   2   2.0000      -1.130510       -30.7627
   3   2.0000      -0.799349       -21.7514
   4   2.0000      -0.616732       -16.7821
   5   2.0000      -0.530477       -14.4350
   6   2.0000      -0.519421       -14.1342
   7   2.0000      -0.446796       -12.1579
   8   2.0000      -0.373498       -10.1634
   9   0.0000       0.098277         2.6743
  10   0.0000       0.122426         3.3314
  11   0.0000       0.149003         4.0546
  12   0.0000       0.174770         4.7557
  13   0.0000       0.198004         5.3880

MULLIKEN ATOMIC CHARGES
-----------------------
   0 C :   -0.001095
   1 O :   -0.000054
   2 H :   -0.000831
   3 H :   -0.000044
   4 H :   -0.002217
   5 H :   -0.000235
   6 C :   -0.181577
   7 O :   -0.459724
   8 H :    0.310299
   9 H :    0.103075
  10 H :    0.125171
  11 H :    0.107232
Sum of atomic charges:    0.0000000

LOEWDIN ATOMIC CHARGES
----------------------
   0 C :   -0.006329
   1 O :   -0.000043
   2 H :   -0.000399
   3 H :   -0.000038
   4 H :   -0.013716
   5 H :   -0.000181
   6 C :   -0.381475
   7 O :   -0.075472
   8 H :    0.180407
   9 H :    0.093917
  10 H :    0.111273
  11 H :    0.092056

  Mayer bond orders larger than 0.1
B(  6-C ,  7-O ) :   1.0027 B(  6-C ,  9-H ) :   0.9665 B(  6-C , 10-H ) :   0.9787
B(  6-C , 11-H ) :   0.9730 B(  7-O ,  8-H ) :   0.8981

Dispersion correction           -0.000257579
FINAL SINGLE POINT ENERGY      -115.730832018508

DIPOLE MOMENT
-------------
                                X             Y             Z
Electronic contribution:     -1.13535       0.70853       1.41436
Nuclear contribution   :      1.76562      -1.09914      -1.37686
                        -----------------------------------------
Total Dipole Moment    :      0.63028      -0.39061       0.03750
                        -----------------------------------------
Magnitude (a.u.)       :      0.74245
Magnitude (Debye)      :      1.88716

Rotational constants in cm-1:     4.426037     0.814506     0.771354
Rotational constants in MHz : 132689.256242 24418.277927 23124.623404

                             ****ORCA TERMINATED NORMALLY****
TOTAL RUN TIME: 0 days 0 hours 1 minutes 3 seconds 487 msec
