                         Program Version 4.1.2  - RELEASE  -
|  1> #Run DFT-D3 single point of the dimer
|  2> ! wB97X-D3 def2-TZVP TIGHTSCF CHELPG PMODEL PAL8
|  3>
|  4> %base "6-201_DFT_AB"
|  5>
|  6> %scf
|  7> MaxIter 1000
|  8> end
|  9>
| 10> * xyz 0 1
| 11>   C                      6.624132             7.413603             -8.245069
| 12>   O                      6.961184             7.120662             -6.934028
| 13>   H                      6.227871             6.513925             -6.667975
| 14>   H                      5.636665             7.834157             -8.331550
| 15>   H                      7.321227             8.095600             -8.805844
| 16>   H                      6.747616             6.490102             -8.871968
| 17>   C                      10.895019            6.531657             -6.355594
| 18>   O                      9.685644             5.754134             -6.415221
| 19>   H                      9.301084             5.789789             -7.336204
| 20>   H                      10.717590            7.557502             -5.882452
| 21>   H                      11.654161            5.986355             -5.825441
| 22>   H                      11.412275            6.696927             -7.304675
| 23> *
| 24>
| 25> #Run DFT-D3 single point of the molecule with dimer basis set
| 26> $new_job
| 27> %base "6-201_DFT_A"
| 28> ! wB97X-D3 def2-TZVP TIGHTSCF CHELPG PMODEL
| 29>
| 30> %scf
| 31> MaxIter 1000
| 32> end
| 33>
| 34> * xyz 0 1
| 35>   C                      6.624132             7.413603             -8.245069
| 36>   O                      6.961184             7.120662             -6.934028
| 37>   H                      6.227871             6.513925             -6.667975
| 38>   H                      5.636665             7.834157             -8.331550
| 39>   H                      7.321227             8.095600             -8.805844
| 40>   H                      6.747616             6.490102             -8.871968
| 41>   C                    : 10.895019            6.531657             -6.355594
| 42>   O                    : 9.685644             5.754134             -6.415221
| 43>   H                    : 9.301084             5.789789             -7.336204
| 44>   H                    : 10.717590            7.557502             -5.882452
| 45>   H                    : 11.654161            5.986355             -5.825441
| 46>   H                    : 11.412275            6.696927             -7.304675
| 47> *
| 48>
| 49> #Run DFT-D3 single point of the particle with dimer basis set
| 50> $new_job
| 51> %base "6-201_DFT_B"
| 52> ! wB97X-D3 def2-TZVP TIGHTSCF CHELPG PMODEL
| 53>
| 54> %scf
| 55> MaxIter 1000
| 56> end
| 57>
| 58> * xyz 0 1
| 59>   C                    : 6.624132             7.413603             -8.245069
| 60>   O                    : 6.961184             7.120662             -6.934028
| 61>   H                    : 6.227871             6.513925             -6.667975
| 62>   H                    : 5.636665             7.834157             -8.331550
| 63>   H                    : 7.321227             8.095600             -8.805844
| 64>   H                    : 6.747616             6.490102             -8.871968
| 65>   C                      10.895019            6.531657             -6.355594
| 66>   O                      9.685644             5.754134             -6.415221
| 67>   H                      9.301084             5.789789             -7.336204
| 68>   H                      10.717590            7.557502             -5.882452
| 69>   H                      11.654161            5.986355             -5.825441
| 70>   H                      11.412275            6.696927             -7.304675
| 71> *
| 72>
| 73>                          ****END OF INPUT****
 Total Charge           Charge          ....    0
 Multiplicity           Mult            ....    1
 Number of Electrons    NEL             ....   36
Dispersion correction           -0.001585193
FINAL SINGLE POINT ENERGY      -231.459925420765
Dispersion correction           -0.000222989
FINAL SINGLE POINT ENERGY      -115.729695828933

CARTESIAN COORDINATES (ANGSTROEM)
---------------------------------
  C      6.624132    7.413603   -8.245069
  O      6.961184    7.120662   -6.934028
  H      6.227871    6.513925   -6.667975
  H      5.636665    7.834157   -8.331550
  H      7.321227    8.095600   -8.805844
  H      6.747616    6.490102   -8.871968
  C     10.895019    6.531657   -6.355594
  O      9.685644    5.754134   -6.415221
  H      9.301084    5.789789   -7.336204
  H     10.717590    7.557502   -5.882452
  H     11.654161    5.986355   -5.825441
  H     11.412275    6.696927   -7.304675

 Multiplicity           Mult            ....    1
 Number of Electrons    NEL             ....   18
 Basis Dimension        Dim             ....  172

ORBITAL ENERGIES
----------------

  NO   OCC          E(Eh)            E(eV)
   0   2.0000     -19.236461      -523.4507
   1   2.0000     -10.318133      -280.7707
   2   2.0000      -1.121732       -30.5239
   3   2.0000      -0.794483       -21.6190
   4   2.0000      -0.605521       -16.4771
   5   2.0000      -0.538541       -14.6544
   6   2.0000      -0.515836       -14.0366
   7   2.0000      -0.431342       -11.7374
   8   2.0000      -0.376174       -10.2362
   9   0.0000       0.074384         2.0241
  10   0.0000       0.127071         3.4578
  11   0.0000       0.146987         3.9997
  12   0.0000       0.167420         4.5557
  13   0.0000       0.182384         4.9629

MULLIKEN ATOMIC CHARGES
-----------------------
   0 C :   -0.005548
   1 O :   -0.001423
   2 H :   -0.000491
   3 H :   -0.000211
   4 H :    0.000418
   5 H :    0.000559
   6 C :   -0.174901
   7 O :   -0.478762
   8 H :    0.322624
   9 H :    0.106750
  10 H :    0.121498
  11 H :    0.109488
Sum of atomic charges:    0.0000000

LOEWDIN ATOMIC CHARGES
----------------------
   0 C :   -0.003402
   1 O :   -0.006877
   2 H :   -0.000894
   3 H :   -0.000106
   4 H :   -0.000164
   5 H :   -0.000341
   6 C :   -0.379659
   7 O :   -0.103200
   8 H :    0.190432
   9 H :    0.107146
  10 H :    0.100771
  11 H :    0.096294

  Mayer bond orders larger than 0.1
B(  6-C ,  7-O ) :   1.0072 B(  6-C ,  9-H ) :   0.9702 B(  6-C , 10-H ) :   0.9741
B(  6-C , 11-H ) :   0.9753 B(  7-O ,  8-H ) :   0.8909

Dispersion correction           -0.000284439
FINAL SINGLE POINT ENERGY      -115.730875060038

DIPOLE MOMENT
-------------
                                X             Y             Z
Electronic contribution:     -1.56313      -1.06519       0.06298
Nuclear contribution   :      1.85144       1.37241      -0.64804
                        -----------------------------------------
Total Dipole Moment    :      0.28831       0.30722      -0.58506
                        -----------------------------------------
Magnitude (a.u.)       :      0.72097
Magnitude (Debye)      :      1.83257

Rotational constants in cm-1:     4.271266     0.788021     0.771777
Rotational constants in MHz : 128049.320143 23624.281075 23137.277481

                             ****ORCA TERMINATED NORMALLY****
TOTAL RUN TIME: 0 days 0 hours 1 minutes 3 seconds 435 msec
