                         Program Version 4.1.2  - RELEASE  -
|  1> #Run DFT-D3 single point of the dimer
|  2> ! wB97X-D3 def2-TZVP TIGHTSCF CHELPG PMODEL PAL8
|  3>
|  4> %base "10-28_DFT_AB"
|  5>
|  6> %scf
|  7> MaxIter 1000
|  8> end
|  9>
| 10> * xyz 0 1
| 11>   C                      -0.107336            -6.761295            -6.715591
| 12>   O                      -0.840736            -7.925506            -6.762882
| 13>   H                      -0.625648            -8.537022            -6.098598
| 14>   H                      0.918834             -6.900276            -6.443235
| 15>   H                      -0.136207            -6.196261            -7.628469
| 16>   H                      -0.460480            -6.062073            -5.931819
| 17>   C                      1.367923             -6.330460            -10.176826
| 18>   O                      0.599920             -7.321826            -10.790082
| 19>   H                      -0.023357            -7.777559            -10.239975
| 20>   H                      2.408693             -6.273177            -10.548830
| 21>   H                      1.022412             -5.304323            -10.160422
| 22>   H                      1.565223             -6.564865            -9.102206
| 23> *
| 24>
| 25> #Run DFT-D3 single point of the molecule with dimer basis set
| 26> $new_job
| 27> %base "10-28_DFT_A"
| 28> ! wB97X-D3 def2-TZVP TIGHTSCF CHELPG PMODEL
| 29>
| 30> %scf
| 31> MaxIter 1000
| 32> end
| 33>
| 34> * xyz 0 1
| 35>   C                      -0.107336            -6.761295            -6.715591
| 36>   O                      -0.840736            -7.925506            -6.762882
| 37>   H                      -0.625648            -8.537022            -6.098598
| 38>   H                      0.918834             -6.900276            -6.443235
| 39>   H                      -0.136207            -6.196261            -7.628469
| 40>   H                      -0.460480            -6.062073            -5.931819
| 41>   C                    : 1.367923             -6.330460            -10.176826
| 42>   O                    : 0.599920             -7.321826            -10.790082
| 43>   H                    : -0.023357            -7.777559            -10.239975
| 44>   H                    : 2.408693             -6.273177            -10.548830
| 45>   H                    : 1.022412             -5.304323            -10.160422
| 46>   H                    : 1.565223             -6.564865            -9.102206
| 47> *
| 48>
| 49> #Run DFT-D3 single point of the particle with dimer basis set
| 50> $new_job
| 51> %base "10-28_DFT_B"
| 52> ! wB97X-D3 def2-TZVP TIGHTSCF CHELPG PMODEL
| 53>
| 54> %scf
| 55> MaxIter 1000
| 56> end
| 57>
| 58> * xyz 0 1
| 59>   C                    : -0.107336            -6.761295            -6.715591
| 60>   O                    : -0.840736            -7.925506            -6.762882
| 61>   H                    : -0.625648            -8.537022            -6.098598
| 62>   H                    : 0.918834             -6.900276            -6.443235
| 63>   H                    : -0.136207            -6.196261            -7.628469
| 64>   H                    : -0.460480            -6.062073            -5.931819
| 65>   C                      1.367923             -6.330460            -10.176826
| 66>   O                      0.599920             -7.321826            -10.790082
| 67>   H                      -0.023357            -7.777559            -10.239975
| 68>   H                      2.408693             -6.273177            -10.548830
| 69>   H                      1.022412             -5.304323            -10.160422
| 70>   H                      1.565223             -6.564865            -9.102206
| 71> *
| 72>
| 73>                          ****END OF INPUT****
 Total Charge           Charge          ....    0
 Multiplicity           Mult            ....    1
 Number of Electrons    NEL             ....   36
Dispersion correction           -0.001781748
FINAL SINGLE POINT ENERGY      -231.464242287891
Dispersion correction           -0.000241885
FINAL SINGLE POINT ENERGY      -115.732702443801

CARTESIAN COORDINATES (ANGSTROEM)
---------------------------------
  C     -0.107336   -6.761295   -6.715591
  O     -0.840736   -7.925506   -6.762882
  H     -0.625648   -8.537022   -6.098598
  H      0.918834   -6.900276   -6.443235
  H     -0.136207   -6.196261   -7.628469
  H     -0.460480   -6.062073   -5.931819
  C      1.367923   -6.330460  -10.176826
  O      0.599920   -7.321826  -10.790082
  H     -0.023357   -7.777559  -10.239975
  H      2.408693   -6.273177  -10.548830
  H      1.022412   -5.304323  -10.160422
  H      1.565223   -6.564865   -9.102206

 Multiplicity           Mult            ....    1
 Number of Electrons    NEL             ....   18
 Basis Dimension        Dim             ....  172

ORBITAL ENERGIES
----------------

  NO   OCC          E(Eh)            E(eV)
   0   2.0000     -19.231238      -523.3086
   1   2.0000     -10.315758      -280.7060
   2   2.0000      -1.140553       -31.0360
   3   2.0000      -0.801498       -21.8099
   4   2.0000      -0.624328       -16.9888
   5   2.0000      -0.538516       -14.6538
   6   2.0000      -0.528443       -14.3797
   7   2.0000      -0.417242       -11.3537
   8   2.0000      -0.376883       -10.2555
   9   0.0000       0.074818         2.0359
  10   0.0000       0.127818         3.4781
  11   0.0000       0.142263         3.8712
  12   0.0000       0.171618         4.6700
  13   0.0000       0.179510         4.8847

MULLIKEN ATOMIC CHARGES
-----------------------
   0 C :    0.002707
   1 O :   -0.000208
   2 H :   -0.000022
   3 H :   -0.001551
   4 H :   -0.000735
   5 H :    0.000192
   6 C :   -0.159465
   7 O :   -0.483195
   8 H :    0.323487
   9 H :    0.118258
  10 H :    0.105690
  11 H :    0.094842
Sum of atomic charges:    0.0000000

LOEWDIN ATOMIC CHARGES
----------------------
   0 C :   -0.007738
   1 O :   -0.000131
   2 H :   -0.000007
   3 H :   -0.001456
   4 H :   -0.005476
   5 H :   -0.000033
   6 C :   -0.400801
   7 O :   -0.054415
   8 H :    0.162934
   9 H :    0.109355
  10 H :    0.092931
  11 H :    0.104837

  Mayer bond orders larger than 0.1
B(  6-C ,  7-O ) :   1.0056 B(  6-C ,  9-H ) :   0.9720 B(  6-C , 10-H ) :   0.9688
B(  6-C , 11-H ) :   0.9847 B(  7-O ,  8-H ) :   0.8927

Dispersion correction           -0.000277199
FINAL SINGLE POINT ENERGY      -115.729839194097

DIPOLE MOMENT
-------------
                                X             Y             Z
Electronic contribution:     -1.12538      -1.28542      -1.05218
Nuclear contribution   :      1.02460       1.36003       1.68215
                        -----------------------------------------
Total Dipole Moment    :     -0.10078       0.07461       0.62997
                        -----------------------------------------
Magnitude (a.u.)       :      0.64233
Magnitude (Debye)      :      1.63268

Rotational constants in cm-1:     4.625424     0.816915     0.795099
Rotational constants in MHz : 138666.710934 24490.486401 23836.470399

                             ****ORCA TERMINATED NORMALLY****
TOTAL RUN TIME: 0 days 0 hours 1 minutes 5 seconds 528 msec
