                         Program Version 4.1.2  - RELEASE  -
|  1> #Run DFT-D3 single point of the dimer
|  2> ! wB97X-D3 def2-TZVP TIGHTSCF CHELPG PMODEL PAL8
|  3>
|  4> %base "22-23_DFT_AB"
|  5>
|  6> %scf
|  7> MaxIter 1000
|  8> end
|  9>
| 10> * xyz 0 1
| 11>   C                      -0.754698            -4.429643            3.939378
| 12>   O                      -1.196798            -4.428082            5.254249
| 13>   H                      -0.395699            -4.752719            5.779728
| 14>   H                      -0.383757            -5.340087            3.635676
| 15>   H                      -1.507620            -4.118996            3.190048
| 16>   H                      0.031200             -3.762485            3.769299
| 17>   C                      2.296630             -0.274171            1.603037
| 18>   O                      1.996984             0.535547             0.414808
| 19>   H                      1.250259             1.158687             0.614377
| 20>   H                      3.130297             -1.028135            1.464270
| 21>   H                      2.630375             0.364142             2.427170
| 22>   H                      1.420406             -0.880692            1.852502
| 23> *
| 24>
| 25> #Run DFT-D3 single point of the molecule with dimer basis set
| 26> $new_job
| 27> %base "22-23_DFT_A"
| 28> ! wB97X-D3 def2-TZVP TIGHTSCF CHELPG PMODEL
| 29>
| 30> %scf
| 31> MaxIter 1000
| 32> end
| 33>
| 34> * xyz 0 1
| 35>   C                      -0.754698            -4.429643            3.939378
| 36>   O                      -1.196798            -4.428082            5.254249
| 37>   H                      -0.395699            -4.752719            5.779728
| 38>   H                      -0.383757            -5.340087            3.635676
| 39>   H                      -1.507620            -4.118996            3.190048
| 40>   H                      0.031200             -3.762485            3.769299
| 41>   C                    : 2.296630             -0.274171            1.603037
| 42>   O                    : 1.996984             0.535547             0.414808
| 43>   H                    : 1.250259             1.158687             0.614377
| 44>   H                    : 3.130297             -1.028135            1.464270
| 45>   H                    : 2.630375             0.364142             2.427170
| 46>   H                    : 1.420406             -0.880692            1.852502
| 47> *
| 48>
| 49> #Run DFT-D3 single point of the particle with dimer basis set
| 50> $new_job
| 51> %base "22-23_DFT_B"
| 52> ! wB97X-D3 def2-TZVP TIGHTSCF CHELPG PMODEL
| 53>
| 54> %scf
| 55> MaxIter 1000
| 56> end
| 57>
| 58> * xyz 0 1
| 59>   C                    : -0.754698            -4.429643            3.939378
| 60>   O                    : -1.196798            -4.428082            5.254249
| 61>   H                    : -0.395699            -4.752719            5.779728
| 62>   H                    : -0.383757            -5.340087            3.635676
| 63>   H                    : -1.507620            -4.118996            3.190048
| 64>   H                    : 0.031200             -3.762485            3.769299
| 65>   C                      2.296630             -0.274171            1.603037
| 66>   O                      1.996984             0.535547             0.414808
| 67>   H                      1.250259             1.158687             0.614377
| 68>   H                      3.130297             -1.028135            1.464270
| 69>   H                      2.630375             0.364142             2.427170
| 70>   H                      1.420406             -0.880692            1.852502
| 71> *
| 72>
| 73>                          ****END OF INPUT****
 Total Charge           Charge          ....    0
 Multiplicity           Mult            ....    1
 Number of Electrons    NEL             ....   36
Dispersion correction           -0.000658093
FINAL SINGLE POINT ENERGY      -231.456720104722
Dispersion correction           -0.000214268
FINAL SINGLE POINT ENERGY      -115.726265614079

CARTESIAN COORDINATES (ANGSTROEM)
---------------------------------
  C     -0.754698   -4.429643    3.939378
  O     -1.196798   -4.428082    5.254249
  H     -0.395699   -4.752719    5.779728
  H     -0.383757   -5.340087    3.635676
  H     -1.507620   -4.118996    3.190048
  H      0.031200   -3.762485    3.769299
  C      2.296630   -0.274171    1.603037
  O      1.996984    0.535547    0.414808
  H      1.250259    1.158687    0.614377
  H      3.130297   -1.028135    1.464270
  H      2.630375    0.364142    2.427170
  H      1.420406   -0.880692    1.852502

 Multiplicity           Mult            ....    1
 Number of Electrons    NEL             ....   18
 Basis Dimension        Dim             ....  172

ORBITAL ENERGIES
----------------

  NO   OCC          E(Eh)            E(eV)
   0   2.0000     -19.231533      -523.3166
   1   2.0000     -10.322430      -280.8876
   2   2.0000      -1.112317       -30.2677
   3   2.0000      -0.792857       -21.5747
   4   2.0000      -0.592646       -16.1267
   5   2.0000      -0.542406       -14.7596
   6   2.0000      -0.518819       -14.1178
   7   2.0000      -0.425593       -11.5810
   8   2.0000      -0.375172       -10.2090
   9   0.0000       0.082978         2.2580
  10   0.0000       0.112836         3.0704
  11   0.0000       0.138234         3.7615
  12   0.0000       0.163728         4.4553
  13   0.0000       0.185117         5.0373

MULLIKEN ATOMIC CHARGES
-----------------------
   0 C :    0.000205
   1 O :   -0.000003
   2 H :   -0.000002
   3 H :   -0.000018
   4 H :   -0.000025
   5 H :   -0.000385
   6 C :   -0.175076
   7 O :   -0.492820
   8 H :    0.318130
   9 H :    0.122109
  10 H :    0.114106
  11 H :    0.113778
Sum of atomic charges:   -0.0000000

LOEWDIN ATOMIC CHARGES
----------------------
   0 C :   -0.000056
   1 O :   -0.000002
   2 H :   -0.000000
   3 H :   -0.000001
   4 H :   -0.000006
   5 H :   -0.000211
   6 C :   -0.356923
   7 O :   -0.135321
   8 H :    0.183370
   9 H :    0.116129
  10 H :    0.096337
  11 H :    0.096683

  Mayer bond orders larger than 0.1
B(  6-C ,  7-O ) :   0.9876 B(  6-C ,  9-H ) :   0.9690 B(  6-C , 10-H ) :   0.9739
B(  6-C , 11-H ) :   0.9767 B(  7-O ,  8-H ) :   0.8924

Dispersion correction           -0.000277107
FINAL SINGLE POINT ENERGY      -115.730283986985

DIPOLE MOMENT
-------------
                                X             Y             Z
Electronic contribution:     -0.27237       0.96084      -1.53372
Nuclear contribution   :     -0.05974      -0.92872       2.17356
                        -----------------------------------------
Total Dipole Moment    :     -0.33211       0.03212       0.63983
                        -----------------------------------------
Magnitude (a.u.)       :      0.72161
Magnitude (Debye)      :      1.83418

Rotational constants in cm-1:     4.231105     0.768250     0.747339
Rotational constants in MHz : 126845.341093 23031.556240 22404.652749

                             ****ORCA TERMINATED NORMALLY****
TOTAL RUN TIME: 0 days 0 hours 0 minutes 53 seconds 903 msec
