                         Program Version 4.1.2  - RELEASE  -
|  1> #Run DFT-D3 single point of the dimer
|  2> ! wB97X-D3 def2-TZVP TIGHTSCF CHELPG PMODEL PAL8
|  3>
|  4> %base "5-22_DFT_AB"
|  5>
|  6> %scf
|  7> MaxIter 1000
|  8> end
|  9>
| 10> * xyz 0 1
| 11>   C                      2.739132             -3.942480            -1.008213
| 12>   O                      1.753076             -3.898102            -0.067553
| 13>   H                      2.322324             -4.076974            0.640020
| 14>   H                      3.466281             -4.735064            -0.636827
| 15>   H                      2.402265             -4.144417            -2.020121
| 16>   H                      3.256188             -3.012980            -0.955926
| 17>   C                      2.961884             0.407319             -2.412688
| 18>   O                      2.456259             1.484305             -1.679243
| 19>   H                      2.553771             1.294301             -0.756044
| 20>   H                      3.996649             0.213085             -2.123589
| 21>   H                      2.420544             -0.510132            -2.440008
| 22>   H                      2.934534             0.770478             -3.468027
| 23> *
| 24>
| 25> #Run DFT-D3 single point of the molecule with dimer basis set
| 26> $new_job
| 27> %base "5-22_DFT_A"
| 28> ! wB97X-D3 def2-TZVP TIGHTSCF CHELPG PMODEL
| 29>
| 30> %scf
| 31> MaxIter 1000
| 32> end
| 33>
| 34> * xyz 0 1
| 35>   C                      2.739132             -3.942480            -1.008213
| 36>   O                      1.753076             -3.898102            -0.067553
| 37>   H                      2.322324             -4.076974            0.640020
| 38>   H                      3.466281             -4.735064            -0.636827
| 39>   H                      2.402265             -4.144417            -2.020121
| 40>   H                      3.256188             -3.012980            -0.955926
| 41>   C                    : 2.961884             0.407319             -2.412688
| 42>   O                    : 2.456259             1.484305             -1.679243
| 43>   H                    : 2.553771             1.294301             -0.756044
| 44>   H                    : 3.996649             0.213085             -2.123589
| 45>   H                    : 2.420544             -0.510132            -2.440008
| 46>   H                    : 2.934534             0.770478             -3.468027
| 47> *
| 48>
| 49> #Run DFT-D3 single point of the particle with dimer basis set
| 50> $new_job
| 51> %base "5-22_DFT_B"
| 52> ! wB97X-D3 def2-TZVP TIGHTSCF CHELPG PMODEL
| 53>
| 54> %scf
| 55> MaxIter 1000
| 56> end
| 57>
| 58> * xyz 0 1
| 59>   C                    : 2.739132             -3.942480            -1.008213
| 60>   O                    : 1.753076             -3.898102            -0.067553
| 61>   H                    : 2.322324             -4.076974            0.640020
| 62>   H                    : 3.466281             -4.735064            -0.636827
| 63>   H                    : 2.402265             -4.144417            -2.020121
| 64>   H                    : 3.256188             -3.012980            -0.955926
| 65>   C                      2.961884             0.407319             -2.412688
| 66>   O                      2.456259             1.484305             -1.679243
| 67>   H                      2.553771             1.294301             -0.756044
| 68>   H                      3.996649             0.213085             -2.123589
| 69>   H                      2.420544             -0.510132            -2.440008
| 70>   H                      2.934534             0.770478             -3.468027
| 71> *
| 72>
| 73>                          ****END OF INPUT****
 Total Charge           Charge          ....    0
 Multiplicity           Mult            ....    1
 Number of Electrons    NEL             ....   36
Dispersion correction           -0.000964757
FINAL SINGLE POINT ENERGY      -231.454233425422
Dispersion correction           -0.000170215
FINAL SINGLE POINT ENERGY      -115.719843164328

CARTESIAN COORDINATES (ANGSTROEM)
---------------------------------
  C      2.739132   -3.942480   -1.008213
  O      1.753076   -3.898102   -0.067553
  H      2.322324   -4.076974    0.640020
  H      3.466281   -4.735064   -0.636827
  H      2.402265   -4.144417   -2.020121
  H      3.256188   -3.012980   -0.955926
  C      2.961884    0.407319   -2.412688
  O      2.456259    1.484305   -1.679243
  H      2.553771    1.294301   -0.756044
  H      3.996649    0.213085   -2.123589
  H      2.420544   -0.510132   -2.440008
  H      2.934534    0.770478   -3.468027

 Multiplicity           Mult            ....    1
 Number of Electrons    NEL             ....   18
 Basis Dimension        Dim             ....  172

ORBITAL ENERGIES
----------------

  NO   OCC          E(Eh)            E(eV)
   0   2.0000     -19.229674      -523.2660
   1   2.0000     -10.309825      -280.5446
   2   2.0000      -1.143867       -31.1262
   3   2.0000      -0.797341       -21.6967
   4   2.0000      -0.618210       -16.8224
   5   2.0000      -0.548690       -14.9306
   6   2.0000      -0.520855       -14.1732
   7   2.0000      -0.431186       -11.7332
   8   2.0000      -0.375768       -10.2252
   9   0.0000       0.082153         2.2355
  10   0.0000       0.119126         3.2416
  11   0.0000       0.148666         4.0454
  12   0.0000       0.173515         4.7216
  13   0.0000       0.180036         4.8990

MULLIKEN ATOMIC CHARGES
-----------------------
   0 C :    0.000536
   1 O :   -0.000042
   2 H :   -0.000017
   3 H :   -0.000037
   4 H :   -0.000091
   5 H :   -0.001049
   6 C :   -0.159361
   7 O :   -0.466388
   8 H :    0.310022
   9 H :    0.097203
  10 H :    0.104125
  11 H :    0.115100
Sum of atomic charges:    0.0000000

LOEWDIN ATOMIC CHARGES
----------------------
   0 C :   -0.000977
   1 O :   -0.000003
   2 H :   -0.000002
   3 H :   -0.000009
   4 H :   -0.000110
   5 H :   -0.000813
   6 C :   -0.398743
   7 O :   -0.056874
   8 H :    0.159918
   9 H :    0.094362
  10 H :    0.086776
  11 H :    0.116475

  Mayer bond orders larger than 0.1
B(  6-C ,  7-O ) :   1.0080 B(  6-C ,  9-H ) :   0.9833 B(  6-C , 10-H ) :   0.9628
B(  6-C , 11-H ) :   0.9772 B(  7-O ,  8-H ) :   0.9032

Dispersion correction           -0.000239720
FINAL SINGLE POINT ENERGY      -115.733891972315

DIPOLE MOMENT
-------------
                                X             Y             Z
Electronic contribution:     -0.74027       1.36235       0.96565
Nuclear contribution   :      0.99119      -1.89657      -0.66145
                        -----------------------------------------
Total Dipole Moment    :      0.25092      -0.53422       0.30420
                        -----------------------------------------
Magnitude (a.u.)       :      0.66400
Magnitude (Debye)      :      1.68775

Rotational constants in cm-1:     4.375052     0.848623     0.815383
Rotational constants in MHz : 131160.753989 25441.081166 24444.561787

                             ****ORCA TERMINATED NORMALLY****
TOTAL RUN TIME: 0 days 0 hours 0 minutes 54 seconds 19 msec
