                         Program Version 4.1.2  - RELEASE  -
|  1> #Run DFT-D3 single point of the dimer
|  2> ! wB97X-D3 def2-TZVP TIGHTSCF CHELPG PMODEL PAL8
|  3>
|  4> %base "6-44_DFT_AB"
|  5>
|  6> %scf
|  7> MaxIter 1000
|  8> end
|  9>
| 10> * xyz 0 1
| 11>   C                      -8.806139            -3.804200            -0.537785
| 12>   O                      -9.024071            -2.496550            -1.017201
| 13>   H                      -9.353899            -2.559543            -1.944128
| 14>   H                      -8.922862            -3.712289            0.568426
| 15>   H                      -9.480058            -4.616308            -0.979368
| 16>   H                      -7.833328            -4.174835            -0.732438
| 17>   C                      -6.266477            -4.168455            2.455603
| 18>   O                      -7.175860            -4.854637            3.321808
| 19>   H                      -7.764477            -4.120895            3.614753
| 20>   H                      -5.463502            -3.663733            3.000096
| 21>   H                      -5.628157            -4.916968            1.894217
| 22>   H                      -6.708523            -3.465401            1.673452
| 23> *
| 24>
| 25> #Run DFT-D3 single point of the molecule with dimer basis set
| 26> $new_job
| 27> %base "6-44_DFT_A"
| 28> ! wB97X-D3 def2-TZVP TIGHTSCF CHELPG PMODEL
| 29>
| 30> %scf
| 31> MaxIter 1000
| 32> end
| 33>
| 34> * xyz 0 1
| 35>   C                      -8.806139            -3.804200            -0.537785
| 36>   O                      -9.024071            -2.496550            -1.017201
| 37>   H                      -9.353899            -2.559543            -1.944128
| 38>   H                      -8.922862            -3.712289            0.568426
| 39>   H                      -9.480058            -4.616308            -0.979368
| 40>   H                      -7.833328            -4.174835            -0.732438
| 41>   C                    : -6.266477            -4.168455            2.455603
| 42>   O                    : -7.175860            -4.854637            3.321808
| 43>   H                    : -7.764477            -4.120895            3.614753
| 44>   H                    : -5.463502            -3.663733            3.000096
| 45>   H                    : -5.628157            -4.916968            1.894217
| 46>   H                    : -6.708523            -3.465401            1.673452
| 47> *
| 48>
| 49> #Run DFT-D3 single point of the particle with dimer basis set
| 50> $new_job
| 51> %base "6-44_DFT_B"
| 52> ! wB97X-D3 def2-TZVP TIGHTSCF CHELPG PMODEL
| 53>
| 54> %scf
| 55> MaxIter 1000
| 56> end
| 57>
| 58> * xyz 0 1
| 59>   C                    : -8.806139            -3.804200            -0.537785
| 60>   O                    : -9.024071            -2.496550            -1.017201
| 61>   H                    : -9.353899            -2.559543            -1.944128
| 62>   H                    : -8.922862            -3.712289            0.568426
| 63>   H                    : -9.480058            -4.616308            -0.979368
| 64>   H                    : -7.833328            -4.174835            -0.732438
| 65>   C                      -6.266477            -4.168455            2.455603
| 66>   O                      -7.175860            -4.854637            3.321808
| 67>   H                      -7.764477            -4.120895            3.614753
| 68>   H                      -5.463502            -3.663733            3.000096
| 69>   H                      -5.628157            -4.916968            1.894217
| 70>   H                      -6.708523            -3.465401            1.673452
| 71> *
| 72>
| 73>                          ****END OF INPUT****
 Total Charge           Charge          ....    0
 Multiplicity           Mult            ....    1
 Number of Electrons    NEL             ....   36
Dispersion correction           -0.001565619
FINAL SINGLE POINT ENERGY      -231.462749429144
Dispersion correction           -0.000258192
FINAL SINGLE POINT ENERGY      -115.731646803829

CARTESIAN COORDINATES (ANGSTROEM)
---------------------------------
  C     -8.806139   -3.804200   -0.537785
  O     -9.024071   -2.496550   -1.017201
  H     -9.353899   -2.559543   -1.944128
  H     -8.922862   -3.712289    0.568426
  H     -9.480058   -4.616308   -0.979368
  H     -7.833328   -4.174835   -0.732438
  C     -6.266477   -4.168455    2.455603
  O     -7.175860   -4.854637    3.321808
  H     -7.764477   -4.120895    3.614753
  H     -5.463502   -3.663733    3.000096
  H     -5.628157   -4.916968    1.894217
  H     -6.708523   -3.465401    1.673452

 Multiplicity           Mult            ....    1
 Number of Electrons    NEL             ....   18
 Basis Dimension        Dim             ....  172

ORBITAL ENERGIES
----------------

  NO   OCC          E(Eh)            E(eV)
   0   2.0000     -19.240566      -523.5624
   1   2.0000     -10.322922      -280.9010
   2   2.0000      -1.133342       -30.8398
   3   2.0000      -0.788282       -21.4503
   4   2.0000      -0.603414       -16.4197
   5   2.0000      -0.538290       -14.6476
   6   2.0000      -0.519440       -14.1347
   7   2.0000      -0.436998       -11.8913
   8   2.0000      -0.376983       -10.2582
   9   0.0000       0.083676         2.2769
  10   0.0000       0.116843         3.1795
  11   0.0000       0.145402         3.9566
  12   0.0000       0.172977         4.7069
  13   0.0000       0.180401         4.9089

MULLIKEN ATOMIC CHARGES
-----------------------
   0 C :    0.002939
   1 O :    0.000027
   2 H :    0.000012
   3 H :   -0.001346
   4 H :    0.000068
   5 H :   -0.001899
   6 C :   -0.194946
   7 O :   -0.456377
   8 H :    0.317225
   9 H :    0.114326
  10 H :    0.114143
  11 H :    0.105828
Sum of atomic charges:    0.0000000

LOEWDIN ATOMIC CHARGES
----------------------
   0 C :   -0.004715
   1 O :   -0.000024
   2 H :   -0.000004
   3 H :   -0.002575
   4 H :   -0.000031
   5 H :   -0.001409
   6 C :   -0.400697
   7 O :   -0.092699
   8 H :    0.186961
   9 H :    0.094110
  10 H :    0.114850
  11 H :    0.106233

  Mayer bond orders larger than 0.1
B(  6-C ,  7-O ) :   1.0065 B(  6-C ,  9-H ) :   0.9732 B(  6-C , 10-H ) :   0.9771
B(  6-C , 11-H ) :   0.9669 B(  7-O ,  8-H ) :   0.8984

Dispersion correction           -0.000271306
FINAL SINGLE POINT ENERGY      -115.729826513026

DIPOLE MOMENT
-------------
                                X             Y             Z
Electronic contribution:     -1.28142      -1.00186       1.17788
Nuclear contribution   :      1.28844       1.69609      -1.32150
                        -----------------------------------------
Total Dipole Moment    :      0.00702       0.69423      -0.14362
                        -----------------------------------------
Magnitude (a.u.)       :      0.70897
Magnitude (Debye)      :      1.80205

Rotational constants in cm-1:     4.157549     0.806183     0.772399
Rotational constants in MHz : 124640.179278 24168.761481 23155.933053

                             ****ORCA TERMINATED NORMALLY****
TOTAL RUN TIME: 0 days 0 hours 0 minutes 55 seconds 700 msec
