                         Program Version 4.1.2  - RELEASE  -
|  1> #Run DFT-D3 single point of the dimer
|  2> ! wB97X-D3 def2-TZVP TIGHTSCF CHELPG PMODEL PAL8
|  3>
|  4> %base "6-186_DFT_AB"
|  5>
|  6> %scf
|  7> MaxIter 1000
|  8> end
|  9>
| 10> * xyz 0 1
| 11>   C                      -6.008489            -4.587720            -4.525131
| 12>   O                      -5.657151            -3.490434            -5.323309
| 13>   H                      -4.759430            -3.178681            -5.161051
| 14>   H                      -6.094564            -4.278882            -3.454936
| 15>   H                      -6.943216            -4.900228            -4.978512
| 16>   H                      -5.366793            -5.404057            -4.591604
| 17>   C                      -3.724706            -3.539969            -0.684343
| 18>   O                      -4.811907            -3.867002            -1.552285
| 19>   H                      -5.140295            -3.032049            -1.928228
| 20>   H                      -3.151461            -4.402956            -0.364138
| 21>   H                      -3.067801            -2.758398            -1.100880
| 22>   H                      -4.061478            -3.141803            0.297262
| 23> *
| 24>
| 25> #Run DFT-D3 single point of the molecule with dimer basis set
| 26> $new_job
| 27> %base "6-186_DFT_A"
| 28> ! wB97X-D3 def2-TZVP TIGHTSCF CHELPG PMODEL
| 29>
| 30> %scf
| 31> MaxIter 1000
| 32> end
| 33>
| 34> * xyz 0 1
| 35>   C                      -6.008489            -4.587720            -4.525131
| 36>   O                      -5.657151            -3.490434            -5.323309
| 37>   H                      -4.759430            -3.178681            -5.161051
| 38>   H                      -6.094564            -4.278882            -3.454936
| 39>   H                      -6.943216            -4.900228            -4.978512
| 40>   H                      -5.366793            -5.404057            -4.591604
| 41>   C                    : -3.724706            -3.539969            -0.684343
| 42>   O                    : -4.811907            -3.867002            -1.552285
| 43>   H                    : -5.140295            -3.032049            -1.928228
| 44>   H                    : -3.151461            -4.402956            -0.364138
| 45>   H                    : -3.067801            -2.758398            -1.100880
| 46>   H                    : -4.061478            -3.141803            0.297262
| 47> *
| 48>
| 49> #Run DFT-D3 single point of the particle with dimer basis set
| 50> $new_job
| 51> %base "6-186_DFT_B"
| 52> ! wB97X-D3 def2-TZVP TIGHTSCF CHELPG PMODEL
| 53>
| 54> %scf
| 55> MaxIter 1000
| 56> end
| 57>
| 58> * xyz 0 1
| 59>   C                    : -6.008489            -4.587720            -4.525131
| 60>   O                    : -5.657151            -3.490434            -5.323309
| 61>   H                    : -4.759430            -3.178681            -5.161051
| 62>   H                    : -6.094564            -4.278882            -3.454936
| 63>   H                    : -6.943216            -4.900228            -4.978512
| 64>   H                    : -5.366793            -5.404057            -4.591604
| 65>   C                      -3.724706            -3.539969            -0.684343
| 66>   O                      -4.811907            -3.867002            -1.552285
| 67>   H                      -5.140295            -3.032049            -1.928228
| 68>   H                      -3.151461            -4.402956            -0.364138
| 69>   H                      -3.067801            -2.758398            -1.100880
| 70>   H                      -4.061478            -3.141803            0.297262
| 71> *
| 72>
| 73>                          ****END OF INPUT****
 Total Charge           Charge          ....    0
 Multiplicity           Mult            ....    1
 Number of Electrons    NEL             ....   36
Dispersion correction           -0.001544511
FINAL SINGLE POINT ENERGY      -231.467579592662
Dispersion correction           -0.000239175
FINAL SINGLE POINT ENERGY      -115.732883097975

CARTESIAN COORDINATES (ANGSTROEM)
---------------------------------
  C     -6.008489   -4.587720   -4.525131
  O     -5.657151   -3.490434   -5.323309
  H     -4.759430   -3.178681   -5.161051
  H     -6.094564   -4.278882   -3.454936
  H     -6.943216   -4.900228   -4.978512
  H     -5.366793   -5.404057   -4.591604
  C     -3.724706   -3.539969   -0.684343
  O     -4.811907   -3.867002   -1.552285
  H     -5.140295   -3.032049   -1.928228
  H     -3.151461   -4.402956   -0.364138
  H     -3.067801   -2.758398   -1.100880
  H     -4.061478   -3.141803    0.297262

 Multiplicity           Mult            ....    1
 Number of Electrons    NEL             ....   18
 Basis Dimension        Dim             ....  172

ORBITAL ENERGIES
----------------

  NO   OCC          E(Eh)            E(eV)
   0   2.0000     -19.235442      -523.4230
   1   2.0000     -10.317227      -280.7460
   2   2.0000      -1.131513       -30.7900
   3   2.0000      -0.796042       -21.6614
   4   2.0000      -0.608944       -16.5702
   5   2.0000      -0.538207       -14.6454
   6   2.0000      -0.524802       -14.2806
   7   2.0000      -0.438792       -11.9401
   8   2.0000      -0.372937       -10.1481
   9   0.0000       0.088954         2.4206
  10   0.0000       0.126693         3.4475
  11   0.0000       0.152937         4.1616
  12   0.0000       0.172291         4.6883
  13   0.0000       0.198660         5.4058

MULLIKEN ATOMIC CHARGES
-----------------------
   0 C :   -0.002402
   1 O :    0.000328
   2 H :   -0.000934
   3 H :   -0.006237
   4 H :   -0.000601
   5 H :   -0.000609
   6 C :   -0.182603
   7 O :   -0.459091
   8 H :    0.320339
   9 H :    0.126917
  10 H :    0.109182
  11 H :    0.095710
Sum of atomic charges:    0.0000000

LOEWDIN ATOMIC CHARGES
----------------------
   0 C :   -0.010242
   1 O :   -0.000157
   2 H :   -0.000659
   3 H :   -0.012851
   4 H :   -0.000124
   5 H :   -0.000707
   6 C :   -0.382237
   7 O :   -0.074829
   8 H :    0.181260
   9 H :    0.106522
  10 H :    0.097641
  11 H :    0.096383

  Mayer bond orders larger than 0.1
B(  6-C ,  7-O ) :   1.0013 B(  6-C ,  9-H ) :   0.9756 B(  6-C , 10-H ) :   0.9767
B(  6-C , 11-H ) :   0.9717 B(  7-O ,  8-H ) :   0.8931

Dispersion correction           -0.000259091
FINAL SINGLE POINT ENERGY      -115.734223295601

DIPOLE MOMENT
-------------
                                X             Y             Z
Electronic contribution:     -1.36046      -0.63676      -1.19540
Nuclear contribution   :      1.60109       1.28631       1.32596
                        -----------------------------------------
Total Dipole Moment    :      0.24062       0.64955       0.13056
                        -----------------------------------------
Magnitude (a.u.)       :      0.70489
Magnitude (Debye)      :      1.79168

Rotational constants in cm-1:     4.336251     0.810221     0.776064
Rotational constants in MHz : 129997.531286 24289.812512 23265.820702

                             ****ORCA TERMINATED NORMALLY****
TOTAL RUN TIME: 0 days 0 hours 1 minutes 5 seconds 535 msec
