                         Program Version 4.1.2  - RELEASE  -
|  1> #Run DFT-D3 single point of the dimer
|  2> ! wB97X-D3 def2-TZVP TIGHTSCF CHELPG PMODEL PAL8
|  3>
|  4> %base "9-76_DFT_AB"
|  5>
|  6> %scf
|  7> MaxIter 1000
|  8> end
|  9>
| 10> * xyz 0 1
| 11>   C                      -6.988085            5.917320             -1.756806
| 12>   O                      -5.841079            5.346315             -1.198149
| 13>   H                      -6.238028            4.725105             -0.596400
| 14>   H                      -7.469596            5.138823             -2.402609
| 15>   H                      -7.670168            6.304700             -1.043612
| 16>   H                      -6.732474            6.712058             -2.340388
| 17>   C                      -7.653407            7.837744             3.590688
| 18>   O                      -8.402907            7.485580             2.425476
| 19>   H                      -7.913080            6.892097             1.896610
| 20>   H                      -7.120881            6.926004             3.856663
| 21>   H                      -7.027966            8.678783             3.407556
| 22>   H                      -8.152537            8.137399             4.582760
| 23> *
| 24>
| 25> #Run DFT-D3 single point of the molecule with dimer basis set
| 26> $new_job
| 27> %base "9-76_DFT_A"
| 28> ! wB97X-D3 def2-TZVP TIGHTSCF CHELPG PMODEL
| 29>
| 30> %scf
| 31> MaxIter 1000
| 32> end
| 33>
| 34> * xyz 0 1
| 35>   C                      -6.988085            5.917320             -1.756806
| 36>   O                      -5.841079            5.346315             -1.198149
| 37>   H                      -6.238028            4.725105             -0.596400
| 38>   H                      -7.469596            5.138823             -2.402609
| 39>   H                      -7.670168            6.304700             -1.043612
| 40>   H                      -6.732474            6.712058             -2.340388
| 41>   C                    : -7.653407            7.837744             3.590688
| 42>   O                    : -8.402907            7.485580             2.425476
| 43>   H                    : -7.913080            6.892097             1.896610
| 44>   H                    : -7.120881            6.926004             3.856663
| 45>   H                    : -7.027966            8.678783             3.407556
| 46>   H                    : -8.152537            8.137399             4.582760
| 47> *
| 48>
| 49> #Run DFT-D3 single point of the particle with dimer basis set
| 50> $new_job
| 51> %base "9-76_DFT_B"
| 52> ! wB97X-D3 def2-TZVP TIGHTSCF CHELPG PMODEL
| 53>
| 54> %scf
| 55> MaxIter 1000
| 56> end
| 57>
| 58> * xyz 0 1
| 59>   C                    : -6.988085            5.917320             -1.756806
| 60>   O                    : -5.841079            5.346315             -1.198149
| 61>   H                    : -6.238028            4.725105             -0.596400
| 62>   H                    : -7.469596            5.138823             -2.402609
| 63>   H                    : -7.670168            6.304700             -1.043612
| 64>   H                    : -6.732474            6.712058             -2.340388
| 65>   C                      -7.653407            7.837744             3.590688
| 66>   O                      -8.402907            7.485580             2.425476
| 67>   H                      -7.913080            6.892097             1.896610
| 68>   H                      -7.120881            6.926004             3.856663
| 69>   H                      -7.027966            8.678783             3.407556
| 70>   H                      -8.152537            8.137399             4.582760
| 71> *
| 72>
| 73>                          ****END OF INPUT****
 Total Charge           Charge          ....    0
 Multiplicity           Mult            ....    1
 Number of Electrons    NEL             ....   36
Dispersion correction           -0.000883926
FINAL SINGLE POINT ENERGY      -231.453023741610
Dispersion correction           -0.000197776
FINAL SINGLE POINT ENERGY      -115.729234212115

CARTESIAN COORDINATES (ANGSTROEM)
---------------------------------
  C     -6.988085    5.917320   -1.756806
  O     -5.841079    5.346315   -1.198149
  H     -6.238028    4.725105   -0.596400
  H     -7.469596    5.138823   -2.402609
  H     -7.670168    6.304700   -1.043612
  H     -6.732474    6.712058   -2.340388
  C     -7.653407    7.837744    3.590688
  O     -8.402907    7.485580    2.425476
  H     -7.913080    6.892097    1.896610
  H     -7.120881    6.926004    3.856663
  H     -7.027966    8.678783    3.407556
  H     -8.152537    8.137399    4.582760

 Multiplicity           Mult            ....    1
 Number of Electrons    NEL             ....   18
 Basis Dimension        Dim             ....  172

ORBITAL ENERGIES
----------------

  NO   OCC          E(Eh)            E(eV)
   0   2.0000     -19.226977      -523.1926
   1   2.0000     -10.318442      -280.7791
   2   2.0000      -1.136319       -30.9208
   3   2.0000      -0.798881       -21.7387
   4   2.0000      -0.610466       -16.6116
   5   2.0000      -0.552298       -15.0288
   6   2.0000      -0.525559       -14.3012
   7   2.0000      -0.418599       -11.3907
   8   2.0000      -0.376456       -10.2439
   9   0.0000       0.077068         2.0971
  10   0.0000       0.122999         3.3470
  11   0.0000       0.144863         3.9419
  12   0.0000       0.165520         4.5040
  13   0.0000       0.193505         5.2655

MULLIKEN ATOMIC CHARGES
-----------------------
   0 C :   -0.000030
   1 O :    0.000033
   2 H :   -0.000017
   3 H :   -0.000023
   4 H :   -0.000828
   5 H :    0.000034
   6 C :   -0.172693
   7 O :   -0.479550
   8 H :    0.317738
   9 H :    0.107261
  10 H :    0.113420
  11 H :    0.114656
Sum of atomic charges:    0.0000000

LOEWDIN ATOMIC CHARGES
----------------------
   0 C :   -0.000328
   1 O :   -0.000012
   2 H :   -0.000065
   3 H :   -0.000006
   4 H :   -0.000556
   5 H :   -0.000002
   6 C :   -0.376830
   7 O :   -0.078642
   8 H :    0.151600
   9 H :    0.098135
  10 H :    0.089261
  11 H :    0.117445

  Mayer bond orders larger than 0.1
B(  6-C ,  7-O ) :   0.9935 B(  6-C ,  9-H ) :   0.9941 B(  6-C , 10-H ) :   0.9740
B(  6-C , 11-H ) :   0.9674 B(  7-O ,  8-H ) :   0.8992

Dispersion correction           -0.000256369
FINAL SINGLE POINT ENERGY      -115.723562319047

DIPOLE MOMENT
-------------
                                X             Y             Z
Electronic contribution:     -1.08299      -0.31845      -1.51587
Nuclear contribution   :      1.72602       0.06983       1.66722
                        -----------------------------------------
Total Dipole Moment    :      0.64303      -0.24862       0.15135
                        -----------------------------------------
Magnitude (a.u.)       :      0.70584
Magnitude (Debye)      :      1.79410

Rotational constants in cm-1:     4.524251     0.801670     0.779600
Rotational constants in MHz : 135633.645066 24033.462942 23371.807140

                             ****ORCA TERMINATED NORMALLY****
TOTAL RUN TIME: 0 days 0 hours 0 minutes 40 seconds 786 msec
