                         Program Version 4.1.2  - RELEASE  -
|  1> #Run DFT-D3 single point of the dimer
|  2> ! wB97X-D3 def2-TZVP TIGHTSCF CHELPG PMODEL PAL8
|  3>
|  4> %base "12-111_DFT_AB"
|  5>
|  6> %scf
|  7> MaxIter 1000
|  8> end
|  9>
| 10> * xyz 0 1
| 11>   C                      0.660958             5.234501             6.568248
| 12>   O                      1.793988             4.917370             7.403906
| 13>   H                      1.654328             3.934204             7.551554
| 14>   H                      0.805839             4.909714             5.553898
| 15>   H                      -0.204570            4.628391             6.807331
| 16>   H                      0.475641             6.293078             6.607980
| 17>   C                      3.116415             9.494618             6.530826
| 18>   O                      3.287834             9.523754             7.967725
| 19>   H                      3.556932             8.624524             8.245668
| 20>   H                      4.026435             9.717809             6.046713
| 21>   H                      2.839763             8.464632             6.152085
| 22>   H                      2.406417             10.254568            6.109319
| 23> *
| 24>
| 25> #Run DFT-D3 single point of the molecule with dimer basis set
| 26> $new_job
| 27> %base "12-111_DFT_A"
| 28> ! wB97X-D3 def2-TZVP TIGHTSCF CHELPG PMODEL
| 29>
| 30> %scf
| 31> MaxIter 1000
| 32> end
| 33>
| 34> * xyz 0 1
| 35>   C                      0.660958             5.234501             6.568248
| 36>   O                      1.793988             4.917370             7.403906
| 37>   H                      1.654328             3.934204             7.551554
| 38>   H                      0.805839             4.909714             5.553898
| 39>   H                      -0.204570            4.628391             6.807331
| 40>   H                      0.475641             6.293078             6.607980
| 41>   C                    : 3.116415             9.494618             6.530826
| 42>   O                    : 3.287834             9.523754             7.967725
| 43>   H                    : 3.556932             8.624524             8.245668
| 44>   H                    : 4.026435             9.717809             6.046713
| 45>   H                    : 2.839763             8.464632             6.152085
| 46>   H                    : 2.406417             10.254568            6.109319
| 47> *
| 48>
| 49> #Run DFT-D3 single point of the particle with dimer basis set
| 50> $new_job
| 51> %base "12-111_DFT_B"
| 52> ! wB97X-D3 def2-TZVP TIGHTSCF CHELPG PMODEL
| 53>
| 54> %scf
| 55> MaxIter 1000
| 56> end
| 57>
| 58> * xyz 0 1
| 59>   C                    : 0.660958             5.234501             6.568248
| 60>   O                    : 1.793988             4.917370             7.403906
| 61>   H                    : 1.654328             3.934204             7.551554
| 62>   H                    : 0.805839             4.909714             5.553898
| 63>   H                    : -0.204570            4.628391             6.807331
| 64>   H                    : 0.475641             6.293078             6.607980
| 65>   C                      3.116415             9.494618             6.530826
| 66>   O                      3.287834             9.523754             7.967725
| 67>   H                      3.556932             8.624524             8.245668
| 68>   H                      4.026435             9.717809             6.046713
| 69>   H                      2.839763             8.464632             6.152085
| 70>   H                      2.406417             10.254568            6.109319
| 71> *
| 72>
| 73>                          ****END OF INPUT****
 Total Charge           Charge          ....    0
 Multiplicity           Mult            ....    1
 Number of Electrons    NEL             ....   36
Dispersion correction           -0.000972832
FINAL SINGLE POINT ENERGY      -231.461314297757
Dispersion correction           -0.000230112
FINAL SINGLE POINT ENERGY      -115.729760240288

CARTESIAN COORDINATES (ANGSTROEM)
---------------------------------
  C      0.660958    5.234501    6.568248
  O      1.793988    4.917370    7.403906
  H      1.654328    3.934204    7.551554
  H      0.805839    4.909714    5.553898
  H     -0.204570    4.628391    6.807331
  H      0.475641    6.293078    6.607980
  C      3.116415    9.494618    6.530826
  O      3.287834    9.523754    7.967725
  H      3.556932    8.624524    8.245668
  H      4.026435    9.717809    6.046713
  H      2.839763    8.464632    6.152085
  H      2.406417   10.254568    6.109319

 Multiplicity           Mult            ....    1
 Number of Electrons    NEL             ....   18
 Basis Dimension        Dim             ....  172

ORBITAL ENERGIES
----------------

  NO   OCC          E(Eh)            E(eV)
   0   2.0000     -19.233697      -523.3755
   1   2.0000     -10.319095      -280.7968
   2   2.0000      -1.123727       -30.5782
   3   2.0000      -0.795128       -21.6365
   4   2.0000      -0.602999       -16.4084
   5   2.0000      -0.532763       -14.4972
   6   2.0000      -0.525832       -14.3086
   7   2.0000      -0.435453       -11.8493
   8   2.0000      -0.373496       -10.1633
   9   0.0000       0.077782         2.1165
  10   0.0000       0.114094         3.1047
  11   0.0000       0.145063         3.9474
  12   0.0000       0.165894         4.5142
  13   0.0000       0.182279         4.9601

MULLIKEN ATOMIC CHARGES
-----------------------
   0 C :   -0.000247
   1 O :   -0.000042
   2 H :   -0.000003
   3 H :   -0.000003
   4 H :    0.000016
   5 H :    0.000477
   6 C :   -0.178305
   7 O :   -0.478150
   8 H :    0.319524
   9 H :    0.114799
  10 H :    0.100439
  11 H :    0.121495
Sum of atomic charges:   -0.0000000

LOEWDIN ATOMIC CHARGES
----------------------
   0 C :   -0.000489
   1 O :   -0.000029
   2 H :   -0.000001
   3 H :   -0.000017
   4 H :   -0.000003
   5 H :   -0.000316
   6 C :   -0.370060
   7 O :   -0.109814
   8 H :    0.179757
   9 H :    0.086302
  10 H :    0.102060
  11 H :    0.112611

  Mayer bond orders larger than 0.1
B(  6-C ,  7-O ) :   0.9992 B(  6-C ,  9-H ) :   0.9755 B(  6-C , 10-H ) :   0.9808
B(  6-C , 11-H ) :   0.9718 B(  7-O ,  8-H ) :   0.8951

Dispersion correction           -0.000267483
FINAL SINGLE POINT ENERGY      -115.729922587192

DIPOLE MOMENT
-------------
                                X             Y             Z
Electronic contribution:      0.14278       0.23315       1.90261
Nuclear contribution   :     -0.02167      -0.80595      -2.32894
                        -----------------------------------------
Total Dipole Moment    :      0.12111      -0.57280      -0.42633
                        -----------------------------------------
Magnitude (a.u.)       :      0.72424
Magnitude (Debye)      :      1.84087

Rotational constants in cm-1:     4.302307     0.795827     0.756614
Rotational constants in MHz : 128979.922751 23858.303492 22682.731398

                             ****ORCA TERMINATED NORMALLY****
TOTAL RUN TIME: 0 days 0 hours 1 minutes 1 seconds 831 msec
