                         Program Version 4.1.2  - RELEASE  -
|  1> #Run DFT-D3 single point of the dimer
|  2> ! wB97X-D3 def2-TZVP TIGHTSCF CHELPG PMODEL PAL8
|  3>
|  4> %base "3-133_DFT_AB"
|  5>
|  6> %scf
|  7> MaxIter 1000
|  8> end
|  9>
| 10> * xyz 0 1
| 11>   C                      -5.125897            10.645962            -7.950531
| 12>   O                      -3.938590            11.012197            -8.624438
| 13>   H                      -4.199529            11.593696            -9.357696
| 14>   H                      -5.823865            11.454333            -7.798836
| 15>   H                      -5.709134            9.760700             -8.411397
| 16>   H                      -4.977675            10.337166            -6.942774
| 17>   C                      -8.485523            9.355543             -10.343675
| 18>   O                      -7.559577            10.203692            -11.029761
| 19>   H                      -6.877725            10.538467            -10.435787
| 20>   H                      -9.191543            8.693501             -10.904278
| 21>   H                      -7.837312            8.581702             -10.040861
| 22>   H                      -8.929868            9.813862             -9.390263
| 23> *
| 24>
| 25> #Run DFT-D3 single point of the molecule with dimer basis set
| 26> $new_job
| 27> %base "3-133_DFT_A"
| 28> ! wB97X-D3 def2-TZVP TIGHTSCF CHELPG PMODEL
| 29>
| 30> %scf
| 31> MaxIter 1000
| 32> end
| 33>
| 34> * xyz 0 1
| 35>   C                      -5.125897            10.645962            -7.950531
| 36>   O                      -3.938590            11.012197            -8.624438
| 37>   H                      -4.199529            11.593696            -9.357696
| 38>   H                      -5.823865            11.454333            -7.798836
| 39>   H                      -5.709134            9.760700             -8.411397
| 40>   H                      -4.977675            10.337166            -6.942774
| 41>   C                    : -8.485523            9.355543             -10.343675
| 42>   O                    : -7.559577            10.203692            -11.029761
| 43>   H                    : -6.877725            10.538467            -10.435787
| 44>   H                    : -9.191543            8.693501             -10.904278
| 45>   H                    : -7.837312            8.581702             -10.040861
| 46>   H                    : -8.929868            9.813862             -9.390263
| 47> *
| 48>
| 49> #Run DFT-D3 single point of the particle with dimer basis set
| 50> $new_job
| 51> %base "3-133_DFT_B"
| 52> ! wB97X-D3 def2-TZVP TIGHTSCF CHELPG PMODEL
| 53>
| 54> %scf
| 55> MaxIter 1000
| 56> end
| 57>
| 58> * xyz 0 1
| 59>   C                    : -5.125897            10.645962            -7.950531
| 60>   O                    : -3.938590            11.012197            -8.624438
| 61>   H                    : -4.199529            11.593696            -9.357696
| 62>   H                    : -5.823865            11.454333            -7.798836
| 63>   H                    : -5.709134            9.760700             -8.411397
| 64>   H                    : -4.977675            10.337166            -6.942774
| 65>   C                      -8.485523            9.355543             -10.343675
| 66>   O                      -7.559577            10.203692            -11.029761
| 67>   H                      -6.877725            10.538467            -10.435787
| 68>   H                      -9.191543            8.693501             -10.904278
| 69>   H                      -7.837312            8.581702             -10.040861
| 70>   H                      -8.929868            9.813862             -9.390263
| 71> *
| 72>
| 73>                          ****END OF INPUT****
 Total Charge           Charge          ....    0
 Multiplicity           Mult            ....    1
 Number of Electrons    NEL             ....   36
Dispersion correction           -0.001710711
FINAL SINGLE POINT ENERGY      -231.448057333610
Dispersion correction           -0.000269654
FINAL SINGLE POINT ENERGY      -115.731007389397

CARTESIAN COORDINATES (ANGSTROEM)
---------------------------------
  C     -5.125897   10.645962   -7.950531
  O     -3.938590   11.012197   -8.624438
  H     -4.199529   11.593696   -9.357696
  H     -5.823865   11.454333   -7.798836
  H     -5.709134    9.760700   -8.411397
  H     -4.977675   10.337166   -6.942774
  C     -8.485523    9.355543  -10.343675
  O     -7.559577   10.203692  -11.029761
  H     -6.877725   10.538467  -10.435787
  H     -9.191543    8.693501  -10.904278
  H     -7.837312    8.581702  -10.040861
  H     -8.929868    9.813862   -9.390263

 Multiplicity           Mult            ....    1
 Number of Electrons    NEL             ....   18
 Basis Dimension        Dim             ....  172

ORBITAL ENERGIES
----------------

  NO   OCC          E(Eh)            E(eV)
   0   2.0000     -19.228871      -523.2442
   1   2.0000     -10.319055      -280.7958
   2   2.0000      -1.129019       -30.7222
   3   2.0000      -0.797356       -21.6972
   4   2.0000      -0.606240       -16.4966
   5   2.0000      -0.543226       -14.7819
   6   2.0000      -0.526224       -14.3193
   7   2.0000      -0.421951       -11.4819
   8   2.0000      -0.367819       -10.0089
   9   0.0000       0.067485         1.8364
  10   0.0000       0.132852         3.6151
  11   0.0000       0.138991         3.7821
  12   0.0000       0.164711         4.4820
  13   0.0000       0.173329         4.7165

MULLIKEN ATOMIC CHARGES
-----------------------
   0 C :   -0.000975
   1 O :    0.000201
   2 H :   -0.000006
   3 H :   -0.000209
   4 H :   -0.001361
   5 H :   -0.000180
   6 C :   -0.182832
   7 O :   -0.483232
   8 H :    0.320026
   9 H :    0.129203
  10 H :    0.116462
  11 H :    0.102904
Sum of atomic charges:   -0.0000000

LOEWDIN ATOMIC CHARGES
----------------------
   0 C :   -0.003799
   1 O :   -0.000026
   2 H :   -0.000243
   3 H :   -0.000362
   4 H :   -0.002254
   5 H :   -0.000052
   6 C :   -0.387889
   7 O :   -0.093213
   8 H :    0.171550
   9 H :    0.118221
  10 H :    0.092407
  11 H :    0.105662

  Mayer bond orders larger than 0.1
B(  6-C ,  7-O ) :   0.9763 B(  6-C ,  9-H ) :   0.9646 B(  6-C , 10-H ) :   0.9921
B(  6-C , 11-H ) :   0.9689 B(  7-O ,  8-H ) :   0.8984

Dispersion correction           -0.000256609
FINAL SINGLE POINT ENERGY      -115.716329362646

DIPOLE MOMENT
-------------
                                X             Y             Z
Electronic contribution:      0.92480       1.20842      -1.10977
Nuclear contribution   :     -0.82191      -1.41464       1.77516
                        -----------------------------------------
Total Dipole Moment    :      0.10289      -0.20622       0.66539
                        -----------------------------------------
Magnitude (a.u.)       :      0.70418
Magnitude (Debye)      :      1.78987

Rotational constants in cm-1:     4.410272     0.805729     0.771839
Rotational constants in MHz : 132216.631183 24155.162313 23139.137000

                             ****ORCA TERMINATED NORMALLY****
TOTAL RUN TIME: 0 days 0 hours 5 minutes 50 seconds 492 msec
