                         Program Version 4.1.2  - RELEASE  -
|  1> #Run DFT-D3 single point of the dimer
|  2> ! wB97X-D3 def2-TZVP TIGHTSCF CHELPG PMODEL PAL8
|  3>
|  4> %base "18-179_DFT_AB"
|  5>
|  6> %scf
|  7> MaxIter 1000
|  8> end
|  9>
| 10> * xyz 0 1
| 11>   C                      -8.163193            -6.905620            -4.301481
| 12>   O                      -9.542434            -7.024346            -4.647095
| 13>   H                      -9.850097            -7.982121            -4.623315
| 14>   H                      -8.099621            -7.127255            -3.255238
| 15>   H                      -7.429261            -7.558297            -4.754039
| 16>   H                      -7.746847            -5.901509            -4.535243
| 17>   C                      -9.704760            -10.112295           -5.598000
| 18>   O                      -10.789277           -9.994479            -4.634057
| 19>   H                      -10.606623           -10.447593           -3.800841
| 20>   H                      -8.761518            -9.565117            -5.331938
| 21>   H                      -9.506611            -11.203353           -5.924558
| 22>   H                      -9.993329            -9.615964            -6.496882
| 23> *
| 24>
| 25> #Run DFT-D3 single point of the molecule with dimer basis set
| 26> $new_job
| 27> %base "18-179_DFT_A"
| 28> ! wB97X-D3 def2-TZVP TIGHTSCF CHELPG PMODEL
| 29>
| 30> %scf
| 31> MaxIter 1000
| 32> end
| 33>
| 34> * xyz 0 1
| 35>   C                      -8.163193            -6.905620            -4.301481
| 36>   O                      -9.542434            -7.024346            -4.647095
| 37>   H                      -9.850097            -7.982121            -4.623315
| 38>   H                      -8.099621            -7.127255            -3.255238
| 39>   H                      -7.429261            -7.558297            -4.754039
| 40>   H                      -7.746847            -5.901509            -4.535243
| 41>   C                    : -9.704760            -10.112295           -5.598000
| 42>   O                    : -10.789277           -9.994479            -4.634057
| 43>   H                    : -10.606623           -10.447593           -3.800841
| 44>   H                    : -8.761518            -9.565117            -5.331938
| 45>   H                    : -9.506611            -11.203353           -5.924558
| 46>   H                    : -9.993329            -9.615964            -6.496882
| 47> *
| 48>
| 49> #Run DFT-D3 single point of the particle with dimer basis set
| 50> $new_job
| 51> %base "18-179_DFT_B"
| 52> ! wB97X-D3 def2-TZVP TIGHTSCF CHELPG PMODEL
| 53>
| 54> %scf
| 55> MaxIter 1000
| 56> end
| 57>
| 58> * xyz 0 1
| 59>   C                    : -8.163193            -6.905620            -4.301481
| 60>   O                    : -9.542434            -7.024346            -4.647095
| 61>   H                    : -9.850097            -7.982121            -4.623315
| 62>   H                    : -8.099621            -7.127255            -3.255238
| 63>   H                    : -7.429261            -7.558297            -4.754039
| 64>   H                    : -7.746847            -5.901509            -4.535243
| 65>   C                      -9.704760            -10.112295           -5.598000
| 66>   O                      -10.789277           -9.994479            -4.634057
| 67>   H                      -10.606623           -10.447593           -3.800841
| 68>   H                      -8.761518            -9.565117            -5.331938
| 69>   H                      -9.506611            -11.203353           -5.924558
| 70>   H                      -9.993329            -9.615964            -6.496882
| 71> *
| 72>
| 73>                          ****END OF INPUT****
 Total Charge           Charge          ....    0
 Multiplicity           Mult            ....    1
 Number of Electrons    NEL             ....   36
Dispersion correction           -0.002110195
FINAL SINGLE POINT ENERGY      -231.463948602729
Dispersion correction           -0.000266977
FINAL SINGLE POINT ENERGY      -115.729249173430

CARTESIAN COORDINATES (ANGSTROEM)
---------------------------------
  C     -8.163193   -6.905620   -4.301481
  O     -9.542434   -7.024346   -4.647095
  H     -9.850097   -7.982121   -4.623315
  H     -8.099621   -7.127255   -3.255238
  H     -7.429261   -7.558297   -4.754039
  H     -7.746847   -5.901509   -4.535243
  C     -9.704760  -10.112295   -5.598000
  O    -10.789277   -9.994479   -4.634057
  H    -10.606623  -10.447593   -3.800841
  H     -8.761518   -9.565117   -5.331938
  H     -9.506611  -11.203353   -5.924558
  H     -9.993329   -9.615964   -6.496882

 Multiplicity           Mult            ....    1
 Number of Electrons    NEL             ....   18
 Basis Dimension        Dim             ....  172

ORBITAL ENERGIES
----------------

  NO   OCC          E(Eh)            E(eV)
   0   2.0000     -19.233154      -523.3607
   1   2.0000     -10.323799      -280.9248
   2   2.0000      -1.121213       -30.5098
   3   2.0000      -0.797341       -21.6968
   4   2.0000      -0.600666       -16.3450
   5   2.0000      -0.533733       -14.5236
   6   2.0000      -0.522205       -14.2099
   7   2.0000      -0.427137       -11.6230
   8   2.0000      -0.378029       -10.2867
   9   0.0000       0.088203         2.4001
  10   0.0000       0.123650         3.3647
  11   0.0000       0.148610         4.0439
  12   0.0000       0.180285         4.9058
  13   0.0000       0.191704         5.2165

MULLIKEN ATOMIC CHARGES
-----------------------
   0 C :    0.002927
   1 O :   -0.000787
   2 H :   -0.002909
   3 H :   -0.000706
   4 H :   -0.001258
   5 H :    0.000171
   6 C :   -0.172226
   7 O :   -0.491347
   8 H :    0.319286
   9 H :    0.105847
  10 H :    0.114043
  11 H :    0.126959
Sum of atomic charges:   -0.0000000

LOEWDIN ATOMIC CHARGES
----------------------
   0 C :   -0.005591
   1 O :   -0.002806
   2 H :   -0.025764
   3 H :   -0.000117
   4 H :   -0.002899
   5 H :   -0.000023
   6 C :   -0.359045
   7 O :   -0.092959
   8 H :    0.167956
   9 H :    0.108366
  10 H :    0.108521
  11 H :    0.104362

  Mayer bond orders larger than 0.1
B(  6-C ,  7-O ) :   0.9774 B(  6-C ,  9-H ) :   0.9705 B(  6-C , 10-H ) :   0.9697
B(  6-C , 11-H ) :   0.9792 B(  7-O ,  8-H ) :   0.8939

Dispersion correction           -0.000307312
FINAL SINGLE POINT ENERGY      -115.730510200316

DIPOLE MOMENT
-------------
                                X             Y             Z
Electronic contribution:     -1.43210       0.21640       1.21262
Nuclear contribution   :      1.98391      -0.53369      -1.11238
                        -----------------------------------------
Total Dipole Moment    :      0.55181      -0.31729       0.10024
                        -----------------------------------------
Magnitude (a.u.)       :      0.64437
Magnitude (Debye)      :      1.63786

Rotational constants in cm-1:     4.294863     0.768313     0.756115
Rotational constants in MHz : 128756.767495 23033.455373 22667.751599

                             ****ORCA TERMINATED NORMALLY****
TOTAL RUN TIME: 0 days 0 hours 1 minutes 0 seconds 230 msec
