                         Program Version 4.1.2  - RELEASE  -
|  1> #Run DFT-D3 single point of the dimer
|  2> ! wB97X-D3 def2-TZVP TIGHTSCF CHELPG PMODEL PAL8
|  3>
|  4> %base "14-167_DFT_AB"
|  5>
|  6> %scf
|  7> MaxIter 1000
|  8> end
|  9>
| 10> * xyz 0 1
| 11>   C                      7.087538             3.114760             -6.287559
| 12>   O                      8.478925             2.966955             -6.142406
| 13>   H                      8.946655             3.760954             -6.069125
| 14>   H                      6.609672             3.351330             -5.335322
| 15>   H                      6.831918             3.872074             -7.095502
| 16>   H                      6.668333             2.144904             -6.663838
| 17>   C                      8.821801             -0.660790            -7.400831
| 18>   O                      9.594603             0.136001             -6.584878
| 19>   H                      9.397918             1.055526             -6.736110
| 20>   H                      7.764089             -0.389250            -7.476109
| 21>   H                      9.242845             -0.657495            -8.405137
| 22>   H                      9.036630             -1.697940            -6.976103
| 23> *
| 24>
| 25> #Run DFT-D3 single point of the molecule with dimer basis set
| 26> $new_job
| 27> %base "14-167_DFT_A"
| 28> ! wB97X-D3 def2-TZVP TIGHTSCF CHELPG PMODEL
| 29>
| 30> %scf
| 31> MaxIter 1000
| 32> end
| 33>
| 34> * xyz 0 1
| 35>   C                      7.087538             3.114760             -6.287559
| 36>   O                      8.478925             2.966955             -6.142406
| 37>   H                      8.946655             3.760954             -6.069125
| 38>   H                      6.609672             3.351330             -5.335322
| 39>   H                      6.831918             3.872074             -7.095502
| 40>   H                      6.668333             2.144904             -6.663838
| 41>   C                    : 8.821801             -0.660790            -7.400831
| 42>   O                    : 9.594603             0.136001             -6.584878
| 43>   H                    : 9.397918             1.055526             -6.736110
| 44>   H                    : 7.764089             -0.389250            -7.476109
| 45>   H                    : 9.242845             -0.657495            -8.405137
| 46>   H                    : 9.036630             -1.697940            -6.976103
| 47> *
| 48>
| 49> #Run DFT-D3 single point of the particle with dimer basis set
| 50> $new_job
| 51> %base "14-167_DFT_B"
| 52> ! wB97X-D3 def2-TZVP TIGHTSCF CHELPG PMODEL
| 53>
| 54> %scf
| 55> MaxIter 1000
| 56> end
| 57>
| 58> * xyz 0 1
| 59>   C                    : 7.087538             3.114760             -6.287559
| 60>   O                    : 8.478925             2.966955             -6.142406
| 61>   H                    : 8.946655             3.760954             -6.069125
| 62>   H                    : 6.609672             3.351330             -5.335322
| 63>   H                    : 6.831918             3.872074             -7.095502
| 64>   H                    : 6.668333             2.144904             -6.663838
| 65>   C                      8.821801             -0.660790            -7.400831
| 66>   O                      9.594603             0.136001             -6.584878
| 67>   H                      9.397918             1.055526             -6.736110
| 68>   H                      7.764089             -0.389250            -7.476109
| 69>   H                      9.242845             -0.657495            -8.405137
| 70>   H                      9.036630             -1.697940            -6.976103
| 71> *
| 72>
| 73>                          ****END OF INPUT****
 Total Charge           Charge          ....    0
 Multiplicity           Mult            ....    1
 Number of Electrons    NEL             ....   36
Dispersion correction           -0.001735633
FINAL SINGLE POINT ENERGY      -231.472571145987
Dispersion correction           -0.000258891
FINAL SINGLE POINT ENERGY      -115.733798330541

CARTESIAN COORDINATES (ANGSTROEM)
---------------------------------
  C      7.087538    3.114760   -6.287559
  O      8.478925    2.966955   -6.142406
  H      8.946655    3.760954   -6.069125
  H      6.609672    3.351330   -5.335322
  H      6.831918    3.872074   -7.095502
  H      6.668333    2.144904   -6.663838
  C      8.821801   -0.660790   -7.400831
  O      9.594603    0.136001   -6.584878
  H      9.397918    1.055526   -6.736110
  H      7.764089   -0.389250   -7.476109
  H      9.242845   -0.657495   -8.405137
  H      9.036630   -1.697940   -6.976103

 Multiplicity           Mult            ....    1
 Number of Electrons    NEL             ....   18
 Basis Dimension        Dim             ....  172

ORBITAL ENERGIES
----------------

  NO   OCC          E(Eh)            E(eV)
   0   2.0000     -19.228336      -523.2296
   1   2.0000     -10.313067      -280.6328
   2   2.0000      -1.148495       -31.2521
   3   2.0000      -0.792112       -21.5545
   4   2.0000      -0.622106       -16.9284
   5   2.0000      -0.544627       -14.8200
   6   2.0000      -0.522706       -14.2235
   7   2.0000      -0.431764       -11.7489
   8   2.0000      -0.369653       -10.0588
   9   0.0000       0.070831         1.9274
  10   0.0000       0.133207         3.6247
  11   0.0000       0.142276         3.8715
  12   0.0000       0.174910         4.7595
  13   0.0000       0.190117         5.1733

MULLIKEN ATOMIC CHARGES
-----------------------
   0 C :   -0.002977
   1 O :   -0.001382
   2 H :   -0.000153
   3 H :    0.000149
   4 H :    0.000045
   5 H :    0.000070
   6 C :   -0.159618
   7 O :   -0.459614
   8 H :    0.308641
   9 H :    0.102469
  10 H :    0.098003
  11 H :    0.114365
Sum of atomic charges:    0.0000000

LOEWDIN ATOMIC CHARGES
----------------------
   0 C :   -0.002781
   1 O :   -0.010566
   2 H :   -0.000697
   3 H :   -0.000048
   4 H :   -0.000039
   5 H :   -0.000939
   6 C :   -0.415870
   7 O :   -0.040214
   8 H :    0.165968
   9 H :    0.092918
  10 H :    0.090893
  11 H :    0.121376

  Mayer bond orders larger than 0.1
B(  6-C ,  7-O ) :   0.9961 B(  6-C ,  9-H ) :   0.9647 B(  6-C , 10-H ) :   0.9824
B(  6-C , 11-H ) :   0.9762 B(  7-O ,  8-H ) :   0.9049

Dispersion correction           -0.000229721
FINAL SINGLE POINT ENERGY      -115.732313601283

DIPOLE MOMENT
-------------
                                X             Y             Z
Electronic contribution:      0.91126       1.00749       1.11113
Nuclear contribution   :     -1.31588      -0.70516      -1.51479
                        -----------------------------------------
Total Dipole Moment    :     -0.40462       0.30233      -0.40366
                        -----------------------------------------
Magnitude (a.u.)       :      0.64657
Magnitude (Debye)      :      1.64346

Rotational constants in cm-1:     4.174058     0.876575     0.833702
Rotational constants in MHz : 125135.117310 26279.067989 24993.769838

                             ****ORCA TERMINATED NORMALLY****
TOTAL RUN TIME: 0 days 0 hours 1 minutes 10 seconds 423 msec
