                         Program Version 4.1.2  - RELEASE  -
|  1> #Run DFT-D3 single point of the dimer
|  2> ! wB97X-D3 def2-TZVP TIGHTSCF CHELPG PMODEL PAL8
|  3>
|  4> %base "14-4_DFT_AB"
|  5>
|  6> %scf
|  7> MaxIter 1000
|  8> end
|  9>
| 10> * xyz 0 1
| 11>   C                      2.263257             -4.148155            5.412082
| 12>   O                      2.954997             -4.750595            6.535683
| 13>   H                      3.854224             -4.751128            6.203519
| 14>   H                      2.189910             -3.055356            5.686844
| 15>   H                      2.686634             -4.323060            4.395248
| 16>   H                      1.297417             -4.690642            5.387383
| 17>   C                      1.734911             0.716800             4.327203
| 18>   O                      0.791648             -0.304132            4.276472
| 19>   H                      1.048376             -0.965579            3.642560
| 20>   H                      2.449839             0.542115             3.497208
| 21>   H                      1.264994             1.720495             4.343686
| 22>   H                      2.275467             0.636369             5.293535
| 23> *
| 24>
| 25> #Run DFT-D3 single point of the molecule with dimer basis set
| 26> $new_job
| 27> %base "14-4_DFT_A"
| 28> ! wB97X-D3 def2-TZVP TIGHTSCF CHELPG PMODEL
| 29>
| 30> %scf
| 31> MaxIter 1000
| 32> end
| 33>
| 34> * xyz 0 1
| 35>   C                      2.263257             -4.148155            5.412082
| 36>   O                      2.954997             -4.750595            6.535683
| 37>   H                      3.854224             -4.751128            6.203519
| 38>   H                      2.189910             -3.055356            5.686844
| 39>   H                      2.686634             -4.323060            4.395248
| 40>   H                      1.297417             -4.690642            5.387383
| 41>   C                    : 1.734911             0.716800             4.327203
| 42>   O                    : 0.791648             -0.304132            4.276472
| 43>   H                    : 1.048376             -0.965579            3.642560
| 44>   H                    : 2.449839             0.542115             3.497208
| 45>   H                    : 1.264994             1.720495             4.343686
| 46>   H                    : 2.275467             0.636369             5.293535
| 47> *
| 48>
| 49> #Run DFT-D3 single point of the particle with dimer basis set
| 50> $new_job
| 51> %base "14-4_DFT_B"
| 52> ! wB97X-D3 def2-TZVP TIGHTSCF CHELPG PMODEL
| 53>
| 54> %scf
| 55> MaxIter 1000
| 56> end
| 57>
| 58> * xyz 0 1
| 59>   C                    : 2.263257             -4.148155            5.412082
| 60>   O                    : 2.954997             -4.750595            6.535683
| 61>   H                    : 3.854224             -4.751128            6.203519
| 62>   H                    : 2.189910             -3.055356            5.686844
| 63>   H                    : 2.686634             -4.323060            4.395248
| 64>   H                    : 1.297417             -4.690642            5.387383
| 65>   C                      1.734911             0.716800             4.327203
| 66>   O                      0.791648             -0.304132            4.276472
| 67>   H                      1.048376             -0.965579            3.642560
| 68>   H                      2.449839             0.542115             3.497208
| 69>   H                      1.264994             1.720495             4.343686
| 70>   H                      2.275467             0.636369             5.293535
| 71> *
| 72>
| 73>                          ****END OF INPUT****
 Total Charge           Charge          ....    0
 Multiplicity           Mult            ....    1
 Number of Electrons    NEL             ....   36
Dispersion correction           -0.001054274
FINAL SINGLE POINT ENERGY      -231.461450044995
Dispersion correction           -0.000245725
FINAL SINGLE POINT ENERGY      -115.728402736232

CARTESIAN COORDINATES (ANGSTROEM)
---------------------------------
  C      2.263257   -4.148155    5.412082
  O      2.954997   -4.750595    6.535683
  H      3.854224   -4.751128    6.203519
  H      2.189910   -3.055356    5.686844
  H      2.686634   -4.323060    4.395248
  H      1.297417   -4.690642    5.387383
  C      1.734911    0.716800    4.327203
  O      0.791648   -0.304132    4.276472
  H      1.048376   -0.965579    3.642560
  H      2.449839    0.542115    3.497208
  H      1.264994    1.720495    4.343686
  H      2.275467    0.636369    5.293535

 Multiplicity           Mult            ....    1
 Number of Electrons    NEL             ....   18
 Basis Dimension        Dim             ....  172

ORBITAL ENERGIES
----------------

  NO   OCC          E(Eh)            E(eV)
   0   2.0000     -19.226473      -523.1789
   1   2.0000     -10.316171      -280.7173
   2   2.0000      -1.143639       -31.1200
   3   2.0000      -0.791897       -21.5486
   4   2.0000      -0.615029       -16.7358
   5   2.0000      -0.540244       -14.7008
   6   2.0000      -0.535750       -14.5785
   7   2.0000      -0.428795       -11.6681
   8   2.0000      -0.367758       -10.0072
   9   0.0000       0.081885         2.2282
  10   0.0000       0.116968         3.1829
  11   0.0000       0.152237         4.1426
  12   0.0000       0.176159         4.7935
  13   0.0000       0.183590         4.9957

MULLIKEN ATOMIC CHARGES
-----------------------
   0 C :    0.001330
   1 O :   -0.000072
   2 H :   -0.000029
   3 H :   -0.005407
   4 H :    0.000082
   5 H :   -0.000018
   6 C :   -0.163778
   7 O :   -0.467650
   8 H :    0.318503
   9 H :    0.100600
  10 H :    0.113118
  11 H :    0.103322
Sum of atomic charges:   -0.0000000

LOEWDIN ATOMIC CHARGES
----------------------
   0 C :   -0.001205
   1 O :   -0.000017
   2 H :   -0.000004
   3 H :   -0.002357
   4 H :   -0.000043
   5 H :   -0.000015
   6 C :   -0.403844
   7 O :   -0.060179
   8 H :    0.164472
   9 H :    0.099571
  10 H :    0.104585
  11 H :    0.099036

  Mayer bond orders larger than 0.1
B(  6-C ,  7-O ) :   1.0103 B(  6-C ,  9-H ) :   0.9907 B(  6-C , 10-H ) :   0.9703
B(  6-C , 11-H ) :   0.9773 B(  7-O ,  8-H ) :   0.8986

Dispersion correction           -0.000235125
FINAL SINGLE POINT ENERGY      -115.732746225471

DIPOLE MOMENT
-------------
                                X             Y             Z
Electronic contribution:     -1.31400      -1.18112      -0.06475
Nuclear contribution   :      1.84165       1.14004      -0.34123
                        -----------------------------------------
Total Dipole Moment    :      0.52766      -0.04107      -0.40598
                        -----------------------------------------
Magnitude (a.u.)       :      0.66703
Magnitude (Debye)      :      1.69546

Rotational constants in cm-1:     4.185458     0.859853     0.820505
Rotational constants in MHz : 125476.877153 25777.750773 24598.110191

                             ****ORCA TERMINATED NORMALLY****
TOTAL RUN TIME: 0 days 0 hours 1 minutes 5 seconds 751 msec
