                         Program Version 4.1.2  - RELEASE  -
|  1> #Run DFT-D3 single point of the dimer
|  2> ! wB97X-D3 def2-TZVP TIGHTSCF CHELPG PMODEL PAL8
|  3>
|  4> %base "14-182_DFT_AB"
|  5>
|  6> %scf
|  7> MaxIter 1000
|  8> end
|  9>
| 10> * xyz 0 1
| 11>   C                      0.396485             1.545882             -10.724549
| 12>   O                      -0.826474            2.070652             -10.288100
| 13>   H                      -0.568896            2.435322             -9.420965
| 14>   H                      0.355493             1.121078             -11.721559
| 15>   H                      1.248323             2.261888             -10.577302
| 16>   H                      0.667296             0.698376             -10.055047
| 17>   C                      -1.453790            3.205992             -5.926784
| 18>   O                      -1.457875            2.228123             -6.998101
| 19>   H                      -0.703341            1.666101             -6.898070
| 20>   H                      -1.332936            2.770356             -4.893537
| 21>   H                      -0.664551            4.000581             -6.041633
| 22>   H                      -2.377194            3.697130             -5.930275
| 23> *
| 24>
| 25> #Run DFT-D3 single point of the molecule with dimer basis set
| 26> $new_job
| 27> %base "14-182_DFT_A"
| 28> ! wB97X-D3 def2-TZVP TIGHTSCF CHELPG PMODEL
| 29>
| 30> %scf
| 31> MaxIter 1000
| 32> end
| 33>
| 34> * xyz 0 1
| 35>   C                      0.396485             1.545882             -10.724549
| 36>   O                      -0.826474            2.070652             -10.288100
| 37>   H                      -0.568896            2.435322             -9.420965
| 38>   H                      0.355493             1.121078             -11.721559
| 39>   H                      1.248323             2.261888             -10.577302
| 40>   H                      0.667296             0.698376             -10.055047
| 41>   C                    : -1.453790            3.205992             -5.926784
| 42>   O                    : -1.457875            2.228123             -6.998101
| 43>   H                    : -0.703341            1.666101             -6.898070
| 44>   H                    : -1.332936            2.770356             -4.893537
| 45>   H                    : -0.664551            4.000581             -6.041633
| 46>   H                    : -2.377194            3.697130             -5.930275
| 47> *
| 48>
| 49> #Run DFT-D3 single point of the particle with dimer basis set
| 50> $new_job
| 51> %base "14-182_DFT_B"
| 52> ! wB97X-D3 def2-TZVP TIGHTSCF CHELPG PMODEL
| 53>
| 54> %scf
| 55> MaxIter 1000
| 56> end
| 57>
| 58> * xyz 0 1
| 59>   C                    : 0.396485             1.545882             -10.724549
| 60>   O                    : -0.826474            2.070652             -10.288100
| 61>   H                    : -0.568896            2.435322             -9.420965
| 62>   H                    : 0.355493             1.121078             -11.721559
| 63>   H                    : 1.248323             2.261888             -10.577302
| 64>   H                    : 0.667296             0.698376             -10.055047
| 65>   C                      -1.453790            3.205992             -5.926784
| 66>   O                      -1.457875            2.228123             -6.998101
| 67>   H                      -0.703341            1.666101             -6.898070
| 68>   H                      -1.332936            2.770356             -4.893537
| 69>   H                      -0.664551            4.000581             -6.041633
| 70>   H                      -2.377194            3.697130             -5.930275
| 71> *
| 72>
| 73>                          ****END OF INPUT****
 Total Charge           Charge          ....    0
 Multiplicity           Mult            ....    1
 Number of Electrons    NEL             ....   36
Dispersion correction           -0.001353311
FINAL SINGLE POINT ENERGY      -231.467658854887
Dispersion correction           -0.000215773
FINAL SINGLE POINT ENERGY      -115.731866069585

CARTESIAN COORDINATES (ANGSTROEM)
---------------------------------
  C      0.396485    1.545882  -10.724549
  O     -0.826474    2.070652  -10.288100
  H     -0.568896    2.435322   -9.420965
  H      0.355493    1.121078  -11.721559
  H      1.248323    2.261888  -10.577302
  H      0.667296    0.698376  -10.055047
  C     -1.453790    3.205992   -5.926784
  O     -1.457875    2.228123   -6.998101
  H     -0.703341    1.666101   -6.898070
  H     -1.332936    2.770356   -4.893537
  H     -0.664551    4.000581   -6.041633
  H     -2.377194    3.697130   -5.930275

 Multiplicity           Mult            ....    1
 Number of Electrons    NEL             ....   18
 Basis Dimension        Dim             ....  172

ORBITAL ENERGIES
----------------

  NO   OCC          E(Eh)            E(eV)
   0   2.0000     -19.232827      -523.3518
   1   2.0000     -10.318622      -280.7840
   2   2.0000      -1.129569       -30.7371
   3   2.0000      -0.800058       -21.7707
   4   2.0000      -0.606650       -16.5078
   5   2.0000      -0.531592       -14.4654
   6   2.0000      -0.526799       -14.3349
   7   2.0000      -0.439829       -11.9684
   8   2.0000      -0.377265       -10.2659
   9   0.0000       0.089023         2.4224
  10   0.0000       0.124765         3.3950
  11   0.0000       0.148496         4.0408
  12   0.0000       0.184265         5.0141
  13   0.0000       0.196619         5.3503

MULLIKEN ATOMIC CHARGES
-----------------------
   0 C :    0.000662
   1 O :    0.001470
   2 H :   -0.012021
   3 H :   -0.000041
   4 H :    0.000063
   5 H :   -0.000230
   6 C :   -0.176180
   7 O :   -0.465818
   8 H :    0.314018
   9 H :    0.103774
  10 H :    0.103741
  11 H :    0.130563
Sum of atomic charges:   -0.0000000

LOEWDIN ATOMIC CHARGES
----------------------
   0 C :   -0.000464
   1 O :   -0.001567
   2 H :   -0.013139
   3 H :   -0.000008
   4 H :   -0.000007
   5 H :   -0.000088
   6 C :   -0.362159
   7 O :   -0.079925
   8 H :    0.157359
   9 H :    0.102229
  10 H :    0.100598
  11 H :    0.097172

  Mayer bond orders larger than 0.1
B(  6-C ,  7-O ) :   1.0004 B(  6-C ,  9-H ) :   0.9702 B(  6-C , 10-H ) :   0.9713
B(  6-C , 11-H ) :   0.9763 B(  7-O ,  8-H ) :   0.9017

Dispersion correction           -0.000278673
FINAL SINGLE POINT ENERGY      -115.733749527519

DIPOLE MOMENT
-------------
                                X             Y             Z
Electronic contribution:     -0.16119      -1.21390      -1.43168
Nuclear contribution   :      0.61182       1.25967       1.95326
                        -----------------------------------------
Total Dipole Moment    :      0.45063       0.04577       0.52158
                        -----------------------------------------
Magnitude (a.u.)       :      0.69080
Magnitude (Debye)      :      1.75588

Rotational constants in cm-1:     4.350811     0.786730     0.765921
Rotational constants in MHz : 130434.042241 23585.559563 22961.740696

                             ****ORCA TERMINATED NORMALLY****
TOTAL RUN TIME: 0 days 0 hours 0 minutes 59 seconds 444 msec
