                         Program Version 4.1.2  - RELEASE  -
|  1> #Run DFT-D3 single point of the dimer
|  2> ! wB97X-D3 def2-TZVP TIGHTSCF CHELPG PMODEL PAL8
|  3>
|  4> %base "11-78_DFT_AB"
|  5>
|  6> %scf
|  7> MaxIter 1000
|  8> end
|  9>
| 10> * xyz 0 1
| 11>   C                      8.208089             3.975349             -1.861267
| 12>   O                      7.813825             2.619600             -2.292651
| 13>   H                      7.000944             2.319256             -1.900115
| 14>   H                      8.304451             4.108650             -0.728916
| 15>   H                      9.262322             4.143959             -2.354098
| 16>   H                      7.514508             4.812777             -2.164203
| 17>   C                      10.510120            4.803059             2.009248
| 18>   O                      9.511246             5.390401             2.720921
| 19>   H                      9.788360             6.264995             2.646968
| 20>   H                      10.256843            3.794557             1.720164
| 21>   H                      10.969106            5.393652             1.241565
| 22>   H                      11.349476            4.549797             2.698899
| 23> *
| 24>
| 25> #Run DFT-D3 single point of the molecule with dimer basis set
| 26> $new_job
| 27> %base "11-78_DFT_A"
| 28> ! wB97X-D3 def2-TZVP TIGHTSCF CHELPG PMODEL
| 29>
| 30> %scf
| 31> MaxIter 1000
| 32> end
| 33>
| 34> * xyz 0 1
| 35>   C                      8.208089             3.975349             -1.861267
| 36>   O                      7.813825             2.619600             -2.292651
| 37>   H                      7.000944             2.319256             -1.900115
| 38>   H                      8.304451             4.108650             -0.728916
| 39>   H                      9.262322             4.143959             -2.354098
| 40>   H                      7.514508             4.812777             -2.164203
| 41>   C                    : 10.510120            4.803059             2.009248
| 42>   O                    : 9.511246             5.390401             2.720921
| 43>   H                    : 9.788360             6.264995             2.646968
| 44>   H                    : 10.256843            3.794557             1.720164
| 45>   H                    : 10.969106            5.393652             1.241565
| 46>   H                    : 11.349476            4.549797             2.698899
| 47> *
| 48>
| 49> #Run DFT-D3 single point of the particle with dimer basis set
| 50> $new_job
| 51> %base "11-78_DFT_B"
| 52> ! wB97X-D3 def2-TZVP TIGHTSCF CHELPG PMODEL
| 53>
| 54> %scf
| 55> MaxIter 1000
| 56> end
| 57>
| 58> * xyz 0 1
| 59>   C                    : 8.208089             3.975349             -1.861267
| 60>   O                    : 7.813825             2.619600             -2.292651
| 61>   H                    : 7.000944             2.319256             -1.900115
| 62>   H                    : 8.304451             4.108650             -0.728916
| 63>   H                    : 9.262322             4.143959             -2.354098
| 64>   H                    : 7.514508             4.812777             -2.164203
| 65>   C                      10.510120            4.803059             2.009248
| 66>   O                      9.511246             5.390401             2.720921
| 67>   H                      9.788360             6.264995             2.646968
| 68>   H                      10.256843            3.794557             1.720164
| 69>   H                      10.969106            5.393652             1.241565
| 70>   H                      11.349476            4.549797             2.698899
| 71> *
| 72>
| 73>                          ****END OF INPUT****
 Total Charge           Charge          ....    0
 Multiplicity           Mult            ....    1
 Number of Electrons    NEL             ....   36
Dispersion correction           -0.001057696
FINAL SINGLE POINT ENERGY      -231.450965481626
Dispersion correction           -0.000325897
FINAL SINGLE POINT ENERGY      -115.726376875704

CARTESIAN COORDINATES (ANGSTROEM)
---------------------------------
  C      8.208089    3.975349   -1.861267
  O      7.813825    2.619600   -2.292651
  H      7.000944    2.319256   -1.900115
  H      8.304451    4.108650   -0.728916
  H      9.262322    4.143959   -2.354098
  H      7.514508    4.812777   -2.164203
  C     10.510120    4.803059    2.009248
  O      9.511246    5.390401    2.720921
  H      9.788360    6.264995    2.646968
  H     10.256843    3.794557    1.720164
  H     10.969106    5.393652    1.241565
  H     11.349476    4.549797    2.698899

 Multiplicity           Mult            ....    1
 Number of Electrons    NEL             ....   18
 Basis Dimension        Dim             ....  172

ORBITAL ENERGIES
----------------

  NO   OCC          E(Eh)            E(eV)
   0   2.0000     -19.231058      -523.3037
   1   2.0000     -10.307278      -280.4753
   2   2.0000      -1.171485       -31.8777
   3   2.0000      -0.795683       -21.6516
   4   2.0000      -0.632177       -17.2024
   5   2.0000      -0.545227       -14.8364
   6   2.0000      -0.533741       -14.5238
   7   2.0000      -0.452002       -12.2996
   8   2.0000      -0.364884        -9.9290
   9   0.0000       0.087105         2.3703
  10   0.0000       0.117706         3.2029
  11   0.0000       0.155239         4.2243
  12   0.0000       0.166897         4.5415
  13   0.0000       0.189362         5.1528

MULLIKEN ATOMIC CHARGES
-----------------------
   0 C :   -0.001543
   1 O :    0.000044
   2 H :    0.000007
   3 H :    0.001969
   4 H :    0.000033
   5 H :    0.000010
   6 C :   -0.181800
   7 O :   -0.435841
   8 H :    0.308656
   9 H :    0.110847
  10 H :    0.107282
  11 H :    0.090336
Sum of atomic charges:    0.0000000

LOEWDIN ATOMIC CHARGES
----------------------
   0 C :   -0.000420
   1 O :   -0.000002
   2 H :   -0.000001
   3 H :   -0.000455
   4 H :   -0.000053
   5 H :   -0.000004
   6 C :   -0.435134
   7 O :   -0.011184
   8 H :    0.155160
   9 H :    0.103994
  10 H :    0.091328
  11 H :    0.096771

  Mayer bond orders larger than 0.1
B(  6-C ,  7-O ) :   1.0075 B(  6-C ,  9-H ) :   0.9792 B(  6-C , 10-H ) :   0.9794
B(  6-C , 11-H ) :   0.9797 B(  7-O ,  8-H ) :   0.9116

Dispersion correction           -0.000198746
FINAL SINGLE POINT ENERGY      -115.723693035988

DIPOLE MOMENT
-------------
                                X             Y             Z
Electronic contribution:     -1.60910       0.79432       0.80834
Nuclear contribution   :      2.12927      -0.44804      -1.10644
                        -----------------------------------------
Total Dipole Moment    :      0.52016       0.34627      -0.29810
                        -----------------------------------------
Magnitude (a.u.)       :      0.69234
Magnitude (Debye)      :      1.75980

Rotational constants in cm-1:     4.414628     0.901638     0.854043
Rotational constants in MHz : 132347.231552 27030.435958 25603.568888

                             ****ORCA TERMINATED NORMALLY****
TOTAL RUN TIME: 0 days 0 hours 1 minutes 10 seconds 948 msec
