                         Program Version 4.1.2  - RELEASE  -
|  1> #Run DFT-D3 single point of the dimer
|  2> ! wB97X-D3 def2-TZVP TIGHTSCF CHELPG PMODEL PAL8
|  3>
|  4> %base "7-151_DFT_AB"
|  5>
|  6> %scf
|  7> MaxIter 1000
|  8> end
|  9>
| 10> * xyz 0 1
| 11>   C                      7.560265             4.536154             7.578513
| 12>   O                      7.874244             4.951479             8.946684
| 13>   H                      7.036518             5.037282             9.417587
| 14>   H                      7.386133             3.502118             7.605481
| 15>   H                      6.612294             4.970132             7.223736
| 16>   H                      8.342208             4.520084             6.856980
| 17>   C                      4.886310             6.942152             9.498009
| 18>   O                      5.872933             6.371556             10.339288
| 19>   H                      5.371101             5.671589             10.810436
| 20>   H                      5.186049             7.938397             9.172814
| 21>   H                      4.776331             6.263414             8.631080
| 22>   H                      3.935816             6.958228             10.037141
| 23> *
| 24>
| 25> #Run DFT-D3 single point of the molecule with dimer basis set
| 26> $new_job
| 27> %base "7-151_DFT_A"
| 28> ! wB97X-D3 def2-TZVP TIGHTSCF CHELPG PMODEL
| 29>
| 30> %scf
| 31> MaxIter 1000
| 32> end
| 33>
| 34> * xyz 0 1
| 35>   C                      7.560265             4.536154             7.578513
| 36>   O                      7.874244             4.951479             8.946684
| 37>   H                      7.036518             5.037282             9.417587
| 38>   H                      7.386133             3.502118             7.605481
| 39>   H                      6.612294             4.970132             7.223736
| 40>   H                      8.342208             4.520084             6.856980
| 41>   C                    : 4.886310             6.942152             9.498009
| 42>   O                    : 5.872933             6.371556             10.339288
| 43>   H                    : 5.371101             5.671589             10.810436
| 44>   H                    : 5.186049             7.938397             9.172814
| 45>   H                    : 4.776331             6.263414             8.631080
| 46>   H                    : 3.935816             6.958228             10.037141
| 47> *
| 48>
| 49> #Run DFT-D3 single point of the particle with dimer basis set
| 50> $new_job
| 51> %base "7-151_DFT_B"
| 52> ! wB97X-D3 def2-TZVP TIGHTSCF CHELPG PMODEL
| 53>
| 54> %scf
| 55> MaxIter 1000
| 56> end
| 57>
| 58> * xyz 0 1
| 59>   C                    : 7.560265             4.536154             7.578513
| 60>   O                    : 7.874244             4.951479             8.946684
| 61>   H                    : 7.036518             5.037282             9.417587
| 62>   H                    : 7.386133             3.502118             7.605481
| 63>   H                    : 6.612294             4.970132             7.223736
| 64>   H                    : 8.342208             4.520084             6.856980
| 65>   C                      4.886310             6.942152             9.498009
| 66>   O                      5.872933             6.371556             10.339288
| 67>   H                      5.371101             5.671589             10.810436
| 68>   H                      5.186049             7.938397             9.172814
| 69>   H                      4.776331             6.263414             8.631080
| 70>   H                      3.935816             6.958228             10.037141
| 71> *
| 72>
| 73>                          ****END OF INPUT****
 Total Charge           Charge          ....    0
 Multiplicity           Mult            ....    1
 Number of Electrons    NEL             ....   36
Dispersion correction           -0.001903839
FINAL SINGLE POINT ENERGY      -231.461460686685
Dispersion correction           -0.000252084
FINAL SINGLE POINT ENERGY      -115.724653109366

CARTESIAN COORDINATES (ANGSTROEM)
---------------------------------
  C      7.560265    4.536154    7.578513
  O      7.874244    4.951479    8.946684
  H      7.036518    5.037282    9.417587
  H      7.386133    3.502118    7.605481
  H      6.612294    4.970132    7.223736
  H      8.342208    4.520084    6.856980
  C      4.886310    6.942152    9.498009
  O      5.872933    6.371556   10.339288
  H      5.371101    5.671589   10.810436
  H      5.186049    7.938397    9.172814
  H      4.776331    6.263414    8.631080
  H      3.935816    6.958228   10.037141

 Multiplicity           Mult            ....    1
 Number of Electrons    NEL             ....   18
 Basis Dimension        Dim             ....  172

ORBITAL ENERGIES
----------------

  NO   OCC          E(Eh)            E(eV)
   0   2.0000     -19.231627      -523.3192
   1   2.0000     -10.314652      -280.6759
   2   2.0000      -1.135265       -30.8921
   3   2.0000      -0.789027       -21.4705
   4   2.0000      -0.608005       -16.5447
   5   2.0000      -0.542352       -14.7581
   6   2.0000      -0.528320       -14.3763
   7   2.0000      -0.440437       -11.9849
   8   2.0000      -0.370188       -10.0733
   9   0.0000       0.092487         2.5167
  10   0.0000       0.120230         3.2716
  11   0.0000       0.155134         4.2214
  12   0.0000       0.185870         5.0578
  13   0.0000       0.196981         5.3601

MULLIKEN ATOMIC CHARGES
-----------------------
   0 C :    0.001979
   1 O :    0.008004
   2 H :   -0.028431
   3 H :   -0.000288
   4 H :    0.001158
   5 H :    0.000000
   6 C :   -0.163796
   7 O :   -0.457415
   8 H :    0.316443
   9 H :    0.115303
  10 H :    0.101121
  11 H :    0.105920
Sum of atomic charges:   -0.0000000

LOEWDIN ATOMIC CHARGES
----------------------
   0 C :   -0.002076
   1 O :   -0.008151
   2 H :   -0.040815
   3 H :   -0.000037
   4 H :   -0.001573
   5 H :   -0.000026
   6 C :   -0.381471
   7 O :   -0.051872
   8 H :    0.186041
   9 H :    0.105396
  10 H :    0.098664
  11 H :    0.095920

  Mayer bond orders larger than 0.1
B(  6-C ,  7-O ) :   0.9876 B(  6-C ,  9-H ) :   0.9732 B(  6-C , 10-H ) :   0.9781
B(  6-C , 11-H ) :   0.9832 B(  7-O ,  8-H ) :   0.8973

Dispersion correction           -0.000212225
FINAL SINGLE POINT ENERGY      -115.734174186605

DIPOLE MOMENT
-------------
                                X             Y             Z
Electronic contribution:      1.36525      -0.48487       1.00506
Nuclear contribution   :     -2.06758       0.29694      -1.02963
                        -----------------------------------------
Total Dipole Moment    :     -0.70234      -0.18793      -0.02457
                        -----------------------------------------
Magnitude (a.u.)       :      0.72746
Magnitude (Debye)      :      1.84906

Rotational constants in cm-1:     4.102586     0.845464     0.808865
Rotational constants in MHz : 122992.435503 25346.379623 24249.163327

                             ****ORCA TERMINATED NORMALLY****
TOTAL RUN TIME: 0 days 0 hours 1 minutes 6 seconds 573 msec
