                         Program Version 4.1.2  - RELEASE  -
|  1> #Run DFT-D3 single point of the dimer
|  2> ! wB97X-D3 def2-TZVP TIGHTSCF CHELPG PMODEL PAL8
|  3>
|  4> %base "13-197_DFT_AB"
|  5>
|  6> %scf
|  7> MaxIter 1000
|  8> end
|  9>
| 10> * xyz 0 1
| 11>   C                      0.950964             2.647921             8.080619
| 12>   O                      1.658286             1.577271             8.664702
| 13>   H                      2.550322             1.498365             8.275117
| 14>   H                      1.205504             2.611569             7.018494
| 15>   H                      -0.185575            2.570360             8.138774
| 16>   H                      1.287986             3.598304             8.443395
| 17>   C                      4.530417             2.251809             6.628512
| 18>   O                      4.137787             1.012880             7.225468
| 19>   H                      4.455139             0.294657             6.696131
| 20>   H                      5.637235             2.348464             6.717939
| 21>   H                      4.287020             2.341423             5.578256
| 22>   H                      4.010123             3.065728             7.176024
| 23> *
| 24>
| 25> #Run DFT-D3 single point of the molecule with dimer basis set
| 26> $new_job
| 27> %base "13-197_DFT_A"
| 28> ! wB97X-D3 def2-TZVP TIGHTSCF CHELPG PMODEL
| 29>
| 30> %scf
| 31> MaxIter 1000
| 32> end
| 33>
| 34> * xyz 0 1
| 35>   C                      0.950964             2.647921             8.080619
| 36>   O                      1.658286             1.577271             8.664702
| 37>   H                      2.550322             1.498365             8.275117
| 38>   H                      1.205504             2.611569             7.018494
| 39>   H                      -0.185575            2.570360             8.138774
| 40>   H                      1.287986             3.598304             8.443395
| 41>   C                    : 4.530417             2.251809             6.628512
| 42>   O                    : 4.137787             1.012880             7.225468
| 43>   H                    : 4.455139             0.294657             6.696131
| 44>   H                    : 5.637235             2.348464             6.717939
| 45>   H                    : 4.287020             2.341423             5.578256
| 46>   H                    : 4.010123             3.065728             7.176024
| 47> *
| 48>
| 49> #Run DFT-D3 single point of the particle with dimer basis set
| 50> $new_job
| 51> %base "13-197_DFT_B"
| 52> ! wB97X-D3 def2-TZVP TIGHTSCF CHELPG PMODEL
| 53>
| 54> %scf
| 55> MaxIter 1000
| 56> end
| 57>
| 58> * xyz 0 1
| 59>   C                    : 0.950964             2.647921             8.080619
| 60>   O                    : 1.658286             1.577271             8.664702
| 61>   H                    : 2.550322             1.498365             8.275117
| 62>   H                    : 1.205504             2.611569             7.018494
| 63>   H                    : -0.185575            2.570360             8.138774
| 64>   H                    : 1.287986             3.598304             8.443395
| 65>   C                      4.530417             2.251809             6.628512
| 66>   O                      4.137787             1.012880             7.225468
| 67>   H                      4.455139             0.294657             6.696131
| 68>   H                      5.637235             2.348464             6.717939
| 69>   H                      4.287020             2.341423             5.578256
| 70>   H                      4.010123             3.065728             7.176024
| 71> *
| 72>
| 73>                          ****END OF INPUT****
 Total Charge           Charge          ....    0
 Multiplicity           Mult            ....    1
 Number of Electrons    NEL             ....   36
Dispersion correction           -0.002047143
FINAL SINGLE POINT ENERGY      -231.474798397207
Dispersion correction           -0.000237743
FINAL SINGLE POINT ENERGY      -115.731029169439

CARTESIAN COORDINATES (ANGSTROEM)
---------------------------------
  C      0.950964    2.647921    8.080619
  O      1.658286    1.577271    8.664702
  H      2.550322    1.498365    8.275117
  H      1.205504    2.611569    7.018494
  H     -0.185575    2.570360    8.138774
  H      1.287986    3.598304    8.443395
  C      4.530417    2.251809    6.628512
  O      4.137787    1.012880    7.225468
  H      4.455139    0.294657    6.696131
  H      5.637235    2.348464    6.717939
  H      4.287020    2.341423    5.578256
  H      4.010123    3.065728    7.176024

 Multiplicity           Mult            ....    1
 Number of Electrons    NEL             ....   18
 Basis Dimension        Dim             ....  172

ORBITAL ENERGIES
----------------

  NO   OCC          E(Eh)            E(eV)
   0   2.0000     -19.228573      -523.2361
   1   2.0000     -10.317194      -280.7451
   2   2.0000      -1.133159       -30.8348
   3   2.0000      -0.795583       -21.6489
   4   2.0000      -0.611112       -16.6292
   5   2.0000      -0.539006       -14.6671
   6   2.0000      -0.522329       -14.2133
   7   2.0000      -0.436330       -11.8731
   8   2.0000      -0.373612       -10.1665
   9   0.0000       0.094724         2.5776
  10   0.0000       0.125259         3.4085
  11   0.0000       0.153263         4.1705
  12   0.0000       0.183210         4.9854
  13   0.0000       0.201066         5.4713

MULLIKEN ATOMIC CHARGES
-----------------------
   0 C :    0.000111
   1 O :   -0.000662
   2 H :   -0.005978
   3 H :   -0.000221
   4 H :    0.000015
   5 H :   -0.000543
   6 C :   -0.165832
   7 O :   -0.469674
   8 H :    0.306427
   9 H :    0.106177
  10 H :    0.108493
  11 H :    0.121689
Sum of atomic charges:   -0.0000000

LOEWDIN ATOMIC CHARGES
----------------------
   0 C :   -0.003419
   1 O :   -0.004593
   2 H :   -0.036754
   3 H :   -0.000959
   4 H :   -0.000013
   5 H :   -0.000408
   6 C :   -0.368015
   7 O :   -0.049770
   8 H :    0.156470
   9 H :    0.099834
  10 H :    0.091836
  11 H :    0.115792

  Mayer bond orders larger than 0.1
B(  6-C ,  7-O ) :   0.9824 B(  6-C ,  9-H ) :   0.9763 B(  6-C , 10-H ) :   0.9691
B(  6-C , 11-H ) :   0.9772 B(  7-O ,  8-H ) :   0.9026

Dispersion correction           -0.000247261
FINAL SINGLE POINT ENERGY      -115.736239918980

DIPOLE MOMENT
-------------
                                X             Y             Z
Electronic contribution:     -0.59473      -1.48219       0.80389
Nuclear contribution   :      0.95234       1.52792      -1.39750
                        -----------------------------------------
Total Dipole Moment    :      0.35761       0.04573      -0.59360
                        -----------------------------------------
Magnitude (a.u.)       :      0.69451
Magnitude (Debye)      :      1.76530

Rotational constants in cm-1:     4.245381     0.817113     0.786594
Rotational constants in MHz : 127273.318245 24496.433334 23581.505464

                             ****ORCA TERMINATED NORMALLY****
TOTAL RUN TIME: 0 days 0 hours 1 minutes 10 seconds 449 msec
