                         Program Version 4.1.2  - RELEASE  -
|  1> #Run DFT-D3 single point of the dimer
|  2> ! wB97X-D3 def2-TZVP TIGHTSCF CHELPG PMODEL PAL8
|  3>
|  4> %base "4-161_DFT_AB"
|  5>
|  6> %scf
|  7> MaxIter 1000
|  8> end
|  9>
| 10> * xyz 0 1
| 11>   C                      7.497052             2.270548             -2.229564
| 12>   O                      7.274644             2.219434             -0.824995
| 13>   H                      7.353373             3.087960             -0.498924
| 14>   H                      6.908298             1.511459             -2.771878
| 15>   H                      7.202090             3.245681             -2.504666
| 16>   H                      8.554469             2.117082             -2.447961
| 17>   C                      9.804271             1.267072             1.363597
| 18>   O                      10.138398            0.228172             0.457149
| 19>   H                      9.374575             -0.323396            0.348087
| 20>   H                      10.687809            1.548635             1.931044
| 21>   H                      9.417866             2.141988             0.889620
| 22>   H                      8.960742             1.047092             2.027602
| 23> *
| 24>
| 25> #Run DFT-D3 single point of the molecule with dimer basis set
| 26> $new_job
| 27> %base "4-161_DFT_A"
| 28> ! wB97X-D3 def2-TZVP TIGHTSCF CHELPG PMODEL
| 29>
| 30> %scf
| 31> MaxIter 1000
| 32> end
| 33>
| 34> * xyz 0 1
| 35>   C                      7.497052             2.270548             -2.229564
| 36>   O                      7.274644             2.219434             -0.824995
| 37>   H                      7.353373             3.087960             -0.498924
| 38>   H                      6.908298             1.511459             -2.771878
| 39>   H                      7.202090             3.245681             -2.504666
| 40>   H                      8.554469             2.117082             -2.447961
| 41>   C                    : 9.804271             1.267072             1.363597
| 42>   O                    : 10.138398            0.228172             0.457149
| 43>   H                    : 9.374575             -0.323396            0.348087
| 44>   H                    : 10.687809            1.548635             1.931044
| 45>   H                    : 9.417866             2.141988             0.889620
| 46>   H                    : 8.960742             1.047092             2.027602
| 47> *
| 48>
| 49> #Run DFT-D3 single point of the particle with dimer basis set
| 50> $new_job
| 51> %base "4-161_DFT_B"
| 52> ! wB97X-D3 def2-TZVP TIGHTSCF CHELPG PMODEL
| 53>
| 54> %scf
| 55> MaxIter 1000
| 56> end
| 57>
| 58> * xyz 0 1
| 59>   C                    : 7.497052             2.270548             -2.229564
| 60>   O                    : 7.274644             2.219434             -0.824995
| 61>   H                    : 7.353373             3.087960             -0.498924
| 62>   H                    : 6.908298             1.511459             -2.771878
| 63>   H                    : 7.202090             3.245681             -2.504666
| 64>   H                    : 8.554469             2.117082             -2.447961
| 65>   C                      9.804271             1.267072             1.363597
| 66>   O                      10.138398            0.228172             0.457149
| 67>   H                      9.374575             -0.323396            0.348087
| 68>   H                      10.687809            1.548635             1.931044
| 69>   H                      9.417866             2.141988             0.889620
| 70>   H                      8.960742             1.047092             2.027602
| 71> *
| 72>
| 73>                          ****END OF INPUT****
 Total Charge           Charge          ....    0
 Multiplicity           Mult            ....    1
 Number of Electrons    NEL             ....   36
Dispersion correction           -0.001721372
FINAL SINGLE POINT ENERGY      -231.468756180910
Dispersion correction           -0.000223534
FINAL SINGLE POINT ENERGY      -115.732826632386

CARTESIAN COORDINATES (ANGSTROEM)
---------------------------------
  C      7.497052    2.270548   -2.229564
  O      7.274644    2.219434   -0.824995
  H      7.353373    3.087960   -0.498924
  H      6.908298    1.511459   -2.771878
  H      7.202090    3.245681   -2.504666
  H      8.554469    2.117082   -2.447961
  C      9.804271    1.267072    1.363597
  O     10.138398    0.228172    0.457149
  H      9.374575   -0.323396    0.348087
  H     10.687809    1.548635    1.931044
  H      9.417866    2.141988    0.889620
  H      8.960742    1.047092    2.027602

 Multiplicity           Mult            ....    1
 Number of Electrons    NEL             ....   18
 Basis Dimension        Dim             ....  172

ORBITAL ENERGIES
----------------

  NO   OCC          E(Eh)            E(eV)
   0   2.0000     -19.230996      -523.3020
   1   2.0000     -10.309956      -280.5482
   2   2.0000      -1.137695       -30.9583
   3   2.0000      -0.800954       -21.7951
   4   2.0000      -0.618576       -16.8323
   5   2.0000      -0.535503       -14.5718
   6   2.0000      -0.526911       -14.3380
   7   2.0000      -0.440393       -11.9837
   8   2.0000      -0.373294       -10.1578
   9   0.0000       0.082489         2.2446
  10   0.0000       0.123492         3.3604
  11   0.0000       0.145309         3.9541
  12   0.0000       0.180195         4.9034
  13   0.0000       0.192827         5.2471

MULLIKEN ATOMIC CHARGES
-----------------------
   0 C :   -0.000673
   1 O :    0.000914
   2 H :   -0.000581
   3 H :    0.000102
   4 H :    0.000020
   5 H :   -0.000617
   6 C :   -0.181551
   7 O :   -0.469531
   8 H :    0.314210
   9 H :    0.126563
  10 H :    0.104671
  11 H :    0.106472
Sum of atomic charges:    0.0000000

LOEWDIN ATOMIC CHARGES
----------------------
   0 C :   -0.001098
   1 O :   -0.002378
   2 H :   -0.002032
   3 H :   -0.000012
   4 H :   -0.000021
   5 H :   -0.000498
   6 C :   -0.381127
   7 O :   -0.070575
   8 H :    0.161769
   9 H :    0.106785
  10 H :    0.090715
  11 H :    0.098472

  Mayer bond orders larger than 0.1
B(  6-C ,  7-O ) :   1.0066 B(  6-C ,  9-H ) :   0.9778 B(  6-C , 10-H ) :   0.9714
B(  6-C , 11-H ) :   0.9805 B(  7-O ,  8-H ) :   0.9026

Dispersion correction           -0.000249789
FINAL SINGLE POINT ENERGY      -115.733608683324

DIPOLE MOMENT
-------------
                                X             Y             Z
Electronic contribution:      0.61857      -1.34307      -1.18438
Nuclear contribution   :     -1.25973       1.40294       1.48027
                        -----------------------------------------
Total Dipole Moment    :     -0.64117       0.05987       0.29589
                        -----------------------------------------
Magnitude (a.u.)       :      0.70868
Magnitude (Debye)      :      1.80133

Rotational constants in cm-1:     4.465965     0.827697     0.788932
Rotational constants in MHz : 133886.263120 24813.733083 23651.590538

                             ****ORCA TERMINATED NORMALLY****
TOTAL RUN TIME: 0 days 0 hours 1 minutes 27 seconds 391 msec
