                         Program Version 4.1.2  - RELEASE  -
|  1> #Run DFT-D3 single point of the dimer
|  2> ! wB97X-D3 def2-TZVP TIGHTSCF CHELPG PMODEL PAL8
|  3>
|  4> %base "20-86_DFT_AB"
|  5>
|  6> %scf
|  7> MaxIter 1000
|  8> end
|  9>
| 10> * xyz 0 1
| 11>   C                      -2.839955            -3.953407            -0.078150
| 12>   O                      -2.008247            -2.946951            0.371114
| 13>   H                      -2.187683            -2.219467            -0.178250
| 14>   H                      -3.058394            -3.772306            -1.120352
| 15>   H                      -2.431864            -4.948480            0.016022
| 16>   H                      -3.792097            -3.920621            0.402216
| 17>   C                      -3.331310            -6.055816            -3.086817
| 18>   O                      -2.105490            -5.613339            -2.688533
| 19>   H                      -1.456967            -6.305582            -2.864196
| 20>   H                      -4.237121            -5.471085            -2.682077
| 21>   H                      -3.476573            -6.009731            -4.181249
| 22>   H                      -3.507395            -7.181582            -2.902595
| 23> *
| 24>
| 25> #Run DFT-D3 single point of the molecule with dimer basis set
| 26> $new_job
| 27> %base "20-86_DFT_A"
| 28> ! wB97X-D3 def2-TZVP TIGHTSCF CHELPG PMODEL
| 29>
| 30> %scf
| 31> MaxIter 1000
| 32> end
| 33>
| 34> * xyz 0 1
| 35>   C                      -2.839955            -3.953407            -0.078150
| 36>   O                      -2.008247            -2.946951            0.371114
| 37>   H                      -2.187683            -2.219467            -0.178250
| 38>   H                      -3.058394            -3.772306            -1.120352
| 39>   H                      -2.431864            -4.948480            0.016022
| 40>   H                      -3.792097            -3.920621            0.402216
| 41>   C                    : -3.331310            -6.055816            -3.086817
| 42>   O                    : -2.105490            -5.613339            -2.688533
| 43>   H                    : -1.456967            -6.305582            -2.864196
| 44>   H                    : -4.237121            -5.471085            -2.682077
| 45>   H                    : -3.476573            -6.009731            -4.181249
| 46>   H                    : -3.507395            -7.181582            -2.902595
| 47> *
| 48>
| 49> #Run DFT-D3 single point of the particle with dimer basis set
| 50> $new_job
| 51> %base "20-86_DFT_B"
| 52> ! wB97X-D3 def2-TZVP TIGHTSCF CHELPG PMODEL
| 53>
| 54> %scf
| 55> MaxIter 1000
| 56> end
| 57>
| 58> * xyz 0 1
| 59>   C                    : -2.839955            -3.953407            -0.078150
| 60>   O                    : -2.008247            -2.946951            0.371114
| 61>   H                    : -2.187683            -2.219467            -0.178250
| 62>   H                    : -3.058394            -3.772306            -1.120352
| 63>   H                    : -2.431864            -4.948480            0.016022
| 64>   H                    : -3.792097            -3.920621            0.402216
| 65>   C                      -3.331310            -6.055816            -3.086817
| 66>   O                      -2.105490            -5.613339            -2.688533
| 67>   H                      -1.456967            -6.305582            -2.864196
| 68>   H                      -4.237121            -5.471085            -2.682077
| 69>   H                      -3.476573            -6.009731            -4.181249
| 70>   H                      -3.507395            -7.181582            -2.902595
| 71> *
| 72>
| 73>                          ****END OF INPUT****
 Total Charge           Charge          ....    0
 Multiplicity           Mult            ....    1
 Number of Electrons    NEL             ....   36
Dispersion correction           -0.001879117
FINAL SINGLE POINT ENERGY      -231.461217140330
Dispersion correction           -0.000207890
FINAL SINGLE POINT ENERGY      -115.731818198975

CARTESIAN COORDINATES (ANGSTROEM)
---------------------------------
  C     -2.839955   -3.953407   -0.078150
  O     -2.008247   -2.946951    0.371114
  H     -2.187683   -2.219467   -0.178250
  H     -3.058394   -3.772306   -1.120352
  H     -2.431864   -4.948480    0.016022
  H     -3.792097   -3.920621    0.402216
  C     -3.331310   -6.055816   -3.086817
  O     -2.105490   -5.613339   -2.688533
  H     -1.456967   -6.305582   -2.864196
  H     -4.237121   -5.471085   -2.682077
  H     -3.476573   -6.009731   -4.181249
  H     -3.507395   -7.181582   -2.902595

 Multiplicity           Mult            ....    1
 Number of Electrons    NEL             ....   18
 Basis Dimension        Dim             ....  172

ORBITAL ENERGIES
----------------

  NO   OCC          E(Eh)            E(eV)
   0   2.0000     -19.237898      -523.4898
   1   2.0000     -10.322827      -280.8984
   2   2.0000      -1.156431       -31.4681
   3   2.0000      -0.786973       -21.4146
   4   2.0000      -0.625290       -17.0150
   5   2.0000      -0.537141       -14.6163
   6   2.0000      -0.532832       -14.4991
   7   2.0000      -0.429734       -11.6936
   8   2.0000      -0.368465       -10.0264
   9   0.0000       0.096057         2.6138
  10   0.0000       0.120861         3.2888
  11   0.0000       0.146790         3.9944
  12   0.0000       0.180083         4.9003
  13   0.0000       0.196243         5.3400

MULLIKEN ATOMIC CHARGES
-----------------------
   0 C :    0.008810
   1 O :   -0.000177
   2 H :   -0.000028
   3 H :   -0.003081
   4 H :   -0.009657
   5 H :   -0.000452
   6 C :   -0.178763
   7 O :   -0.446883
   8 H :    0.321555
   9 H :    0.117137
  10 H :    0.098257
  11 H :    0.093284
Sum of atomic charges:    0.0000000

LOEWDIN ATOMIC CHARGES
----------------------
   0 C :   -0.012673
   1 O :   -0.000026
   2 H :   -0.000028
   3 H :   -0.005652
   4 H :   -0.005701
   5 H :   -0.000122
   6 C :   -0.446480
   7 O :   -0.018898
   8 H :    0.180927
   9 H :    0.118243
  10 H :    0.090713
  11 H :    0.099697

  Mayer bond orders larger than 0.1
B(  6-C ,  7-O ) :   1.0099 B(  6-C ,  9-H ) :   0.9702 B(  6-C , 10-H ) :   0.9697
B(  6-C , 11-H ) :   0.9790 B(  7-O ,  8-H ) :   0.8896

Dispersion correction           -0.000250373
FINAL SINGLE POINT ENERGY      -115.728713415138

DIPOLE MOMENT
-------------
                                X             Y             Z
Electronic contribution:      1.75275       0.84385       0.70582
Nuclear contribution   :     -1.75737      -1.43624      -0.97518
                        -----------------------------------------
Total Dipole Moment    :     -0.00462      -0.59238      -0.26936
                        -----------------------------------------
Magnitude (a.u.)       :      0.65077
Magnitude (Debye)      :      1.65412

Rotational constants in cm-1:     4.212836     0.863620     0.818887
Rotational constants in MHz : 126297.641569 25890.671168 24549.605238

                             ****ORCA TERMINATED NORMALLY****
TOTAL RUN TIME: 0 days 0 hours 1 minutes 1 seconds 366 msec
