                         Program Version 4.1.2  - RELEASE  -
|  1> #Run DFT-D3 single point of the dimer
|  2> ! wB97X-D3 def2-TZVP TIGHTSCF CHELPG PMODEL PAL8
|  3>
|  4> %base "21-137_DFT_AB"
|  5>
|  6> %scf
|  7> MaxIter 1000
|  8> end
|  9>
| 10> * xyz 0 1
| 11>   C                      10.289126            -2.634421            -1.941004
| 12>   O                      9.433432             -3.716244            -2.341455
| 13>   H                      9.747974             -4.128017            -3.118309
| 14>   H                      10.432611            -1.866400            -2.787029
| 15>   H                      9.803779             -2.111440            -1.050015
| 16>   H                      11.290492            -3.035278            -1.606334
| 17>   C                      7.172818             -0.603873            -0.970742
| 18>   O                      8.116785             -0.080905            -1.887271
| 19>   H                      7.675799             0.293743             -2.663364
| 20>   H                      6.370550             0.113535             -0.950695
| 21>   H                      6.835261             -1.662762            -1.272122
| 22>   H                      7.668848             -0.633000            0.010413
| 23> *
| 24>
| 25> #Run DFT-D3 single point of the molecule with dimer basis set
| 26> $new_job
| 27> %base "21-137_DFT_A"
| 28> ! wB97X-D3 def2-TZVP TIGHTSCF CHELPG PMODEL
| 29>
| 30> %scf
| 31> MaxIter 1000
| 32> end
| 33>
| 34> * xyz 0 1
| 35>   C                      10.289126            -2.634421            -1.941004
| 36>   O                      9.433432             -3.716244            -2.341455
| 37>   H                      9.747974             -4.128017            -3.118309
| 38>   H                      10.432611            -1.866400            -2.787029
| 39>   H                      9.803779             -2.111440            -1.050015
| 40>   H                      11.290492            -3.035278            -1.606334
| 41>   C                    : 7.172818             -0.603873            -0.970742
| 42>   O                    : 8.116785             -0.080905            -1.887271
| 43>   H                    : 7.675799             0.293743             -2.663364
| 44>   H                    : 6.370550             0.113535             -0.950695
| 45>   H                    : 6.835261             -1.662762            -1.272122
| 46>   H                    : 7.668848             -0.633000            0.010413
| 47> *
| 48>
| 49> #Run DFT-D3 single point of the particle with dimer basis set
| 50> $new_job
| 51> %base "21-137_DFT_B"
| 52> ! wB97X-D3 def2-TZVP TIGHTSCF CHELPG PMODEL
| 53>
| 54> %scf
| 55> MaxIter 1000
| 56> end
| 57>
| 58> * xyz 0 1
| 59>   C                    : 10.289126            -2.634421            -1.941004
| 60>   O                    : 9.433432             -3.716244            -2.341455
| 61>   H                    : 9.747974             -4.128017            -3.118309
| 62>   H                    : 10.432611            -1.866400            -2.787029
| 63>   H                    : 9.803779             -2.111440            -1.050015
| 64>   H                    : 11.290492            -3.035278            -1.606334
| 65>   C                      7.172818             -0.603873            -0.970742
| 66>   O                      8.116785             -0.080905            -1.887271
| 67>   H                      7.675799             0.293743             -2.663364
| 68>   H                      6.370550             0.113535             -0.950695
| 69>   H                      6.835261             -1.662762            -1.272122
| 70>   H                      7.668848             -0.633000            0.010413
| 71> *
| 72>
| 73>                          ****END OF INPUT****
 Total Charge           Charge          ....    0
 Multiplicity           Mult            ....    1
 Number of Electrons    NEL             ....   36
Dispersion correction           -0.001944457
FINAL SINGLE POINT ENERGY      -231.467181804969
Dispersion correction           -0.000273729
FINAL SINGLE POINT ENERGY      -115.732348723821

CARTESIAN COORDINATES (ANGSTROEM)
---------------------------------
  C     10.289126   -2.634421   -1.941004
  O      9.433432   -3.716244   -2.341455
  H      9.747974   -4.128017   -3.118309
  H     10.432611   -1.866400   -2.787029
  H      9.803779   -2.111440   -1.050015
  H     11.290492   -3.035278   -1.606334
  C      7.172818   -0.603873   -0.970742
  O      8.116785   -0.080905   -1.887271
  H      7.675799    0.293743   -2.663364
  H      6.370550    0.113535   -0.950695
  H      6.835261   -1.662762   -1.272122
  H      7.668848   -0.633000    0.010413

 Multiplicity           Mult            ....    1
 Number of Electrons    NEL             ....   18
 Basis Dimension        Dim             ....  172

ORBITAL ENERGIES
----------------

  NO   OCC          E(Eh)            E(eV)
   0   2.0000     -19.226640      -523.1835
   1   2.0000     -10.318694      -280.7859
   2   2.0000      -1.131762       -30.7968
   3   2.0000      -0.791041       -21.5253
   4   2.0000      -0.606399       -16.5010
   5   2.0000      -0.542081       -14.7508
   6   2.0000      -0.528069       -14.3695
   7   2.0000      -0.426823       -11.6145
   8   2.0000      -0.371111       -10.0984
   9   0.0000       0.093383         2.5411
  10   0.0000       0.122359         3.3296
  11   0.0000       0.150850         4.1048
  12   0.0000       0.172128         4.6838
  13   0.0000       0.196409         5.3446

MULLIKEN ATOMIC CHARGES
-----------------------
   0 C :    0.003940
   1 O :   -0.000727
   2 H :   -0.000096
   3 H :   -0.005004
   4 H :    0.000470
   5 H :   -0.000136
   6 C :   -0.152035
   7 O :   -0.487501
   8 H :    0.314571
   9 H :    0.108166
  10 H :    0.096344
  11 H :    0.122008
Sum of atomic charges:   -0.0000000

LOEWDIN ATOMIC CHARGES
----------------------
   0 C :   -0.009454
   1 O :   -0.000153
   2 H :   -0.000018
   3 H :   -0.003484
   4 H :   -0.003632
   5 H :   -0.000080
   6 C :   -0.382637
   7 O :   -0.077929
   8 H :    0.170040
   9 H :    0.093207
  10 H :    0.103830
  11 H :    0.110310

  Mayer bond orders larger than 0.1
B(  6-C ,  7-O ) :   0.9863 B(  6-C ,  9-H ) :   0.9826 B(  6-C , 10-H ) :   0.9696
B(  6-C , 11-H ) :   0.9746 B(  7-O ,  8-H ) :   0.8959

Dispersion correction           -0.000241163
FINAL SINGLE POINT ENERGY      -115.733173152383

DIPOLE MOMENT
-------------
                                X             Y             Z
Electronic contribution:      1.21383       0.61651      -1.00951
Nuclear contribution   :     -1.87721      -0.54409       0.89683
                        -----------------------------------------
Total Dipole Moment    :     -0.66338       0.07242      -0.11268
                        -----------------------------------------
Magnitude (a.u.)       :      0.67677
Magnitude (Debye)      :      1.72021

Rotational constants in cm-1:     4.110024     0.830286     0.807830
Rotational constants in MHz : 123215.408518 24891.361496 24218.121502

                             ****ORCA TERMINATED NORMALLY****
TOTAL RUN TIME: 0 days 0 hours 0 minutes 57 seconds 622 msec
