                         Program Version 4.1.2  - RELEASE  -
|  1> #Run DFT-D3 single point of the dimer
|  2> ! wB97X-D3 def2-TZVP TIGHTSCF CHELPG PMODEL PAL8
|  3>
|  4> %base "15-62_DFT_AB"
|  5>
|  6> %scf
|  7> MaxIter 1000
|  8> end
|  9>
| 10> * xyz 0 1
| 11>   C                      0.395747             0.499302             3.166637
| 12>   O                      -0.741435            1.109411             2.820772
| 13>   H                      -1.443136            0.800324             3.428644
| 14>   H                      0.572906             0.753819             4.234277
| 15>   H                      0.320529             -0.597235            3.056164
| 16>   H                      1.203881             0.845296             2.442496
| 17>   C                      -1.713495            5.070337             3.795693
| 18>   O                      -2.160120            3.684679             4.068545
| 19>   H                      -1.564629            3.057813             3.648862
| 20>   H                      -1.778877            5.212107             2.696069
| 21>   H                      -2.412426            5.766680             4.321625
| 22>   H                      -0.781324            5.349561             4.199004
| 23> *
| 24>
| 25> #Run DFT-D3 single point of the molecule with dimer basis set
| 26> $new_job
| 27> %base "15-62_DFT_A"
| 28> ! wB97X-D3 def2-TZVP TIGHTSCF CHELPG PMODEL
| 29>
| 30> %scf
| 31> MaxIter 1000
| 32> end
| 33>
| 34> * xyz 0 1
| 35>   C                      0.395747             0.499302             3.166637
| 36>   O                      -0.741435            1.109411             2.820772
| 37>   H                      -1.443136            0.800324             3.428644
| 38>   H                      0.572906             0.753819             4.234277
| 39>   H                      0.320529             -0.597235            3.056164
| 40>   H                      1.203881             0.845296             2.442496
| 41>   C                    : -1.713495            5.070337             3.795693
| 42>   O                    : -2.160120            3.684679             4.068545
| 43>   H                    : -1.564629            3.057813             3.648862
| 44>   H                    : -1.778877            5.212107             2.696069
| 45>   H                    : -2.412426            5.766680             4.321625
| 46>   H                    : -0.781324            5.349561             4.199004
| 47> *
| 48>
| 49> #Run DFT-D3 single point of the particle with dimer basis set
| 50> $new_job
| 51> %base "15-62_DFT_B"
| 52> ! wB97X-D3 def2-TZVP TIGHTSCF CHELPG PMODEL
| 53>
| 54> %scf
| 55> MaxIter 1000
| 56> end
| 57>
| 58> * xyz 0 1
| 59>   C                    : 0.395747             0.499302             3.166637
| 60>   O                    : -0.741435            1.109411             2.820772
| 61>   H                    : -1.443136            0.800324             3.428644
| 62>   H                    : 0.572906             0.753819             4.234277
| 63>   H                    : 0.320529             -0.597235            3.056164
| 64>   H                    : 1.203881             0.845296             2.442496
| 65>   C                      -1.713495            5.070337             3.795693
| 66>   O                      -2.160120            3.684679             4.068545
| 67>   H                      -1.564629            3.057813             3.648862
| 68>   H                      -1.778877            5.212107             2.696069
| 69>   H                      -2.412426            5.766680             4.321625
| 70>   H                      -0.781324            5.349561             4.199004
| 71> *
| 72>
| 73>                          ****END OF INPUT****
 Total Charge           Charge          ....    0
 Multiplicity           Mult            ....    1
 Number of Electrons    NEL             ....   36
Dispersion correction           -0.001377203
FINAL SINGLE POINT ENERGY      -231.464977444550
Dispersion correction           -0.000199292
FINAL SINGLE POINT ENERGY      -115.728566224874

CARTESIAN COORDINATES (ANGSTROEM)
---------------------------------
  C      0.395747    0.499302    3.166637
  O     -0.741435    1.109411    2.820772
  H     -1.443136    0.800324    3.428644
  H      0.572906    0.753819    4.234277
  H      0.320529   -0.597235    3.056164
  H      1.203881    0.845296    2.442496
  C     -1.713495    5.070337    3.795693
  O     -2.160120    3.684679    4.068545
  H     -1.564629    3.057813    3.648862
  H     -1.778877    5.212107    2.696069
  H     -2.412426    5.766680    4.321625
  H     -0.781324    5.349561    4.199004

 Multiplicity           Mult            ....    1
 Number of Electrons    NEL             ....   18
 Basis Dimension        Dim             ....  172

ORBITAL ENERGIES
----------------

  NO   OCC          E(Eh)            E(eV)
   0   2.0000     -19.228663      -523.2385
   1   2.0000     -10.319712      -280.8136
   2   2.0000      -1.114859       -30.3369
   3   2.0000      -0.799735       -21.7619
   4   2.0000      -0.597552       -16.2602
   5   2.0000      -0.545911       -14.8550
   6   2.0000      -0.512132       -13.9358
   7   2.0000      -0.431683       -11.7467
   8   2.0000      -0.377149       -10.2627
   9   0.0000       0.074795         2.0353
  10   0.0000       0.128285         3.4908
  11   0.0000       0.145284         3.9534
  12   0.0000       0.179164         4.8753
  13   0.0000       0.191497         5.2109

MULLIKEN ATOMIC CHARGES
-----------------------
   0 C :   -0.001556
   1 O :    0.000610
   2 H :   -0.000279
   3 H :   -0.000196
   4 H :   -0.000034
   5 H :    0.000029
   6 C :   -0.164022
   7 O :   -0.488121
   8 H :    0.308147
   9 H :    0.112376
  10 H :    0.119907
  11 H :    0.113139
Sum of atomic charges:   -0.0000000

LOEWDIN ATOMIC CHARGES
----------------------
   0 C :   -0.001723
   1 O :   -0.007786
   2 H :   -0.002564
   3 H :   -0.000302
   4 H :   -0.000043
   5 H :   -0.000029
   6 C :   -0.336441
   7 O :   -0.120656
   8 H :    0.165033
   9 H :    0.103002
  10 H :    0.115627
  11 H :    0.085882

  Mayer bond orders larger than 0.1
B(  6-C ,  7-O ) :   0.9882 B(  6-C ,  9-H ) :   0.9813 B(  6-C , 10-H ) :   0.9738
B(  6-C , 11-H ) :   0.9665 B(  7-O ,  8-H ) :   0.9068

Dispersion correction           -0.000275719
FINAL SINGLE POINT ENERGY      -115.730630893964

DIPOLE MOMENT
-------------
                                X             Y             Z
Electronic contribution:     -0.51713      -1.62662       0.40214
Nuclear contribution   :      1.09317       1.85241      -0.76925
                        -----------------------------------------
Total Dipole Moment    :      0.57604       0.22579      -0.36711
                        -----------------------------------------
Magnitude (a.u.)       :      0.71943
Magnitude (Debye)      :      1.82864

Rotational constants in cm-1:     4.303407     0.767475     0.743855
Rotational constants in MHz : 129012.884905 23008.313970 22300.199085

                             ****ORCA TERMINATED NORMALLY****
TOTAL RUN TIME: 0 days 0 hours 1 minutes 2 seconds 610 msec
