                         Program Version 4.1.2  - RELEASE  -
|  1> #Run DFT-D3 single point of the dimer
|  2> ! wB97X-D3 def2-TZVP TIGHTSCF CHELPG PMODEL PAL8
|  3>
|  4> %base "15-102_DFT_AB"
|  5>
|  6> %scf
|  7> MaxIter 1000
|  8> end
|  9>
| 10> * xyz 0 1
| 11>   C                      -3.521737            -6.032928            -3.997539
| 12>   O                      -3.209134            -4.842496            -3.204906
| 13>   H                      -3.319984            -4.094860            -3.795784
| 14>   H                      -3.627151            -6.940647            -3.414398
| 15>   H                      -4.523750            -5.897630            -4.422226
| 16>   H                      -2.762533            -6.264531            -4.740990
| 17>   C                      1.674890             -5.070432            -4.306692
| 18>   O                      0.651857             -4.569950            -3.366266
| 19>   H                      1.142490             -4.351245            -2.580795
| 20>   H                      2.465199             -4.304580            -4.429567
| 21>   H                      2.164696             -5.972457            -3.822451
| 22>   H                      1.296751             -5.369933            -5.330497
| 23> *
| 24>
| 25> #Run DFT-D3 single point of the molecule with dimer basis set
| 26> $new_job
| 27> %base "15-102_DFT_A"
| 28> ! wB97X-D3 def2-TZVP TIGHTSCF CHELPG PMODEL
| 29>
| 30> %scf
| 31> MaxIter 1000
| 32> end
| 33>
| 34> * xyz 0 1
| 35>   C                      -3.521737            -6.032928            -3.997539
| 36>   O                      -3.209134            -4.842496            -3.204906
| 37>   H                      -3.319984            -4.094860            -3.795784
| 38>   H                      -3.627151            -6.940647            -3.414398
| 39>   H                      -4.523750            -5.897630            -4.422226
| 40>   H                      -2.762533            -6.264531            -4.740990
| 41>   C                    : 1.674890             -5.070432            -4.306692
| 42>   O                    : 0.651857             -4.569950            -3.366266
| 43>   H                    : 1.142490             -4.351245            -2.580795
| 44>   H                    : 2.465199             -4.304580            -4.429567
| 45>   H                    : 2.164696             -5.972457            -3.822451
| 46>   H                    : 1.296751             -5.369933            -5.330497
| 47> *
| 48>
| 49> #Run DFT-D3 single point of the particle with dimer basis set
| 50> $new_job
| 51> %base "15-102_DFT_B"
| 52> ! wB97X-D3 def2-TZVP TIGHTSCF CHELPG PMODEL
| 53>
| 54> %scf
| 55> MaxIter 1000
| 56> end
| 57>
| 58> * xyz 0 1
| 59>   C                    : -3.521737            -6.032928            -3.997539
| 60>   O                    : -3.209134            -4.842496            -3.204906
| 61>   H                    : -3.319984            -4.094860            -3.795784
| 62>   H                    : -3.627151            -6.940647            -3.414398
| 63>   H                    : -4.523750            -5.897630            -4.422226
| 64>   H                    : -2.762533            -6.264531            -4.740990
| 65>   C                      1.674890             -5.070432            -4.306692
| 66>   O                      0.651857             -4.569950            -3.366266
| 67>   H                      1.142490             -4.351245            -2.580795
| 68>   H                      2.465199             -4.304580            -4.429567
| 69>   H                      2.164696             -5.972457            -3.822451
| 70>   H                      1.296751             -5.369933            -5.330497
| 71> *
| 72>
| 73>                          ****END OF INPUT****
 Total Charge           Charge          ....    0
 Multiplicity           Mult            ....    1
 Number of Electrons    NEL             ....   36
Dispersion correction           -0.000936300
FINAL SINGLE POINT ENERGY      -231.461763974073
Dispersion correction           -0.000258880
FINAL SINGLE POINT ENERGY      -115.732758168533

CARTESIAN COORDINATES (ANGSTROEM)
---------------------------------
  C     -3.521737   -6.032928   -3.997539
  O     -3.209134   -4.842496   -3.204906
  H     -3.319984   -4.094860   -3.795784
  H     -3.627151   -6.940647   -3.414398
  H     -4.523750   -5.897630   -4.422226
  H     -2.762533   -6.264531   -4.740990
  C      1.674890   -5.070432   -4.306692
  O      0.651857   -4.569950   -3.366266
  H      1.142490   -4.351245   -2.580795
  H      2.465199   -4.304580   -4.429567
  H      2.164696   -5.972457   -3.822451
  H      1.296751   -5.369933   -5.330497

 Multiplicity           Mult            ....    1
 Number of Electrons    NEL             ....   18
 Basis Dimension        Dim             ....  172

ORBITAL ENERGIES
----------------

  NO   OCC          E(Eh)            E(eV)
   0   2.0000     -19.230884      -523.2990
   1   2.0000     -10.330174      -281.0983
   2   2.0000      -1.122947       -30.5569
   3   2.0000      -0.790171       -21.5016
   4   2.0000      -0.597418       -16.2566
   5   2.0000      -0.531386       -14.4597
   6   2.0000      -0.523380       -14.2419
   7   2.0000      -0.438623       -11.9355
   8   2.0000      -0.374091       -10.1795
   9   0.0000       0.095520         2.5992
  10   0.0000       0.115710         3.1486
  11   0.0000       0.145566         3.9611
  12   0.0000       0.177575         4.8321
  13   0.0000       0.186734         5.0813

MULLIKEN ATOMIC CHARGES
-----------------------
   0 C :   -0.000748
   1 O :   -0.000232
   2 H :   -0.000260
   3 H :    0.000084
   4 H :   -0.000038
   5 H :   -0.000269
   6 C :   -0.182781
   7 O :   -0.474249
   8 H :    0.311915
   9 H :    0.111612
  10 H :    0.106728
  11 H :    0.128240
Sum of atomic charges:    0.0000000

LOEWDIN ATOMIC CHARGES
----------------------
   0 C :   -0.000618
   1 O :   -0.000447
   2 H :   -0.000266
   3 H :   -0.000005
   4 H :   -0.000018
   5 H :   -0.000148
   6 C :   -0.354334
   7 O :   -0.119198
   8 H :    0.159840
   9 H :    0.096909
  10 H :    0.102779
  11 H :    0.115506

  Mayer bond orders larger than 0.1
B(  6-C ,  7-O ) :   0.9825 B(  6-C ,  9-H ) :   0.9733 B(  6-C , 10-H ) :   0.9774
B(  6-C , 11-H ) :   0.9685 B(  7-O ,  8-H ) :   0.9028

Dispersion correction           -0.000261122
FINAL SINGLE POINT ENERGY      -115.729986259335

DIPOLE MOMENT
-------------
                                X             Y             Z
Electronic contribution:     -1.46422       0.63210       0.97176
Nuclear contribution   :      2.21228      -0.70170      -0.88351
                        -----------------------------------------
Total Dipole Moment    :      0.74806      -0.06960       0.08825
                        -----------------------------------------
Magnitude (a.u.)       :      0.75646
Magnitude (Debye)      :      1.92276

Rotational constants in cm-1:     4.102123     0.772472     0.743814
Rotational constants in MHz : 122978.562849 23158.139522 22298.973280

                             ****ORCA TERMINATED NORMALLY****
TOTAL RUN TIME: 0 days 0 hours 0 minutes 51 seconds 896 msec
