                         Program Version 4.1.2  - RELEASE  -
|  1> #Run DFT-D3 single point of the dimer
|  2> ! wB97X-D3 def2-TZVP TIGHTSCF CHELPG PMODEL PAL8
|  3>
|  4> %base "8-64_DFT_AB"
|  5>
|  6> %scf
|  7> MaxIter 1000
|  8> end
|  9>
| 10> * xyz 0 1
| 11>   C                      -1.670944            -9.559233            3.799074
| 12>   O                      -0.481268            -9.603435            3.036567
| 13>   H                      -0.736108            -9.305396            2.153526
| 14>   H                      -2.402088            -10.358033           3.567388
| 15>   H                      -1.449708            -9.797974            4.816966
| 16>   H                      -2.153882            -8.556090            3.774826
| 17>   C                      -5.450394            -7.017792            1.970977
| 18>   O                      -6.042229            -6.920867            0.673254
| 19>   H                      -6.564923            -7.763865            0.522771
| 20>   H                      -4.782055            -7.916130            2.135093
| 21>   H                      -4.793322            -6.180792            2.074901
| 22>   H                      -6.219856            -6.898667            2.649508
| 23> *
| 24>
| 25> #Run DFT-D3 single point of the molecule with dimer basis set
| 26> $new_job
| 27> %base "8-64_DFT_A"
| 28> ! wB97X-D3 def2-TZVP TIGHTSCF CHELPG PMODEL
| 29>
| 30> %scf
| 31> MaxIter 1000
| 32> end
| 33>
| 34> * xyz 0 1
| 35>   C                      -1.670944            -9.559233            3.799074
| 36>   O                      -0.481268            -9.603435            3.036567
| 37>   H                      -0.736108            -9.305396            2.153526
| 38>   H                      -2.402088            -10.358033           3.567388
| 39>   H                      -1.449708            -9.797974            4.816966
| 40>   H                      -2.153882            -8.556090            3.774826
| 41>   C                    : -5.450394            -7.017792            1.970977
| 42>   O                    : -6.042229            -6.920867            0.673254
| 43>   H                    : -6.564923            -7.763865            0.522771
| 44>   H                    : -4.782055            -7.916130            2.135093
| 45>   H                    : -4.793322            -6.180792            2.074901
| 46>   H                    : -6.219856            -6.898667            2.649508
| 47> *
| 48>
| 49> #Run DFT-D3 single point of the particle with dimer basis set
| 50> $new_job
| 51> %base "8-64_DFT_B"
| 52> ! wB97X-D3 def2-TZVP TIGHTSCF CHELPG PMODEL
| 53>
| 54> %scf
| 55> MaxIter 1000
| 56> end
| 57>
| 58> * xyz 0 1
| 59>   C                    : -1.670944            -9.559233            3.799074
| 60>   O                    : -0.481268            -9.603435            3.036567
| 61>   H                    : -0.736108            -9.305396            2.153526
| 62>   H                    : -2.402088            -10.358033           3.567388
| 63>   H                    : -1.449708            -9.797974            4.816966
| 64>   H                    : -2.153882            -8.556090            3.774826
| 65>   C                      -5.450394            -7.017792            1.970977
| 66>   O                      -6.042229            -6.920867            0.673254
| 67>   H                      -6.564923            -7.763865            0.522771
| 68>   H                      -4.782055            -7.916130            2.135093
| 69>   H                      -4.793322            -6.180792            2.074901
| 70>   H                      -6.219856            -6.898667            2.649508
| 71> *
| 72>
| 73>                          ****END OF INPUT****
 Total Charge           Charge          ....    0
 Multiplicity           Mult            ....    1
 Number of Electrons    NEL             ....   36
Dispersion correction           -0.000895395
FINAL SINGLE POINT ENERGY      -231.464658087815
Dispersion correction           -0.000248263
FINAL SINGLE POINT ENERGY      -115.734761040596

CARTESIAN COORDINATES (ANGSTROEM)
---------------------------------
  C     -1.670944   -9.559233    3.799074
  O     -0.481268   -9.603435    3.036567
  H     -0.736108   -9.305396    2.153526
  H     -2.402088  -10.358033    3.567388
  H     -1.449708   -9.797974    4.816966
  H     -2.153882   -8.556090    3.774826
  C     -5.450394   -7.017792    1.970977
  O     -6.042229   -6.920867    0.673254
  H     -6.564923   -7.763865    0.522771
  H     -4.782055   -7.916130    2.135093
  H     -4.793322   -6.180792    2.074901
  H     -6.219856   -6.898667    2.649508

 Multiplicity           Mult            ....    1
 Number of Electrons    NEL             ....   18
 Basis Dimension        Dim             ....  172

ORBITAL ENERGIES
----------------

  NO   OCC          E(Eh)            E(eV)
   0   2.0000     -19.231627      -523.3192
   1   2.0000     -10.307637      -280.4851
   2   2.0000      -1.123051       -30.5598
   3   2.0000      -0.796184       -21.6653
   4   2.0000      -0.597713       -16.2646
   5   2.0000      -0.553822       -15.0703
   6   2.0000      -0.520333       -14.1590
   7   2.0000      -0.430147       -11.7049
   8   2.0000      -0.374540       -10.1917
   9   0.0000       0.081222         2.2102
  10   0.0000       0.113311         3.0834
  11   0.0000       0.149128         4.0580
  12   0.0000       0.163879         4.4594
  13   0.0000       0.183919         5.0047

MULLIKEN ATOMIC CHARGES
-----------------------
   0 C :    0.000489
   1 O :   -0.000006
   2 H :   -0.000033
   3 H :   -0.000172
   4 H :   -0.000038
   5 H :   -0.000751
   6 C :   -0.160518
   7 O :   -0.484878
   8 H :    0.314900
   9 H :    0.101359
  10 H :    0.117776
  11 H :    0.111873
Sum of atomic charges:   -0.0000000

LOEWDIN ATOMIC CHARGES
----------------------
   0 C :   -0.000621
   1 O :   -0.000005
   2 H :   -0.000010
   3 H :   -0.000110
   4 H :   -0.000004
   5 H :   -0.000645
   6 C :   -0.372394
   7 O :   -0.108614
   8 H :    0.190513
   9 H :    0.103727
  10 H :    0.104625
  11 H :    0.083539

  Mayer bond orders larger than 0.1
B(  6-C ,  7-O ) :   0.9962 B(  6-C ,  9-H ) :   0.9708 B(  6-C , 10-H ) :   0.9739
B(  6-C , 11-H ) :   0.9829 B(  7-O ,  8-H ) :   0.8954

Dispersion correction           -0.000242445
FINAL SINGLE POINT ENERGY      -115.729567192042

DIPOLE MOMENT
-------------
                                X             Y             Z
Electronic contribution:     -0.72586       0.21931      -1.57104
Nuclear contribution   :      0.64674      -0.74506       2.01087
                        -----------------------------------------
Total Dipole Moment    :     -0.07912      -0.52575       0.43982
                        -----------------------------------------
Magnitude (a.u.)       :      0.69001
Magnitude (Debye)      :      1.75387

Rotational constants in cm-1:     4.281973     0.819095     0.794846
Rotational constants in MHz : 128370.310570 24555.854720 23828.875700

                             ****ORCA TERMINATED NORMALLY****
TOTAL RUN TIME: 0 days 0 hours 0 minutes 43 seconds 313 msec
