                         Program Version 4.1.2  - RELEASE  -
|  1> #Run DFT-D3 single point of the dimer
|  2> ! wB97X-D3 def2-TZVP TIGHTSCF CHELPG PMODEL PAL8
|  3>
|  4> %base "8-132_DFT_AB"
|  5>
|  6> %scf
|  7> MaxIter 1000
|  8> end
|  9>
| 10> * xyz 0 1
| 11>   C                      -3.245610            4.766604             5.925738
| 12>   O                      -2.105204            5.526825             5.753957
| 13>   H                      -2.061038            5.470847             4.812791
| 14>   H                      -3.398093            4.514218             6.964937
| 15>   H                      -4.115643            5.335577             5.674308
| 16>   H                      -3.145554            3.834048             5.296263
| 17>   C                      -2.448626            5.690601             9.930628
| 18>   O                      -2.384524            6.628050             8.851840
| 19>   H                      -1.761138            6.529912             8.172932
| 20>   H                      -1.634249            5.681301             10.645902
| 21>   H                      -3.371178            5.764819             10.581678
| 22>   H                      -2.443107            4.654184             9.502492
| 23> *
| 24>
| 25> #Run DFT-D3 single point of the molecule with dimer basis set
| 26> $new_job
| 27> %base "8-132_DFT_A"
| 28> ! wB97X-D3 def2-TZVP TIGHTSCF CHELPG PMODEL
| 29>
| 30> %scf
| 31> MaxIter 1000
| 32> end
| 33>
| 34> * xyz 0 1
| 35>   C                      -3.245610            4.766604             5.925738
| 36>   O                      -2.105204            5.526825             5.753957
| 37>   H                      -2.061038            5.470847             4.812791
| 38>   H                      -3.398093            4.514218             6.964937
| 39>   H                      -4.115643            5.335577             5.674308
| 40>   H                      -3.145554            3.834048             5.296263
| 41>   C                    : -2.448626            5.690601             9.930628
| 42>   O                    : -2.384524            6.628050             8.851840
| 43>   H                    : -1.761138            6.529912             8.172932
| 44>   H                    : -1.634249            5.681301             10.645902
| 45>   H                    : -3.371178            5.764819             10.581678
| 46>   H                    : -2.443107            4.654184             9.502492
| 47> *
| 48>
| 49> #Run DFT-D3 single point of the particle with dimer basis set
| 50> $new_job
| 51> %base "8-132_DFT_B"
| 52> ! wB97X-D3 def2-TZVP TIGHTSCF CHELPG PMODEL
| 53>
| 54> %scf
| 55> MaxIter 1000
| 56> end
| 57>
| 58> * xyz 0 1
| 59>   C                    : -3.245610            4.766604             5.925738
| 60>   O                    : -2.105204            5.526825             5.753957
| 61>   H                    : -2.061038            5.470847             4.812791
| 62>   H                    : -3.398093            4.514218             6.964937
| 63>   H                    : -4.115643            5.335577             5.674308
| 64>   H                    : -3.145554            3.834048             5.296263
| 65>   C                      -2.448626            5.690601             9.930628
| 66>   O                      -2.384524            6.628050             8.851840
| 67>   H                      -1.761138            6.529912             8.172932
| 68>   H                      -1.634249            5.681301             10.645902
| 69>   H                      -3.371178            5.764819             10.581678
| 70>   H                      -2.443107            4.654184             9.502492
| 71> *
| 72>
| 73>                          ****END OF INPUT****
 Total Charge           Charge          ....    0
 Multiplicity           Mult            ....    1
 Number of Electrons    NEL             ....   36
Dispersion correction           -0.001845158
FINAL SINGLE POINT ENERGY      -231.460358237212
Dispersion correction           -0.000191737
FINAL SINGLE POINT ENERGY      -115.729374035142

CARTESIAN COORDINATES (ANGSTROEM)
---------------------------------
  C     -3.245610    4.766604    5.925738
  O     -2.105204    5.526825    5.753957
  H     -2.061038    5.470847    4.812791
  H     -3.398093    4.514218    6.964937
  H     -4.115643    5.335577    5.674308
  H     -3.145554    3.834048    5.296263
  C     -2.448626    5.690601    9.930628
  O     -2.384524    6.628050    8.851840
  H     -1.761138    6.529912    8.172932
  H     -1.634249    5.681301   10.645902
  H     -3.371178    5.764819   10.581678
  H     -2.443107    4.654184    9.502492

 Multiplicity           Mult            ....    1
 Number of Electrons    NEL             ....   18
 Basis Dimension        Dim             ....  172

ORBITAL ENERGIES
----------------

  NO   OCC          E(Eh)            E(eV)
   0   2.0000     -19.226632      -523.1833
   1   2.0000     -10.324399      -280.9412
   2   2.0000      -1.131681       -30.7946
   3   2.0000      -0.803579       -21.8665
   4   2.0000      -0.620474       -16.8839
   5   2.0000      -0.533706       -14.5229
   6   2.0000      -0.525031       -14.2868
   7   2.0000      -0.419192       -11.4068
   8   2.0000      -0.374683       -10.1956
   9   0.0000       0.082510         2.2452
  10   0.0000       0.133423         3.6306
  11   0.0000       0.140571         3.8251
  12   0.0000       0.170879         4.6499
  13   0.0000       0.193133         5.2554

MULLIKEN ATOMIC CHARGES
-----------------------
   0 C :   -0.007618
   1 O :   -0.000602
   2 H :   -0.000096
   3 H :    0.001159
   4 H :    0.000642
   5 H :   -0.000141
   6 C :   -0.155986
   7 O :   -0.491838
   8 H :    0.318458
   9 H :    0.110592
  10 H :    0.125286
  11 H :    0.100143
Sum of atomic charges:   -0.0000000

LOEWDIN ATOMIC CHARGES
----------------------
   0 C :   -0.006479
   1 O :   -0.003333
   2 H :   -0.000163
   3 H :   -0.002943
   4 H :   -0.000265
   5 H :   -0.000107
   6 C :   -0.374264
   7 O :   -0.065320
   8 H :    0.143861
   9 H :    0.090803
  10 H :    0.117783
  11 H :    0.100428

  Mayer bond orders larger than 0.1
B(  6-C ,  7-O ) :   0.9865 B(  6-C ,  9-H ) :   0.9712 B(  6-C , 10-H ) :   0.9697
B(  6-C , 11-H ) :   0.9822 B(  7-O ,  8-H ) :   0.8954

Dispersion correction           -0.000294053
FINAL SINGLE POINT ENERGY      -115.726492489927

DIPOLE MOMENT
-------------
                                X             Y             Z
Electronic contribution:      0.04490       1.38270      -1.32072
Nuclear contribution   :      0.35972      -1.85798       1.34170
                        -----------------------------------------
Total Dipole Moment    :      0.40462      -0.47528       0.02098
                        -----------------------------------------
Magnitude (a.u.)       :      0.62454
Magnitude (Debye)      :      1.58745

Rotational constants in cm-1:     4.580946     0.787272     0.762347
Rotational constants in MHz : 137333.291547 23601.816709 22854.573187

                             ****ORCA TERMINATED NORMALLY****
TOTAL RUN TIME: 0 days 0 hours 0 minutes 45 seconds 485 msec
