                         Program Version 4.1.2  - RELEASE  -
|  1> #Run DFT-D3 single point of the dimer
|  2> ! wB97X-D3 def2-TZVP TIGHTSCF CHELPG PMODEL PAL8
|  3>
|  4> %base "8-146_DFT_AB"
|  5>
|  6> %scf
|  7> MaxIter 1000
|  8> end
|  9>
| 10> * xyz 0 1
| 11>   C                      -1.836438            -10.187012           8.477243
| 12>   O                      -3.182947            -10.585800           8.737161
| 13>   H                      -3.371845            -11.517466           8.417675
| 14>   H                      -1.785848            -9.646708            7.498774
| 15>   H                      -1.443843            -9.424437            9.185187
| 16>   H                      -1.188261            -11.073030           8.387025
| 17>   C                      -4.390719            -7.654209            10.904074
| 18>   O                      -4.003870            -8.702914            11.784423
| 19>   H                      -4.276294            -9.526877            11.329858
| 20>   H                      -5.456891            -7.422801            11.032410
| 21>   H                      -3.784582            -6.714726            10.983076
| 22>   H                      -4.307290            -8.005947            9.833732
| 23> *
| 24>
| 25> #Run DFT-D3 single point of the molecule with dimer basis set
| 26> $new_job
| 27> %base "8-146_DFT_A"
| 28> ! wB97X-D3 def2-TZVP TIGHTSCF CHELPG PMODEL
| 29>
| 30> %scf
| 31> MaxIter 1000
| 32> end
| 33>
| 34> * xyz 0 1
| 35>   C                      -1.836438            -10.187012           8.477243
| 36>   O                      -3.182947            -10.585800           8.737161
| 37>   H                      -3.371845            -11.517466           8.417675
| 38>   H                      -1.785848            -9.646708            7.498774
| 39>   H                      -1.443843            -9.424437            9.185187
| 40>   H                      -1.188261            -11.073030           8.387025
| 41>   C                    : -4.390719            -7.654209            10.904074
| 42>   O                    : -4.003870            -8.702914            11.784423
| 43>   H                    : -4.276294            -9.526877            11.329858
| 44>   H                    : -5.456891            -7.422801            11.032410
| 45>   H                    : -3.784582            -6.714726            10.983076
| 46>   H                    : -4.307290            -8.005947            9.833732
| 47> *
| 48>
| 49> #Run DFT-D3 single point of the particle with dimer basis set
| 50> $new_job
| 51> %base "8-146_DFT_B"
| 52> ! wB97X-D3 def2-TZVP TIGHTSCF CHELPG PMODEL
| 53>
| 54> %scf
| 55> MaxIter 1000
| 56> end
| 57>
| 58> * xyz 0 1
| 59>   C                    : -1.836438            -10.187012           8.477243
| 60>   O                    : -3.182947            -10.585800           8.737161
| 61>   H                    : -3.371845            -11.517466           8.417675
| 62>   H                    : -1.785848            -9.646708            7.498774
| 63>   H                    : -1.443843            -9.424437            9.185187
| 64>   H                    : -1.188261            -11.073030           8.387025
| 65>   C                      -4.390719            -7.654209            10.904074
| 66>   O                      -4.003870            -8.702914            11.784423
| 67>   H                      -4.276294            -9.526877            11.329858
| 68>   H                      -5.456891            -7.422801            11.032410
| 69>   H                      -3.784582            -6.714726            10.983076
| 70>   H                      -4.307290            -8.005947            9.833732
| 71> *
| 72>
| 73>                          ****END OF INPUT****
 Total Charge           Charge          ....    0
 Multiplicity           Mult            ....    1
 Number of Electrons    NEL             ....   36
Dispersion correction           -0.001683386
FINAL SINGLE POINT ENERGY      -231.467923305479
Dispersion correction           -0.000266921
FINAL SINGLE POINT ENERGY      -115.730792088250

CARTESIAN COORDINATES (ANGSTROEM)
---------------------------------
  C     -1.836438  -10.187012    8.477243
  O     -3.182947  -10.585800    8.737161
  H     -3.371845  -11.517466    8.417675
  H     -1.785848   -9.646708    7.498774
  H     -1.443843   -9.424437    9.185187
  H     -1.188261  -11.073030    8.387025
  C     -4.390719   -7.654209   10.904074
  O     -4.003870   -8.702914   11.784423
  H     -4.276294   -9.526877   11.329858
  H     -5.456891   -7.422801   11.032410
  H     -3.784582   -6.714726   10.983076
  H     -4.307290   -8.005947    9.833732

 Multiplicity           Mult            ....    1
 Number of Electrons    NEL             ....   18
 Basis Dimension        Dim             ....  172

ORBITAL ENERGIES
----------------

  NO   OCC          E(Eh)            E(eV)
   0   2.0000     -19.234431      -523.3955
   1   2.0000     -10.321584      -280.8646
   2   2.0000      -1.133105       -30.8334
   3   2.0000      -0.788032       -21.4434
   4   2.0000      -0.606834       -16.5128
   5   2.0000      -0.537994       -14.6396
   6   2.0000      -0.526126       -14.3166
   7   2.0000      -0.433955       -11.8085
   8   2.0000      -0.372989       -10.1496
   9   0.0000       0.073439         1.9984
  10   0.0000       0.123268         3.3543
  11   0.0000       0.145015         3.9461
  12   0.0000       0.164419         4.4741
  13   0.0000       0.183863         5.0032

MULLIKEN ATOMIC CHARGES
-----------------------
   0 C :    0.000028
   1 O :   -0.000463
   2 H :   -0.000040
   3 H :   -0.000169
   4 H :   -0.000854
   5 H :    0.000084
   6 C :   -0.182616
   7 O :   -0.469963
   8 H :    0.320166
   9 H :    0.109499
  10 H :    0.123368
  11 H :    0.100960
Sum of atomic charges:    0.0000000

LOEWDIN ATOMIC CHARGES
----------------------
   0 C :   -0.001623
   1 O :   -0.001575
   2 H :   -0.000075
   3 H :   -0.000051
   4 H :   -0.000661
   5 H :   -0.000009
   6 C :   -0.392313
   7 O :   -0.092525
   8 H :    0.182848
   9 H :    0.094611
  10 H :    0.111578
  11 H :    0.099797

  Mayer bond orders larger than 0.1
B(  6-C ,  7-O ) :   0.9947 B(  6-C ,  9-H ) :   0.9754 B(  6-C , 10-H ) :   0.9684
B(  6-C , 11-H ) :   0.9828 B(  7-O ,  8-H ) :   0.8962

Dispersion correction           -0.000245957
FINAL SINGLE POINT ENERGY      -115.732720484508

DIPOLE MOMENT
-------------
                                X             Y             Z
Electronic contribution:      0.61799      -1.19880       1.36881
Nuclear contribution   :     -0.93690       1.09375      -2.00143
                        -----------------------------------------
Total Dipole Moment    :     -0.31891      -0.10505      -0.63262
                        -----------------------------------------
Magnitude (a.u.)       :      0.71621
Magnitude (Debye)      :      1.82045

Rotational constants in cm-1:     4.143099     0.819479     0.785472
Rotational constants in MHz : 124206.984319 24567.358463 23547.861383

                             ****ORCA TERMINATED NORMALLY****
TOTAL RUN TIME: 0 days 0 hours 0 minutes 45 seconds 99 msec
