                         Program Version 4.1.2  - RELEASE  -
|  1> #Run DFT-D3 single point of the dimer
|  2> ! wB97X-D3 def2-TZVP TIGHTSCF CHELPG PMODEL PAL8
|  3>
|  4> %base "22-70_DFT_AB"
|  5>
|  6> %scf
|  7> MaxIter 1000
|  8> end
|  9>
| 10> * xyz 0 1
| 11>   C                      7.094991             -5.874388            4.295036
| 12>   O                      6.607568             -5.115187            5.413430
| 13>   H                      6.014298             -4.411971            5.145993
| 14>   H                      6.600203             -5.667700            3.315345
| 15>   H                      8.165961             -5.827261            4.147364
| 16>   H                      6.868536             -6.907309            4.499651
| 17>   C                      5.916185             -3.212081            8.329294
| 18>   O                      5.831247             -2.627327            9.617049
| 19>   H                      6.040240             -3.306757            10.319235
| 20>   H                      4.969775             -3.579327            7.950076
| 21>   H                      6.245955             -2.522857            7.603715
| 22>   H                      6.491706             -4.086887            8.406894
| 23> *
| 24>
| 25> #Run DFT-D3 single point of the molecule with dimer basis set
| 26> $new_job
| 27> %base "22-70_DFT_A"
| 28> ! wB97X-D3 def2-TZVP TIGHTSCF CHELPG PMODEL
| 29>
| 30> %scf
| 31> MaxIter 1000
| 32> end
| 33>
| 34> * xyz 0 1
| 35>   C                      7.094991             -5.874388            4.295036
| 36>   O                      6.607568             -5.115187            5.413430
| 37>   H                      6.014298             -4.411971            5.145993
| 38>   H                      6.600203             -5.667700            3.315345
| 39>   H                      8.165961             -5.827261            4.147364
| 40>   H                      6.868536             -6.907309            4.499651
| 41>   C                    : 5.916185             -3.212081            8.329294
| 42>   O                    : 5.831247             -2.627327            9.617049
| 43>   H                    : 6.040240             -3.306757            10.319235
| 44>   H                    : 4.969775             -3.579327            7.950076
| 45>   H                    : 6.245955             -2.522857            7.603715
| 46>   H                    : 6.491706             -4.086887            8.406894
| 47> *
| 48>
| 49> #Run DFT-D3 single point of the particle with dimer basis set
| 50> $new_job
| 51> %base "22-70_DFT_B"
| 52> ! wB97X-D3 def2-TZVP TIGHTSCF CHELPG PMODEL
| 53>
| 54> %scf
| 55> MaxIter 1000
| 56> end
| 57>
| 58> * xyz 0 1
| 59>   C                    : 7.094991             -5.874388            4.295036
| 60>   O                    : 6.607568             -5.115187            5.413430
| 61>   H                    : 6.014298             -4.411971            5.145993
| 62>   H                    : 6.600203             -5.667700            3.315345
| 63>   H                    : 8.165961             -5.827261            4.147364
| 64>   H                    : 6.868536             -6.907309            4.499651
| 65>   C                      5.916185             -3.212081            8.329294
| 66>   O                      5.831247             -2.627327            9.617049
| 67>   H                      6.040240             -3.306757            10.319235
| 68>   H                      4.969775             -3.579327            7.950076
| 69>   H                      6.245955             -2.522857            7.603715
| 70>   H                      6.491706             -4.086887            8.406894
| 71> *
| 72>
| 73>                          ****END OF INPUT****
 Total Charge           Charge          ....    0
 Multiplicity           Mult            ....    1
 Number of Electrons    NEL             ....   36
Dispersion correction           -0.001351004
FINAL SINGLE POINT ENERGY      -231.463983118349
Dispersion correction           -0.000278292
FINAL SINGLE POINT ENERGY      -115.733225335809

CARTESIAN COORDINATES (ANGSTROEM)
---------------------------------
  C      7.094991   -5.874388    4.295036
  O      6.607568   -5.115187    5.413430
  H      6.014298   -4.411971    5.145993
  H      6.600203   -5.667700    3.315345
  H      8.165961   -5.827261    4.147364
  H      6.868536   -6.907309    4.499651
  C      5.916185   -3.212081    8.329294
  O      5.831247   -2.627327    9.617049
  H      6.040240   -3.306757   10.319235
  H      4.969775   -3.579327    7.950076
  H      6.245955   -2.522857    7.603715
  H      6.491706   -4.086887    8.406894

 Multiplicity           Mult            ....    1
 Number of Electrons    NEL             ....   18
 Basis Dimension        Dim             ....  172

ORBITAL ENERGIES
----------------

  NO   OCC          E(Eh)            E(eV)
   0   2.0000     -19.230487      -523.2881
   1   2.0000     -10.302912      -280.3565
   2   2.0000      -1.125792       -30.6344
   3   2.0000      -0.800714       -21.7885
   4   2.0000      -0.611168       -16.6307
   5   2.0000      -0.541726       -14.7411
   6   2.0000      -0.531285       -14.4570
   7   2.0000      -0.433215       -11.7884
   8   2.0000      -0.368663       -10.0318
   9   0.0000       0.082077         2.2334
  10   0.0000       0.109153         2.9702
  11   0.0000       0.134963         3.6725
  12   0.0000       0.186590         5.0774
  13   0.0000       0.192025         5.2253

MULLIKEN ATOMIC CHARGES
-----------------------
   0 C :   -0.000167
   1 O :   -0.000069
   2 H :    0.000003
   3 H :    0.000002
   4 H :    0.000005
   5 H :    0.000008
   6 C :   -0.151965
   7 O :   -0.484368
   8 H :    0.318590
   9 H :    0.091160
  10 H :    0.123724
  11 H :    0.103077
Sum of atomic charges:   -0.0000000

LOEWDIN ATOMIC CHARGES
----------------------
   0 C :   -0.000079
   1 O :   -0.000994
   2 H :   -0.000616
   3 H :   -0.000002
   4 H :   -0.000002
   5 H :   -0.000002
   6 C :   -0.373377
   7 O :   -0.097293
   8 H :    0.191212
   9 H :    0.093316
  10 H :    0.098524
  11 H :    0.089314

  Mayer bond orders larger than 0.1
B(  6-C ,  7-O ) :   1.0123 B(  6-C ,  9-H ) :   0.9731 B(  6-C , 10-H ) :   0.9751
B(  6-C , 11-H ) :   0.9912 B(  7-O ,  8-H ) :   0.8935

Dispersion correction           -0.000239039
FINAL SINGLE POINT ENERGY      -115.729353083302

DIPOLE MOMENT
-------------
                                X             Y             Z
Electronic contribution:     -0.04794       0.93866       1.53232
Nuclear contribution   :      0.22650      -1.62210      -1.61431
                        -----------------------------------------
Total Dipole Moment    :      0.17856      -0.68344      -0.08199
                        -----------------------------------------
Magnitude (a.u.)       :      0.71112
Magnitude (Debye)      :      1.80753

Rotational constants in cm-1:     4.497417     0.833291     0.793735
Rotational constants in MHz : 134829.171835 24981.430079 23795.580793

                             ****ORCA TERMINATED NORMALLY****
TOTAL RUN TIME: 0 days 0 hours 0 minutes 55 seconds 855 msec
