                         Program Version 4.1.2  - RELEASE  -
|  1> #Run DFT-D3 single point of the dimer
|  2> ! wB97X-D3 def2-TZVP TIGHTSCF  CHELPG PAL8
|  3>
|  4> %base "25_charges"
|  5>
|  6> %scf
|  7> MaxIter 1000
|  8> end
|  9> %output
| 10>   Print[ P_Mayer ] 1
| 11>   Print[ P_NatPop ] 1
| 12>   Print[ P_Hirshfeld ] 1
| 13>   Print[ P_Mulliken ] 1
| 14>   Print [ P_Loewdin ] 1
| 15> end
| 16>
| 17> * xyz 0 1
| 18>   C                      -9.568668            -2.562127            3.226594
| 19>   O                      -10.668221           -2.241973            2.439989
| 20>   H                      -10.878699           -3.028132            1.881909
| 21>   H                      -9.739475            -3.479929            3.794011
| 22>   H                      -8.719056            -2.807948            2.581830
| 23>   H                      -9.111186            -1.768636            3.839962
| 24> *
| 25>
| 26>                          ****END OF INPUT****

CARTESIAN COORDINATES (ANGSTROEM)
---------------------------------
  C     -9.568668   -2.562127    3.226594
  O    -10.668221   -2.241973    2.439989
  H    -10.878699   -3.028132    1.881909
  H     -9.739475   -3.479929    3.794011
  H     -8.719056   -2.807948    2.581830
  H     -9.111186   -1.768636    3.839962

 Total Charge           Charge          ....    0
 Multiplicity           Mult            ....    1
 Number of Electrons    NEL             ....   18
 Basis Dimension        Dim             ....   86

ORBITAL ENERGIES
----------------

  NO   OCC          E(Eh)            E(eV)
   0   2.0000     -19.232965      -523.3556
   1   2.0000     -10.311706      -280.5958
   2   2.0000      -1.139873       -31.0175
   3   2.0000      -0.792631       -21.5686
   4   2.0000      -0.614028       -16.7086
   5   2.0000      -0.546754       -14.8779
   6   2.0000      -0.528765       -14.3884
   7   2.0000      -0.429326       -11.6826
   8   2.0000      -0.368058       -10.0154
   9   0.0000       0.111100         3.0232
  10   0.0000       0.151969         4.1353
  11   0.0000       0.203969         5.5503
  12   0.0000       0.208305         5.6683
  13   0.0000       0.224480         6.1084

MULLIKEN ATOMIC CHARGES
-----------------------
   0 C :   -0.174075
   1 O :   -0.471339
   2 H :    0.322226
   3 H :    0.101648
   4 H :    0.096768
   5 H :    0.124772
Sum of atomic charges:    0.0000000

LOEWDIN ATOMIC CHARGES
----------------------
   0 C :   -0.415372
   1 O :   -0.072695
   2 H :    0.190511
   3 H :    0.093063
   4 H :    0.092810
   5 H :    0.111684

  Mayer bond orders larger than 0.1
B(  0-C ,  1-O ) :   0.9980 B(  0-C ,  3-H ) :   0.9798 B(  0-C ,  4-H ) :   0.9822
B(  0-C ,  5-H ) :   0.9674 B(  1-O ,  2-H ) :   0.8895

Dispersion correction           -0.000228559
FINAL SINGLE POINT ENERGY      -115.729783064370

DIPOLE MOMENT
-------------
                                X             Y             Z
Electronic contribution:     -1.59878       0.67207      -0.86773
Nuclear contribution   :      1.90976      -1.28287       0.80527
                        -----------------------------------------
Total Dipole Moment    :      0.31098      -0.61080      -0.06246
                        -----------------------------------------
Magnitude (a.u.)       :      0.68825
Magnitude (Debye)      :      1.74940

Rotational constants in cm-1:     4.366548     0.847908     0.811149
Rotational constants in MHz : 130905.810939 25419.641777 24317.634617

                             ****ORCA TERMINATED NORMALLY****
TOTAL RUN TIME: 0 days 0 hours 0 minutes 40 seconds 234 msec
