                         Program Version 4.1.2  - RELEASE  -
|  1> #Run DFT-D3 single point of the dimer
|  2> ! wB97X-D3 def2-TZVP TIGHTSCF CHELPG PMODEL PAL8
|  3>
|  4> %base "14-184_DFT_AB"
|  5>
|  6> %scf
|  7> MaxIter 1000
|  8> end
|  9>
| 10> * xyz 0 1
| 11>   C                      -7.843027            -0.882239            -2.754073
| 12>   O                      -9.193074            -1.118731            -2.474534
| 13>   H                      -9.652750            -1.017873            -3.287575
| 14>   H                      -7.371929            -1.627741            -3.347595
| 15>   H                      -7.628917            0.068797             -3.222321
| 16>   H                      -7.300659            -0.858248            -1.751881
| 17>   C                      -10.305381           -1.722676            -5.417566
| 18>   O                      -11.048749           -0.892068            -4.626314
| 19>   H                      -11.661225           -0.436634            -5.271546
| 20>   H                      -9.980221            -1.197058            -6.357959
| 21>   H                      -9.468478            -2.151698            -4.872125
| 22>   H                      -10.936776           -2.527977            -5.715195
| 23> *
| 24>
| 25> #Run DFT-D3 single point of the molecule with dimer basis set
| 26> $new_job
| 27> %base "14-184_DFT_A"
| 28> ! wB97X-D3 def2-TZVP TIGHTSCF CHELPG PMODEL
| 29>
| 30> %scf
| 31> MaxIter 1000
| 32> end
| 33>
| 34> * xyz 0 1
| 35>   C                      -7.843027            -0.882239            -2.754073
| 36>   O                      -9.193074            -1.118731            -2.474534
| 37>   H                      -9.652750            -1.017873            -3.287575
| 38>   H                      -7.371929            -1.627741            -3.347595
| 39>   H                      -7.628917            0.068797             -3.222321
| 40>   H                      -7.300659            -0.858248            -1.751881
| 41>   C                    : -10.305381           -1.722676            -5.417566
| 42>   O                    : -11.048749           -0.892068            -4.626314
| 43>   H                    : -11.661225           -0.436634            -5.271546
| 44>   H                    : -9.980221            -1.197058            -6.357959
| 45>   H                    : -9.468478            -2.151698            -4.872125
| 46>   H                    : -10.936776           -2.527977            -5.715195
| 47> *
| 48>
| 49> #Run DFT-D3 single point of the particle with dimer basis set
| 50> $new_job
| 51> %base "14-184_DFT_B"
| 52> ! wB97X-D3 def2-TZVP TIGHTSCF CHELPG PMODEL
| 53>
| 54> %scf
| 55> MaxIter 1000
| 56> end
| 57>
| 58> * xyz 0 1
| 59>   C                    : -7.843027            -0.882239            -2.754073
| 60>   O                    : -9.193074            -1.118731            -2.474534
| 61>   H                    : -9.652750            -1.017873            -3.287575
| 62>   H                    : -7.371929            -1.627741            -3.347595
| 63>   H                    : -7.628917            0.068797             -3.222321
| 64>   H                    : -7.300659            -0.858248            -1.751881
| 65>   C                      -10.305381           -1.722676            -5.417566
| 66>   O                      -11.048749           -0.892068            -4.626314
| 67>   H                      -11.661225           -0.436634            -5.271546
| 68>   H                      -9.980221            -1.197058            -6.357959
| 69>   H                      -9.468478            -2.151698            -4.872125
| 70>   H                      -10.936776           -2.527977            -5.715195
| 71> *
| 72>
| 73>                          ****END OF INPUT****
 Total Charge           Charge          ....    0
 Multiplicity           Mult            ....    1
 Number of Electrons    NEL             ....   36
Dispersion correction           -0.001920948
FINAL SINGLE POINT ENERGY      -231.467768855886
Dispersion correction           -0.000236631
FINAL SINGLE POINT ENERGY      -115.734705496227

CARTESIAN COORDINATES (ANGSTROEM)
---------------------------------
  C     -7.843027   -0.882239   -2.754073
  O     -9.193074   -1.118731   -2.474534
  H     -9.652750   -1.017873   -3.287575
  H     -7.371929   -1.627741   -3.347595
  H     -7.628917    0.068797   -3.222321
  H     -7.300659   -0.858248   -1.751881
  C    -10.305381   -1.722676   -5.417566
  O    -11.048749   -0.892068   -4.626314
  H    -11.661225   -0.436634   -5.271546
  H     -9.980221   -1.197058   -6.357959
  H     -9.468478   -2.151698   -4.872125
  H    -10.936776   -2.527977   -5.715195

 Multiplicity           Mult            ....    1
 Number of Electrons    NEL             ....   18
 Basis Dimension        Dim             ....  172

ORBITAL ENERGIES
----------------

  NO   OCC          E(Eh)            E(eV)
   0   2.0000     -19.233067      -523.3584
   1   2.0000     -10.307151      -280.4718
   2   2.0000      -1.148151       -31.2428
   3   2.0000      -0.786863       -21.4116
   4   2.0000      -0.615045       -16.7362
   5   2.0000      -0.547305       -14.8929
   6   2.0000      -0.535361       -14.5679
   7   2.0000      -0.434576       -11.8254
   8   2.0000      -0.366676        -9.9778
   9   0.0000       0.093776         2.5518
  10   0.0000       0.114158         3.1064
  11   0.0000       0.161208         4.3867
  12   0.0000       0.190756         5.1907
  13   0.0000       0.198971         5.4143

MULLIKEN ATOMIC CHARGES
-----------------------
   0 C :   -0.000427
   1 O :    0.000796
   2 H :   -0.004157
   3 H :   -0.000498
   4 H :   -0.000497
   5 H :    0.000029
   6 C :   -0.163118
   7 O :   -0.450913
   8 H :    0.314365
   9 H :    0.090213
  10 H :    0.114439
  11 H :    0.099769
Sum of atomic charges:   -0.0000000

LOEWDIN ATOMIC CHARGES
----------------------
   0 C :   -0.005014
   1 O :   -0.005693
   2 H :   -0.035134
   3 H :   -0.001486
   4 H :   -0.000157
   5 H :   -0.000023
   6 C :   -0.415941
   7 O :   -0.033473
   8 H :    0.198517
   9 H :    0.098314
  10 H :    0.112447
  11 H :    0.087641

  Mayer bond orders larger than 0.1
B(  6-C ,  7-O ) :   0.9892 B(  6-C ,  9-H ) :   0.9813 B(  6-C , 10-H ) :   0.9775
B(  6-C , 11-H ) :   0.9803 B(  7-O ,  8-H ) :   0.8920

Dispersion correction           -0.000199160
FINAL SINGLE POINT ENERGY      -115.730361157174

DIPOLE MOMENT
-------------
                                X             Y             Z
Electronic contribution:     -0.82883       1.03950       1.25558
Nuclear contribution   :      0.71104      -1.07701      -1.92476
                        -----------------------------------------
Total Dipole Moment    :     -0.11779      -0.03750      -0.66918
                        -----------------------------------------
Magnitude (a.u.)       :      0.68051
Magnitude (Debye)      :      1.72971

Rotational constants in cm-1:     4.156719     0.893476     0.846720
Rotational constants in MHz : 124615.289672 26785.745830 25384.022518

                             ****ORCA TERMINATED NORMALLY****
TOTAL RUN TIME: 0 days 0 hours 1 minutes 2 seconds 57 msec
