                         Program Version 4.1.2  - RELEASE  -
|  1> #Run DFT-D3 single point of the dimer
|  2> ! wB97X-D3 def2-TZVP TIGHTSCF CHELPG PMODEL PAL8
|  3>
|  4> %base "4-185_DFT_AB"
|  5>
|  6> %scf
|  7> MaxIter 1000
|  8> end
|  9>
| 10> * xyz 0 1
| 11>   C                      7.139799             11.030505            -4.060761
| 12>   O                      7.225816             10.885783            -5.419864
| 13>   H                      7.208605             9.944147             -5.620247
| 14>   H                      6.095317             10.984809            -3.796295
| 15>   H                      7.477387             10.165049            -3.499051
| 16>   H                      7.597012             11.857664            -3.601412
| 17>   C                      7.161267             6.953844             -6.328759
| 18>   O                      6.565770             8.249048             -6.450163
| 19>   H                      5.623843             8.067112             -6.211825
| 20>   H                      8.046157             6.925746             -6.902645
| 21>   H                      7.507824             6.780331             -5.271938
| 22>   H                      6.447298             6.227622             -6.655698
| 23> *
| 24>
| 25> #Run DFT-D3 single point of the molecule with dimer basis set
| 26> $new_job
| 27> %base "4-185_DFT_A"
| 28> ! wB97X-D3 def2-TZVP TIGHTSCF CHELPG PMODEL
| 29>
| 30> %scf
| 31> MaxIter 1000
| 32> end
| 33>
| 34> * xyz 0 1
| 35>   C                      7.139799             11.030505            -4.060761
| 36>   O                      7.225816             10.885783            -5.419864
| 37>   H                      7.208605             9.944147             -5.620247
| 38>   H                      6.095317             10.984809            -3.796295
| 39>   H                      7.477387             10.165049            -3.499051
| 40>   H                      7.597012             11.857664            -3.601412
| 41>   C                    : 7.161267             6.953844             -6.328759
| 42>   O                    : 6.565770             8.249048             -6.450163
| 43>   H                    : 5.623843             8.067112             -6.211825
| 44>   H                    : 8.046157             6.925746             -6.902645
| 45>   H                    : 7.507824             6.780331             -5.271938
| 46>   H                    : 6.447298             6.227622             -6.655698
| 47> *
| 48>
| 49> #Run DFT-D3 single point of the particle with dimer basis set
| 50> $new_job
| 51> %base "4-185_DFT_B"
| 52> ! wB97X-D3 def2-TZVP TIGHTSCF CHELPG PMODEL
| 53>
| 54> %scf
| 55> MaxIter 1000
| 56> end
| 57>
| 58> * xyz 0 1
| 59>   C                    : 7.139799             11.030505            -4.060761
| 60>   O                    : 7.225816             10.885783            -5.419864
| 61>   H                    : 7.208605             9.944147             -5.620247
| 62>   H                    : 6.095317             10.984809            -3.796295
| 63>   H                    : 7.477387             10.165049            -3.499051
| 64>   H                    : 7.597012             11.857664            -3.601412
| 65>   C                      7.161267             6.953844             -6.328759
| 66>   O                      6.565770             8.249048             -6.450163
| 67>   H                      5.623843             8.067112             -6.211825
| 68>   H                      8.046157             6.925746             -6.902645
| 69>   H                      7.507824             6.780331             -5.271938
| 70>   H                      6.447298             6.227622             -6.655698
| 71> *
| 72>
| 73>                          ****END OF INPUT****
 Total Charge           Charge          ....    0
 Multiplicity           Mult            ....    1
 Number of Electrons    NEL             ....   36
Dispersion correction           -0.001583199
FINAL SINGLE POINT ENERGY      -231.468076976334
Dispersion correction           -0.000215653
FINAL SINGLE POINT ENERGY      -115.727597542877

CARTESIAN COORDINATES (ANGSTROEM)
---------------------------------
  C      7.139799   11.030505   -4.060761
  O      7.225816   10.885783   -5.419864
  H      7.208605    9.944147   -5.620247
  H      6.095317   10.984809   -3.796295
  H      7.477387   10.165049   -3.499051
  H      7.597012   11.857664   -3.601412
  C      7.161267    6.953844   -6.328759
  O      6.565770    8.249048   -6.450163
  H      5.623843    8.067112   -6.211825
  H      8.046157    6.925746   -6.902645
  H      7.507824    6.780331   -5.271938
  H      6.447298    6.227622   -6.655698

 Multiplicity           Mult            ....    1
 Number of Electrons    NEL             ....   18
 Basis Dimension        Dim             ....  172

ORBITAL ENERGIES
----------------

  NO   OCC          E(Eh)            E(eV)
   0   2.0000     -19.232805      -523.3512
   1   2.0000     -10.310858      -280.5727
   2   2.0000      -1.129544       -30.7365
   3   2.0000      -0.793598       -21.5949
   4   2.0000      -0.605222       -16.4689
   5   2.0000      -0.540781       -14.7154
   6   2.0000      -0.528292       -14.3756
   7   2.0000      -0.442174       -12.0322
   8   2.0000      -0.371871       -10.1191
   9   0.0000       0.092927         2.5287
  10   0.0000       0.122181         3.3247
  11   0.0000       0.153342         4.1727
  12   0.0000       0.188246         5.1224
  13   0.0000       0.195744         5.3265

MULLIKEN ATOMIC CHARGES
-----------------------
   0 C :   -0.003341
   1 O :    0.000817
   2 H :   -0.006825
   3 H :    0.000072
   4 H :   -0.000608
   5 H :   -0.000402
   6 C :   -0.164377
   7 O :   -0.468099
   8 H :    0.314116
   9 H :    0.121394
  10 H :    0.098060
  11 H :    0.109194
Sum of atomic charges:    0.0000000

LOEWDIN ATOMIC CHARGES
----------------------
   0 C :   -0.002694
   1 O :   -0.005310
   2 H :   -0.039833
   3 H :   -0.000184
   4 H :   -0.000327
   5 H :   -0.000073
   6 C :   -0.369827
   7 O :   -0.062495
   8 H :    0.187023
   9 H :    0.097792
  10 H :    0.101774
  11 H :    0.094154

  Mayer bond orders larger than 0.1
B(  6-C ,  7-O ) :   0.9900 B(  6-C ,  9-H ) :   0.9791 B(  6-C , 10-H ) :   0.9743
B(  6-C , 11-H ) :   0.9785 B(  7-O ,  8-H ) :   0.8990

Dispersion correction           -0.000226292
FINAL SINGLE POINT ENERGY      -115.732527216892

DIPOLE MOMENT
-------------
                                X             Y             Z
Electronic contribution:     -0.60638       1.62669      -0.29342
Nuclear contribution   :      0.27541      -2.26534       0.45029
                        -----------------------------------------
Total Dipole Moment    :     -0.33097      -0.63865       0.15688
                        -----------------------------------------
Magnitude (a.u.)       :      0.73622
Magnitude (Debye)      :      1.87132

Rotational constants in cm-1:     4.188743     0.829574     0.797735
Rotational constants in MHz : 125575.351752 24870.014101 23915.504362

                             ****ORCA TERMINATED NORMALLY****
TOTAL RUN TIME: 0 days 0 hours 1 minutes 36 seconds 325 msec
