                         Program Version 4.1.2  - RELEASE  -
|  1> #Run DFT-D3 single point of the dimer
|  2> ! wB97X-D3 def2-TZVP TIGHTSCF CHELPG PMODEL PAL8
|  3>
|  4> %base "5-177_DFT_AB"
|  5>
|  6> %scf
|  7> MaxIter 1000
|  8> end
|  9>
| 10> * xyz 0 1
| 11>   C                      5.933043             0.052721             -9.709095
| 12>   O                      5.528336             0.447051             -10.968198
| 13>   H                      5.157719             -0.297805            -11.447300
| 14>   H                      6.258533             -0.932075            -9.626614
| 15>   H                      6.793636             0.701506             -9.427070
| 16>   H                      5.139158             0.209402             -9.025313
| 17>   C                      1.660130             2.016156             -10.208712
| 18>   O                      2.793933             1.381402             -10.765261
| 19>   H                      3.107994             0.803919             -10.093521
| 20>   H                      1.177720             2.783274             -10.809407
| 21>   H                      0.857712             1.198008             -10.041690
| 22>   H                      1.920190             2.547271             -9.303357
| 23> *
| 24>
| 25> #Run DFT-D3 single point of the molecule with dimer basis set
| 26> $new_job
| 27> %base "5-177_DFT_A"
| 28> ! wB97X-D3 def2-TZVP TIGHTSCF CHELPG PMODEL
| 29>
| 30> %scf
| 31> MaxIter 1000
| 32> end
| 33>
| 34> * xyz 0 1
| 35>   C                      5.933043             0.052721             -9.709095
| 36>   O                      5.528336             0.447051             -10.968198
| 37>   H                      5.157719             -0.297805            -11.447300
| 38>   H                      6.258533             -0.932075            -9.626614
| 39>   H                      6.793636             0.701506             -9.427070
| 40>   H                      5.139158             0.209402             -9.025313
| 41>   C                    : 1.660130             2.016156             -10.208712
| 42>   O                    : 2.793933             1.381402             -10.765261
| 43>   H                    : 3.107994             0.803919             -10.093521
| 44>   H                    : 1.177720             2.783274             -10.809407
| 45>   H                    : 0.857712             1.198008             -10.041690
| 46>   H                    : 1.920190             2.547271             -9.303357
| 47> *
| 48>
| 49> #Run DFT-D3 single point of the particle with dimer basis set
| 50> $new_job
| 51> %base "5-177_DFT_B"
| 52> ! wB97X-D3 def2-TZVP TIGHTSCF CHELPG PMODEL
| 53>
| 54> %scf
| 55> MaxIter 1000
| 56> end
| 57>
| 58> * xyz 0 1
| 59>   C                    : 5.933043             0.052721             -9.709095
| 60>   O                    : 5.528336             0.447051             -10.968198
| 61>   H                    : 5.157719             -0.297805            -11.447300
| 62>   H                    : 6.258533             -0.932075            -9.626614
| 63>   H                    : 6.793636             0.701506             -9.427070
| 64>   H                    : 5.139158             0.209402             -9.025313
| 65>   C                      1.660130             2.016156             -10.208712
| 66>   O                      2.793933             1.381402             -10.765261
| 67>   H                      3.107994             0.803919             -10.093521
| 68>   H                      1.177720             2.783274             -10.809407
| 69>   H                      0.857712             1.198008             -10.041690
| 70>   H                      1.920190             2.547271             -9.303357
| 71> *
| 72>
| 73>                          ****END OF INPUT****
 Total Charge           Charge          ....    0
 Multiplicity           Mult            ....    1
 Number of Electrons    NEL             ....   36
Dispersion correction           -0.001641961
FINAL SINGLE POINT ENERGY      -231.461314324480
Dispersion correction           -0.000223239
FINAL SINGLE POINT ENERGY      -115.732740926677

CARTESIAN COORDINATES (ANGSTROEM)
---------------------------------
  C      5.933043    0.052721   -9.709095
  O      5.528336    0.447051  -10.968198
  H      5.157719   -0.297805  -11.447300
  H      6.258533   -0.932075   -9.626614
  H      6.793636    0.701506   -9.427070
  H      5.139158    0.209402   -9.025313
  C      1.660130    2.016156  -10.208712
  O      2.793933    1.381402  -10.765261
  H      3.107994    0.803919  -10.093521
  H      1.177720    2.783274  -10.809407
  H      0.857712    1.198008  -10.041690
  H      1.920190    2.547271   -9.303357

 Multiplicity           Mult            ....    1
 Number of Electrons    NEL             ....   18
 Basis Dimension        Dim             ....  172

ORBITAL ENERGIES
----------------

  NO   OCC          E(Eh)            E(eV)
   0   2.0000     -19.230425      -523.2865
   1   2.0000     -10.318980      -280.7937
   2   2.0000      -1.143377       -31.1129
   3   2.0000      -0.794683       -21.6244
   4   2.0000      -0.609141       -16.5756
   5   2.0000      -0.544810       -14.8250
   6   2.0000      -0.533640       -14.5211
   7   2.0000      -0.429962       -11.6999
   8   2.0000      -0.374528       -10.1914
   9   0.0000       0.081052         2.2055
  10   0.0000       0.129471         3.5231
  11   0.0000       0.156571         4.2605
  12   0.0000       0.174655         4.7526
  13   0.0000       0.194431         5.2907

MULLIKEN ATOMIC CHARGES
-----------------------
   0 C :   -0.002348
   1 O :    0.000446
   2 H :   -0.001401
   3 H :   -0.000251
   4 H :    0.000256
   5 H :   -0.002842
   6 C :   -0.181805
   7 O :   -0.457454
   8 H :    0.317818
   9 H :    0.124277
  10 H :    0.097359
  11 H :    0.105945
Sum of atomic charges:   -0.0000000

LOEWDIN ATOMIC CHARGES
----------------------
   0 C :   -0.004948
   1 O :   -0.006683
   2 H :   -0.002361
   3 H :   -0.000093
   4 H :   -0.000035
   5 H :   -0.002739
   6 C :   -0.390318
   7 O :   -0.059334
   8 H :    0.162089
   9 H :    0.105892
  10 H :    0.106179
  11 H :    0.092350

  Mayer bond orders larger than 0.1
B(  6-C ,  7-O ) :   0.9960 B(  6-C ,  9-H ) :   0.9708 B(  6-C , 10-H ) :   0.9840
B(  6-C , 11-H ) :   0.9749 B(  7-O ,  8-H ) :   0.9010

Dispersion correction           -0.000234427
FINAL SINGLE POINT ENERGY      -115.730906778812

DIPOLE MOMENT
-------------
                                X             Y             Z
Electronic contribution:      1.52289      -0.65903      -0.88835
Nuclear contribution   :     -1.76930       0.58457       1.51976
                        -----------------------------------------
Total Dipole Moment    :     -0.24641      -0.07446       0.63141
                        -----------------------------------------
Magnitude (a.u.)       :      0.68187
Magnitude (Debye)      :      1.73316

Rotational constants in cm-1:     4.265420     0.822777     0.805801
Rotational constants in MHz : 127874.067882 24666.244645 24157.319251

                             ****ORCA TERMINATED NORMALLY****
TOTAL RUN TIME: 0 days 0 hours 0 minutes 54 seconds 823 msec
