                         Program Version 4.1.2  - RELEASE  -
|  1> #Run DFT-D3 single point of the dimer
|  2> ! wB97X-D3 def2-TZVP TIGHTSCF CHELPG PMODEL PAL8
|  3>
|  4> %base "12-144_DFT_AB"
|  5>
|  6> %scf
|  7> MaxIter 1000
|  8> end
|  9>
| 10> * xyz 0 1
| 11>   C                      0.089987             -3.422612            -0.634549
| 12>   O                      0.445780             -4.147892            -1.754119
| 13>   H                      0.889978             -3.509935            -2.357126
| 14>   H                      -1.004363            -3.350308            -0.387464
| 15>   H                      0.526002             -3.938563            0.227510
| 16>   H                      0.405570             -2.373225            -0.646882
| 17>   C                      3.238271             1.333997             -1.199064
| 18>   O                      2.889391             -0.025859            -0.848731
| 19>   H                      2.072859             -0.201433            -1.398011
| 20>   H                      3.409819             1.369507             -2.252393
| 21>   H                      2.501612             2.119326             -0.895392
| 22>   H                      4.174190             1.637378             -0.678773
| 23> *
| 24>
| 25> #Run DFT-D3 single point of the molecule with dimer basis set
| 26> $new_job
| 27> %base "12-144_DFT_A"
| 28> ! wB97X-D3 def2-TZVP TIGHTSCF CHELPG PMODEL
| 29>
| 30> %scf
| 31> MaxIter 1000
| 32> end
| 33>
| 34> * xyz 0 1
| 35>   C                      0.089987             -3.422612            -0.634549
| 36>   O                      0.445780             -4.147892            -1.754119
| 37>   H                      0.889978             -3.509935            -2.357126
| 38>   H                      -1.004363            -3.350308            -0.387464
| 39>   H                      0.526002             -3.938563            0.227510
| 40>   H                      0.405570             -2.373225            -0.646882
| 41>   C                    : 3.238271             1.333997             -1.199064
| 42>   O                    : 2.889391             -0.025859            -0.848731
| 43>   H                    : 2.072859             -0.201433            -1.398011
| 44>   H                    : 3.409819             1.369507             -2.252393
| 45>   H                    : 2.501612             2.119326             -0.895392
| 46>   H                    : 4.174190             1.637378             -0.678773
| 47> *
| 48>
| 49> #Run DFT-D3 single point of the particle with dimer basis set
| 50> $new_job
| 51> %base "12-144_DFT_B"
| 52> ! wB97X-D3 def2-TZVP TIGHTSCF CHELPG PMODEL
| 53>
| 54> %scf
| 55> MaxIter 1000
| 56> end
| 57>
| 58> * xyz 0 1
| 59>   C                    : 0.089987             -3.422612            -0.634549
| 60>   O                    : 0.445780             -4.147892            -1.754119
| 61>   H                    : 0.889978             -3.509935            -2.357126
| 62>   H                    : -1.004363            -3.350308            -0.387464
| 63>   H                    : 0.526002             -3.938563            0.227510
| 64>   H                    : 0.405570             -2.373225            -0.646882
| 65>   C                      3.238271             1.333997             -1.199064
| 66>   O                      2.889391             -0.025859            -0.848731
| 67>   H                      2.072859             -0.201433            -1.398011
| 68>   H                      3.409819             1.369507             -2.252393
| 69>   H                      2.501612             2.119326             -0.895392
| 70>   H                      4.174190             1.637378             -0.678773
| 71> *
| 72>
| 73>                          ****END OF INPUT****
 Total Charge           Charge          ....    0
 Multiplicity           Mult            ....    1
 Number of Electrons    NEL             ....   36
Dispersion correction           -0.000983377
FINAL SINGLE POINT ENERGY      -231.463261981251
Dispersion correction           -0.000248658
FINAL SINGLE POINT ENERGY      -115.731014868121

CARTESIAN COORDINATES (ANGSTROEM)
---------------------------------
  C      0.089987   -3.422612   -0.634549
  O      0.445780   -4.147892   -1.754119
  H      0.889978   -3.509935   -2.357126
  H     -1.004363   -3.350308   -0.387464
  H      0.526002   -3.938563    0.227510
  H      0.405570   -2.373225   -0.646882
  C      3.238271    1.333997   -1.199064
  O      2.889391   -0.025859   -0.848731
  H      2.072859   -0.201433   -1.398011
  H      3.409819    1.369507   -2.252393
  H      2.501612    2.119326   -0.895392
  H      4.174190    1.637378   -0.678773

 Multiplicity           Mult            ....    1
 Number of Electrons    NEL             ....   18
 Basis Dimension        Dim             ....  172

ORBITAL ENERGIES
----------------

  NO   OCC          E(Eh)            E(eV)
   0   2.0000     -19.236436      -523.4500
   1   2.0000     -10.316982      -280.7394
   2   2.0000      -1.122655       -30.5490
   3   2.0000      -0.791082       -21.5264
   4   2.0000      -0.598465       -16.2851
   5   2.0000      -0.543544       -14.7906
   6   2.0000      -0.517591       -14.0844
   7   2.0000      -0.437190       -11.8965
   8   2.0000      -0.375962       -10.2304
   9   0.0000       0.082055         2.2328
  10   0.0000       0.119248         3.2449
  11   0.0000       0.148469         4.0401
  12   0.0000       0.167363         4.5542
  13   0.0000       0.196111         5.3365

MULLIKEN ATOMIC CHARGES
-----------------------
   0 C :    0.000820
   1 O :    0.000036
   2 H :   -0.000129
   3 H :   -0.000028
   4 H :   -0.000025
   5 H :   -0.002406
   6 C :   -0.183757
   7 O :   -0.470095
   8 H :    0.317151
   9 H :    0.114085
  10 H :    0.105401
  11 H :    0.118945
Sum of atomic charges:    0.0000000

LOEWDIN ATOMIC CHARGES
----------------------
   0 C :   -0.000366
   1 O :   -0.000008
   2 H :   -0.000120
   3 H :   -0.000004
   4 H :   -0.000006
   5 H :   -0.001291
   6 C :   -0.374635
   7 O :   -0.115874
   8 H :    0.191140
   9 H :    0.090244
  10 H :    0.098861
  11 H :    0.112059

  Mayer bond orders larger than 0.1
B(  6-C ,  7-O ) :   1.0015 B(  6-C ,  9-H ) :   0.9816 B(  6-C , 10-H ) :   0.9662
B(  6-C , 11-H ) :   0.9732 B(  7-O ,  8-H ) :   0.8948

Dispersion correction           -0.000252492
FINAL SINGLE POINT ENERGY      -115.732454131965

DIPOLE MOMENT
-------------
                                X             Y             Z
Electronic contribution:     -0.33215      -1.75495       0.52515
Nuclear contribution   :     -0.00016       2.20095      -1.00492
                        -----------------------------------------
Total Dipole Moment    :     -0.33232       0.44600      -0.47977
                        -----------------------------------------
Magnitude (a.u.)       :      0.73452
Magnitude (Debye)      :      1.86701

Rotational constants in cm-1:     4.183550     0.799856     0.770364
Rotational constants in MHz : 125419.681124 23979.083321 23094.936060

                             ****ORCA TERMINATED NORMALLY****
TOTAL RUN TIME: 0 days 0 hours 1 minutes 0 seconds 412 msec
