                         Program Version 4.1.2  - RELEASE  -
|  1> #Run DFT-D3 single point of the dimer
|  2> ! wB97X-D3 def2-TZVP TIGHTSCF CHELPG PMODEL PAL8
|  3>
|  4> %base "7-145_DFT_AB"
|  5>
|  6> %scf
|  7> MaxIter 1000
|  8> end
|  9>
| 10> * xyz 0 1
| 11>   C                      3.721256             2.865454             0.278842
| 12>   O                      3.810652             4.224513             0.718855
| 13>   H                      3.847158             4.251311             1.654711
| 14>   H                      4.630489             2.337793             0.330650
| 15>   H                      3.118835             2.213713             0.975832
| 16>   H                      3.309772             2.784025             -0.718189
| 17>   C                      6.993456             2.479457             -2.172974
| 18>   O                      6.418240             1.516134             -1.316965
| 19>   H                      6.912548             1.584507             -0.524388
| 20>   H                      7.367645             3.342233             -1.621654
| 21>   H                      7.825218             2.200421             -2.765918
| 22>   H                      6.334212             2.904831             -2.911894
| 23> *
| 24>
| 25> #Run DFT-D3 single point of the molecule with dimer basis set
| 26> $new_job
| 27> %base "7-145_DFT_A"
| 28> ! wB97X-D3 def2-TZVP TIGHTSCF CHELPG PMODEL
| 29>
| 30> %scf
| 31> MaxIter 1000
| 32> end
| 33>
| 34> * xyz 0 1
| 35>   C                      3.721256             2.865454             0.278842
| 36>   O                      3.810652             4.224513             0.718855
| 37>   H                      3.847158             4.251311             1.654711
| 38>   H                      4.630489             2.337793             0.330650
| 39>   H                      3.118835             2.213713             0.975832
| 40>   H                      3.309772             2.784025             -0.718189
| 41>   C                    : 6.993456             2.479457             -2.172974
| 42>   O                    : 6.418240             1.516134             -1.316965
| 43>   H                    : 6.912548             1.584507             -0.524388
| 44>   H                    : 7.367645             3.342233             -1.621654
| 45>   H                    : 7.825218             2.200421             -2.765918
| 46>   H                    : 6.334212             2.904831             -2.911894
| 47> *
| 48>
| 49> #Run DFT-D3 single point of the particle with dimer basis set
| 50> $new_job
| 51> %base "7-145_DFT_B"
| 52> ! wB97X-D3 def2-TZVP TIGHTSCF CHELPG PMODEL
| 53>
| 54> %scf
| 55> MaxIter 1000
| 56> end
| 57>
| 58> * xyz 0 1
| 59>   C                    : 3.721256             2.865454             0.278842
| 60>   O                    : 3.810652             4.224513             0.718855
| 61>   H                    : 3.847158             4.251311             1.654711
| 62>   H                    : 4.630489             2.337793             0.330650
| 63>   H                    : 3.118835             2.213713             0.975832
| 64>   H                    : 3.309772             2.784025             -0.718189
| 65>   C                      6.993456             2.479457             -2.172974
| 66>   O                      6.418240             1.516134             -1.316965
| 67>   H                      6.912548             1.584507             -0.524388
| 68>   H                      7.367645             3.342233             -1.621654
| 69>   H                      7.825218             2.200421             -2.765918
| 70>   H                      6.334212             2.904831             -2.911894
| 71> *
| 72>
| 73>                          ****END OF INPUT****
 Total Charge           Charge          ....    0
 Multiplicity           Mult            ....    1
 Number of Electrons    NEL             ....   36
Dispersion correction           -0.001652072
FINAL SINGLE POINT ENERGY      -231.462724754221
Dispersion correction           -0.000256119
FINAL SINGLE POINT ENERGY      -115.731233091929

CARTESIAN COORDINATES (ANGSTROEM)
---------------------------------
  C      3.721256    2.865454    0.278842
  O      3.810652    4.224513    0.718855
  H      3.847158    4.251311    1.654711
  H      4.630489    2.337793    0.330650
  H      3.118835    2.213713    0.975832
  H      3.309772    2.784025   -0.718189
  C      6.993456    2.479457   -2.172974
  O      6.418240    1.516134   -1.316965
  H      6.912548    1.584507   -0.524388
  H      7.367645    3.342233   -1.621654
  H      7.825218    2.200421   -2.765918
  H      6.334212    2.904831   -2.911894

 Multiplicity           Mult            ....    1
 Number of Electrons    NEL             ....   18
 Basis Dimension        Dim             ....  172

ORBITAL ENERGIES
----------------

  NO   OCC          E(Eh)            E(eV)
   0   2.0000     -19.235072      -523.4129
   1   2.0000     -10.307742      -280.4879
   2   2.0000      -1.146910       -31.2090
   3   2.0000      -0.805112       -21.9082
   4   2.0000      -0.620237       -16.8775
   5   2.0000      -0.540737       -14.7142
   6   2.0000      -0.532873       -14.5002
   7   2.0000      -0.439030       -11.9466
   8   2.0000      -0.378142       -10.2898
   9   0.0000       0.090900         2.4735
  10   0.0000       0.124911         3.3990
  11   0.0000       0.149093         4.0570
  12   0.0000       0.170721         4.6456
  13   0.0000       0.197228         5.3668

MULLIKEN ATOMIC CHARGES
-----------------------
   0 C :    0.014769
   1 O :   -0.000129
   2 H :   -0.000044
   3 H :   -0.023570
   4 H :   -0.001105
   5 H :   -0.001838
   6 C :   -0.189257
   7 O :   -0.450325
   8 H :    0.316637
   9 H :    0.104610
  10 H :    0.109115
  11 H :    0.121137
Sum of atomic charges:    0.0000000

LOEWDIN ATOMIC CHARGES
----------------------
   0 C :   -0.007791
   1 O :   -0.000030
   2 H :   -0.000010
   3 H :   -0.012064
   4 H :   -0.000104
   5 H :   -0.000737
   6 C :   -0.390721
   7 O :   -0.040308
   8 H :    0.160053
   9 H :    0.097490
  10 H :    0.089403
  11 H :    0.104819

  Mayer bond orders larger than 0.1
B(  6-C ,  7-O ) :   1.0076 B(  6-C ,  9-H ) :   0.9889 B(  6-C , 10-H ) :   0.9673
B(  6-C , 11-H ) :   0.9788 B(  7-O ,  8-H ) :   0.9030

Dispersion correction           -0.000245555
FINAL SINGLE POINT ENERGY      -115.730583970493

DIPOLE MOMENT
-------------
                                X             Y             Z
Electronic contribution:     -0.89846      -1.45705       1.04047
Nuclear contribution   :      1.45536       1.89149      -0.88614
                        -----------------------------------------
Total Dipole Moment    :      0.55691       0.43445       0.15434
                        -----------------------------------------
Magnitude (a.u.)       :      0.72299
Magnitude (Debye)      :      1.83768

Rotational constants in cm-1:     4.673979     0.827237     0.794044
Rotational constants in MHz : 140122.367660 24799.951812 23804.838430

                             ****ORCA TERMINATED NORMALLY****
TOTAL RUN TIME: 0 days 0 hours 1 minutes 8 seconds 620 msec
