                         Program Version 4.1.2  - RELEASE  -
|  1> #Run DFT-D3 single point of the dimer
|  2> ! wB97X-D3 def2-TZVP TIGHTSCF CHELPG PMODEL PAL8
|  3>
|  4> %base "8-152_DFT_AB"
|  5>
|  6> %scf
|  7> MaxIter 1000
|  8> end
|  9>
| 10> * xyz 0 1
| 11>   C                      6.699430             -5.657267            -0.260360
| 12>   O                      6.373375             -4.714772            0.735711
| 13>   H                      6.683855             -5.044267            1.572619
| 14>   H                      6.083675             -5.429119            -1.111410
| 15>   H                      7.752837             -5.548398            -0.640329
| 16>   H                      6.603195             -6.639985            0.122955
| 17>   C                      9.769262             -7.615812            2.790514
| 18>   O                      9.008216             -7.107357            3.842723
| 19>   H                      8.368611             -6.424583            3.579696
| 20>   H                      10.096084            -6.844270            2.058707
| 21>   H                      10.680623            -8.247981            3.015261
| 22>   H                      9.048074             -8.278139            2.241576
| 23> *
| 24>
| 25> #Run DFT-D3 single point of the molecule with dimer basis set
| 26> $new_job
| 27> %base "8-152_DFT_A"
| 28> ! wB97X-D3 def2-TZVP TIGHTSCF CHELPG PMODEL
| 29>
| 30> %scf
| 31> MaxIter 1000
| 32> end
| 33>
| 34> * xyz 0 1
| 35>   C                      6.699430             -5.657267            -0.260360
| 36>   O                      6.373375             -4.714772            0.735711
| 37>   H                      6.683855             -5.044267            1.572619
| 38>   H                      6.083675             -5.429119            -1.111410
| 39>   H                      7.752837             -5.548398            -0.640329
| 40>   H                      6.603195             -6.639985            0.122955
| 41>   C                    : 9.769262             -7.615812            2.790514
| 42>   O                    : 9.008216             -7.107357            3.842723
| 43>   H                    : 8.368611             -6.424583            3.579696
| 44>   H                    : 10.096084            -6.844270            2.058707
| 45>   H                    : 10.680623            -8.247981            3.015261
| 46>   H                    : 9.048074             -8.278139            2.241576
| 47> *
| 48>
| 49> #Run DFT-D3 single point of the particle with dimer basis set
| 50> $new_job
| 51> %base "8-152_DFT_B"
| 52> ! wB97X-D3 def2-TZVP TIGHTSCF CHELPG PMODEL
| 53>
| 54> %scf
| 55> MaxIter 1000
| 56> end
| 57>
| 58> * xyz 0 1
| 59>   C                    : 6.699430             -5.657267            -0.260360
| 60>   O                    : 6.373375             -4.714772            0.735711
| 61>   H                    : 6.683855             -5.044267            1.572619
| 62>   H                    : 6.083675             -5.429119            -1.111410
| 63>   H                    : 7.752837             -5.548398            -0.640329
| 64>   H                    : 6.603195             -6.639985            0.122955
| 65>   C                      9.769262             -7.615812            2.790514
| 66>   O                      9.008216             -7.107357            3.842723
| 67>   H                      8.368611             -6.424583            3.579696
| 68>   H                      10.096084            -6.844270            2.058707
| 69>   H                      10.680623            -8.247981            3.015261
| 70>   H                      9.048074             -8.278139            2.241576
| 71> *
| 72>
| 73>                          ****END OF INPUT****
 Total Charge           Charge          ....    0
 Multiplicity           Mult            ....    1
 Number of Electrons    NEL             ....   36
Dispersion correction           -0.001212766
FINAL SINGLE POINT ENERGY      -231.460868329011
Dispersion correction           -0.000233774
FINAL SINGLE POINT ENERGY      -115.734399894919

CARTESIAN COORDINATES (ANGSTROEM)
---------------------------------
  C      6.699430   -5.657267   -0.260360
  O      6.373375   -4.714772    0.735711
  H      6.683855   -5.044267    1.572619
  H      6.083675   -5.429119   -1.111410
  H      7.752837   -5.548398   -0.640329
  H      6.603195   -6.639985    0.122955
  C      9.769262   -7.615812    2.790514
  O      9.008216   -7.107357    3.842723
  H      8.368611   -6.424583    3.579696
  H     10.096084   -6.844270    2.058707
  H     10.680623   -8.247981    3.015261
  H      9.048074   -8.278139    2.241576

 Multiplicity           Mult            ....    1
 Number of Electrons    NEL             ....   18
 Basis Dimension        Dim             ....  172

ORBITAL ENERGIES
----------------

  NO   OCC          E(Eh)            E(eV)
   0   2.0000     -19.229021      -523.2483
   1   2.0000     -10.321519      -280.8628
   2   2.0000      -1.136899       -30.9366
   3   2.0000      -0.790363       -21.5069
   4   2.0000      -0.614012       -16.7081
   5   2.0000      -0.537735       -14.6325
   6   2.0000      -0.531203       -14.4548
   7   2.0000      -0.421631       -11.4732
   8   2.0000      -0.365468        -9.9449
   9   0.0000       0.069851         1.9007
  10   0.0000       0.120589         3.2814
  11   0.0000       0.142026         3.8647
  12   0.0000       0.172726         4.7001
  13   0.0000       0.179442         4.8829

MULLIKEN ATOMIC CHARGES
-----------------------
   0 C :    0.000602
   1 O :    0.000115
   2 H :   -0.001078
   3 H :    0.000008
   4 H :   -0.000278
   5 H :   -0.000209
   6 C :   -0.167643
   7 O :   -0.483750
   8 H :    0.324816
   9 H :    0.101588
  10 H :    0.127088
  11 H :    0.098741
Sum of atomic charges:    0.0000000

LOEWDIN ATOMIC CHARGES
----------------------
   0 C :   -0.000179
   1 O :   -0.000037
   2 H :   -0.001067
   3 H :   -0.000002
   4 H :   -0.000111
   5 H :   -0.000139
   6 C :   -0.412125
   7 O :   -0.074555
   8 H :    0.178511
   9 H :    0.095283
  10 H :    0.115767
  11 H :    0.098655

  Mayer bond orders larger than 0.1
B(  6-C ,  7-O ) :   0.9860 B(  6-C ,  9-H ) :   0.9735 B(  6-C , 10-H ) :   0.9631
B(  6-C , 11-H ) :   0.9889 B(  7-O ,  8-H ) :   0.8883

Dispersion correction           -0.000253900
FINAL SINGLE POINT ENERGY      -115.727312192015

DIPOLE MOMENT
-------------
                                X             Y             Z
Electronic contribution:     -0.80596       0.65540       1.59846
Nuclear contribution   :      0.69610      -0.40121      -2.18251
                        -----------------------------------------
Total Dipole Moment    :     -0.10986       0.25419      -0.58405
                        -----------------------------------------
Magnitude (a.u.)       :      0.64637
Magnitude (Debye)      :      1.64294

Rotational constants in cm-1:     4.300758     0.829547     0.800799
Rotational constants in MHz : 128933.493035 24869.202828 24007.343274

                             ****ORCA TERMINATED NORMALLY****
TOTAL RUN TIME: 0 days 0 hours 0 minutes 43 seconds 911 msec
