                         Program Version 4.1.2  - RELEASE  -
|  1> #Run DFT-D3 single point of the dimer
|  2> ! wB97X-D3 def2-TZVP TIGHTSCF CHELPG PMODEL PAL8
|  3>
|  4> %base "12-158_DFT_AB"
|  5>
|  6> %scf
|  7> MaxIter 1000
|  8> end
|  9>
| 10> * xyz 0 1
| 11>   C                      -6.930859            4.185726             5.351459
| 12>   O                      -5.817814            3.518194             5.831473
| 13>   H                      -5.883454            3.333391             6.791137
| 14>   H                      -7.014347            4.154063             4.243381
| 15>   H                      -7.843413            3.662853             5.665790
| 16>   H                      -6.956142            5.233463             5.704155
| 17>   C                      -5.092731            1.692038             8.397460
| 18>   O                      -4.331788            2.881893             8.249943
| 19>   H                      -4.203986            3.322232             9.111334
| 20>   H                      -5.047075            1.267063             9.382715
| 21>   H                      -6.093993            1.748745             7.895877
| 22>   H                      -4.575883            0.892153             7.899121
| 23> *
| 24>
| 25> #Run DFT-D3 single point of the molecule with dimer basis set
| 26> $new_job
| 27> %base "12-158_DFT_A"
| 28> ! wB97X-D3 def2-TZVP TIGHTSCF CHELPG PMODEL
| 29>
| 30> %scf
| 31> MaxIter 1000
| 32> end
| 33>
| 34> * xyz 0 1
| 35>   C                      -6.930859            4.185726             5.351459
| 36>   O                      -5.817814            3.518194             5.831473
| 37>   H                      -5.883454            3.333391             6.791137
| 38>   H                      -7.014347            4.154063             4.243381
| 39>   H                      -7.843413            3.662853             5.665790
| 40>   H                      -6.956142            5.233463             5.704155
| 41>   C                    : -5.092731            1.692038             8.397460
| 42>   O                    : -4.331788            2.881893             8.249943
| 43>   H                    : -4.203986            3.322232             9.111334
| 44>   H                    : -5.047075            1.267063             9.382715
| 45>   H                    : -6.093993            1.748745             7.895877
| 46>   H                    : -4.575883            0.892153             7.899121
| 47> *
| 48>
| 49> #Run DFT-D3 single point of the particle with dimer basis set
| 50> $new_job
| 51> %base "12-158_DFT_B"
| 52> ! wB97X-D3 def2-TZVP TIGHTSCF CHELPG PMODEL
| 53>
| 54> %scf
| 55> MaxIter 1000
| 56> end
| 57>
| 58> * xyz 0 1
| 59>   C                    : -6.930859            4.185726             5.351459
| 60>   O                    : -5.817814            3.518194             5.831473
| 61>   H                    : -5.883454            3.333391             6.791137
| 62>   H                    : -7.014347            4.154063             4.243381
| 63>   H                    : -7.843413            3.662853             5.665790
| 64>   H                    : -6.956142            5.233463             5.704155
| 65>   C                      -5.092731            1.692038             8.397460
| 66>   O                      -4.331788            2.881893             8.249943
| 67>   H                      -4.203986            3.322232             9.111334
| 68>   H                      -5.047075            1.267063             9.382715
| 69>   H                      -6.093993            1.748745             7.895877
| 70>   H                      -4.575883            0.892153             7.899121
| 71> *
| 72>
| 73>                          ****END OF INPUT****
 Total Charge           Charge          ....    0
 Multiplicity           Mult            ....    1
 Number of Electrons    NEL             ....   36
Dispersion correction           -0.001720199
FINAL SINGLE POINT ENERGY      -231.464397096873
Dispersion correction           -0.000240353
FINAL SINGLE POINT ENERGY      -115.734451388031

CARTESIAN COORDINATES (ANGSTROEM)
---------------------------------
  C     -6.930859    4.185726    5.351459
  O     -5.817814    3.518194    5.831473
  H     -5.883454    3.333391    6.791137
  H     -7.014347    4.154063    4.243381
  H     -7.843413    3.662853    5.665790
  H     -6.956142    5.233463    5.704155
  C     -5.092731    1.692038    8.397460
  O     -4.331788    2.881893    8.249943
  H     -4.203986    3.322232    9.111334
  H     -5.047075    1.267063    9.382715
  H     -6.093993    1.748745    7.895877
  H     -4.575883    0.892153    7.899121

 Multiplicity           Mult            ....    1
 Number of Electrons    NEL             ....   18
 Basis Dimension        Dim             ....  172

ORBITAL ENERGIES
----------------

  NO   OCC          E(Eh)            E(eV)
   0   2.0000     -19.231585      -523.3180
   1   2.0000     -10.311326      -280.5854
   2   2.0000      -1.129631       -30.7388
   3   2.0000      -0.799072       -21.7439
   4   2.0000      -0.611249       -16.6329
   5   2.0000      -0.542086       -14.7509
   6   2.0000      -0.522568       -14.2198
   7   2.0000      -0.428355       -11.6561
   8   2.0000      -0.373091       -10.1523
   9   0.0000       0.094413         2.5691
  10   0.0000       0.119118         3.2414
  11   0.0000       0.150253         4.0886
  12   0.0000       0.185266         5.0413
  13   0.0000       0.199431         5.4268

MULLIKEN ATOMIC CHARGES
-----------------------
   0 C :   -0.000461
   1 O :    0.001698
   2 H :   -0.002280
   3 H :   -0.000041
   4 H :    0.000022
   5 H :   -0.000048
   6 C :   -0.171194
   7 O :   -0.482337
   8 H :    0.319675
   9 H :    0.115807
  10 H :    0.107101
  11 H :    0.112059
Sum of atomic charges:   -0.0000000

LOEWDIN ATOMIC CHARGES
----------------------
   0 C :   -0.000666
   1 O :   -0.006190
   2 H :   -0.025155
   3 H :   -0.000010
   4 H :   -0.000121
   5 H :   -0.000028
   6 C :   -0.381811
   7 O :   -0.071878
   8 H :    0.177406
   9 H :    0.096696
  10 H :    0.110332
  11 H :    0.101426

  Mayer bond orders larger than 0.1
B(  6-C ,  7-O ) :   0.9990 B(  6-C ,  9-H ) :   0.9798 B(  6-C , 10-H ) :   0.9777
B(  6-C , 11-H ) :   0.9764 B(  7-O ,  8-H ) :   0.8945

Dispersion correction           -0.000264240
FINAL SINGLE POINT ENERGY      -115.729178518016

DIPOLE MOMENT
-------------
                                X             Y             Z
Electronic contribution:      0.87610       1.60797      -0.21790
Nuclear contribution   :     -1.05137      -1.84200       0.84843
                        -----------------------------------------
Total Dipole Moment    :     -0.17527      -0.23403       0.63053
                        -----------------------------------------
Magnitude (a.u.)       :      0.69503
Magnitude (Debye)      :      1.76662

Rotational constants in cm-1:     4.390898     0.816800     0.789592
Rotational constants in MHz : 131635.806028 24487.060131 23671.380862

                             ****ORCA TERMINATED NORMALLY****
TOTAL RUN TIME: 0 days 0 hours 1 minutes 16 seconds 736 msec
