                         Program Version 4.1.2  - RELEASE  -
|  1> #Run DFT-D3 single point of the dimer
|  2> ! wB97X-D3 def2-TZVP TIGHTSCF CHELPG PMODEL PAL8
|  3>
|  4> %base "11-171_DFT_AB"
|  5>
|  6> %scf
|  7> MaxIter 1000
|  8> end
|  9>
| 10> * xyz 0 1
| 11>   C                      -6.310086            -3.926838            1.277740
| 12>   O                      -7.731180            -4.197409            1.454962
| 13>   H                      -7.719201            -4.762087            2.278271
| 14>   H                      -5.742679            -4.812015            0.987931
| 15>   H                      -6.110303            -3.214105            0.491601
| 16>   H                      -5.883718            -3.606113            2.231377
| 17>   C                      -10.018946           -1.408965            1.870387
| 18>   O                      -10.337469           -2.526738            1.054281
| 19>   H                      -9.774385            -3.257972            1.378657
| 20>   H                      -10.655951           -1.147242            2.725710
| 21>   H                      -9.059208            -1.586892            2.320353
| 22>   H                      -9.913778            -0.568793            1.239925
| 23> *
| 24>
| 25> #Run DFT-D3 single point of the molecule with dimer basis set
| 26> $new_job
| 27> %base "11-171_DFT_A"
| 28> ! wB97X-D3 def2-TZVP TIGHTSCF CHELPG PMODEL
| 29>
| 30> %scf
| 31> MaxIter 1000
| 32> end
| 33>
| 34> * xyz 0 1
| 35>   C                      -6.310086            -3.926838            1.277740
| 36>   O                      -7.731180            -4.197409            1.454962
| 37>   H                      -7.719201            -4.762087            2.278271
| 38>   H                      -5.742679            -4.812015            0.987931
| 39>   H                      -6.110303            -3.214105            0.491601
| 40>   H                      -5.883718            -3.606113            2.231377
| 41>   C                    : -10.018946           -1.408965            1.870387
| 42>   O                    : -10.337469           -2.526738            1.054281
| 43>   H                    : -9.774385            -3.257972            1.378657
| 44>   H                    : -10.655951           -1.147242            2.725710
| 45>   H                    : -9.059208            -1.586892            2.320353
| 46>   H                    : -9.913778            -0.568793            1.239925
| 47> *
| 48>
| 49> #Run DFT-D3 single point of the particle with dimer basis set
| 50> $new_job
| 51> %base "11-171_DFT_B"
| 52> ! wB97X-D3 def2-TZVP TIGHTSCF CHELPG PMODEL
| 53>
| 54> %scf
| 55> MaxIter 1000
| 56> end
| 57>
| 58> * xyz 0 1
| 59>   C                    : -6.310086            -3.926838            1.277740
| 60>   O                    : -7.731180            -4.197409            1.454962
| 61>   H                    : -7.719201            -4.762087            2.278271
| 62>   H                    : -5.742679            -4.812015            0.987931
| 63>   H                    : -6.110303            -3.214105            0.491601
| 64>   H                    : -5.883718            -3.606113            2.231377
| 65>   C                      -10.018946           -1.408965            1.870387
| 66>   O                      -10.337469           -2.526738            1.054281
| 67>   H                      -9.774385            -3.257972            1.378657
| 68>   H                      -10.655951           -1.147242            2.725710
| 69>   H                      -9.059208            -1.586892            2.320353
| 70>   H                      -9.913778            -0.568793            1.239925
| 71> *
| 72>
| 73>                          ****END OF INPUT****
 Total Charge           Charge          ....    0
 Multiplicity           Mult            ....    1
 Number of Electrons    NEL             ....   36
Dispersion correction           -0.001649189
FINAL SINGLE POINT ENERGY      -231.469297548532
Dispersion correction           -0.000242000
FINAL SINGLE POINT ENERGY      -115.732178852618

CARTESIAN COORDINATES (ANGSTROEM)
---------------------------------
  C     -6.310086   -3.926838    1.277740
  O     -7.731180   -4.197409    1.454962
  H     -7.719201   -4.762087    2.278271
  H     -5.742679   -4.812015    0.987931
  H     -6.110303   -3.214105    0.491601
  H     -5.883718   -3.606113    2.231377
  C    -10.018946   -1.408965    1.870387
  O    -10.337469   -2.526738    1.054281
  H     -9.774385   -3.257972    1.378657
  H    -10.655951   -1.147242    2.725710
  H     -9.059208   -1.586892    2.320353
  H     -9.913778   -0.568793    1.239925

 Multiplicity           Mult            ....    1
 Number of Electrons    NEL             ....   18
 Basis Dimension        Dim             ....  172

ORBITAL ENERGIES
----------------

  NO   OCC          E(Eh)            E(eV)
   0   2.0000     -19.233872      -523.3803
   1   2.0000     -10.307630      -280.4849
   2   2.0000      -1.133475       -30.8434
   3   2.0000      -0.798330       -21.7237
   4   2.0000      -0.612776       -16.6745
   5   2.0000      -0.539291       -14.6749
   6   2.0000      -0.530217       -14.4279
   7   2.0000      -0.435089       -11.8394
   8   2.0000      -0.375875       -10.2281
   9   0.0000       0.067505         1.8369
  10   0.0000       0.125259         3.4085
  11   0.0000       0.148613         4.0440
  12   0.0000       0.172073         4.6823
  13   0.0000       0.186701         5.0804

MULLIKEN ATOMIC CHARGES
-----------------------
   0 C :   -0.000475
   1 O :   -0.002875
   2 H :   -0.000375
   3 H :    0.000026
   4 H :   -0.000111
   5 H :   -0.000132
   6 C :   -0.162197
   7 O :   -0.470560
   8 H :    0.316028
   9 H :    0.103143
  10 H :    0.099470
  11 H :    0.118059
Sum of atomic charges:   -0.0000000

LOEWDIN ATOMIC CHARGES
----------------------
   0 C :   -0.001171
   1 O :   -0.009723
   2 H :   -0.000915
   3 H :   -0.000017
   4 H :   -0.000088
   5 H :   -0.000061
   6 C :   -0.377750
   7 O :   -0.081219
   8 H :    0.183108
   9 H :    0.097296
  10 H :    0.093520
  11 H :    0.097019

  Mayer bond orders larger than 0.1
B(  6-C ,  7-O ) :   1.0031 B(  6-C ,  9-H ) :   0.9673 B(  6-C , 10-H ) :   0.9904
B(  6-C , 11-H ) :   0.9792 B(  7-O ,  8-H ) :   0.9058

Dispersion correction           -0.000244961
FINAL SINGLE POINT ENERGY      -115.731169331416

DIPOLE MOMENT
-------------
                                X             Y             Z
Electronic contribution:     -0.63343      -1.33911      -1.14962
Nuclear contribution   :      1.14567       1.32797       1.67323
                        -----------------------------------------
Total Dipole Moment    :      0.51224      -0.01114       0.52361
                        -----------------------------------------
Magnitude (a.u.)       :      0.73258
Magnitude (Debye)      :      1.86208

Rotational constants in cm-1:     4.442216     0.826113     0.795763
Rotational constants in MHz : 133174.294541 24766.258594 23856.385108

                             ****ORCA TERMINATED NORMALLY****
TOTAL RUN TIME: 0 days 0 hours 1 minutes 14 seconds 37 msec
