                         Program Version 4.1.2  - RELEASE  -
|  1> #Run DFT-D3 single point of the dimer
|  2> ! wB97X-D3 def2-TZVP TIGHTSCF CHELPG PMODEL PAL8
|  3>
|  4> %base "17-15_DFT_AB"
|  5>
|  6> %scf
|  7> MaxIter 1000
|  8> end
|  9>
| 10> * xyz 0 1
| 11>   C                      -4.021581            2.799748             -3.951247
| 12>   O                      -3.968984            3.408857             -2.693875
| 13>   H                      -3.428997            4.133400             -2.976944
| 14>   H                      -4.837682            2.116741             -4.115847
| 15>   H                      -4.388551            3.544017             -4.698766
| 16>   H                      -3.031499            2.512948             -4.232440
| 17>   C                      -0.007571            2.884202             0.553842
| 18>   O                      -0.961278            2.596705             -0.447890
| 19>   H                      -1.309672            3.448110             -0.727636
| 20>   H                      -0.458122            3.474589             1.324680
| 21>   H                      0.421138             2.083740             1.150053
| 22>   H                      0.747337             3.588553             0.238310
| 23> *
| 24>
| 25> #Run DFT-D3 single point of the molecule with dimer basis set
| 26> $new_job
| 27> %base "17-15_DFT_A"
| 28> ! wB97X-D3 def2-TZVP TIGHTSCF CHELPG PMODEL
| 29>
| 30> %scf
| 31> MaxIter 1000
| 32> end
| 33>
| 34> * xyz 0 1
| 35>   C                      -4.021581            2.799748             -3.951247
| 36>   O                      -3.968984            3.408857             -2.693875
| 37>   H                      -3.428997            4.133400             -2.976944
| 38>   H                      -4.837682            2.116741             -4.115847
| 39>   H                      -4.388551            3.544017             -4.698766
| 40>   H                      -3.031499            2.512948             -4.232440
| 41>   C                    : -0.007571            2.884202             0.553842
| 42>   O                    : -0.961278            2.596705             -0.447890
| 43>   H                    : -1.309672            3.448110             -0.727636
| 44>   H                    : -0.458122            3.474589             1.324680
| 45>   H                    : 0.421138             2.083740             1.150053
| 46>   H                    : 0.747337             3.588553             0.238310
| 47> *
| 48>
| 49> #Run DFT-D3 single point of the particle with dimer basis set
| 50> $new_job
| 51> %base "17-15_DFT_B"
| 52> ! wB97X-D3 def2-TZVP TIGHTSCF CHELPG PMODEL
| 53>
| 54> %scf
| 55> MaxIter 1000
| 56> end
| 57>
| 58> * xyz 0 1
| 59>   C                    : -4.021581            2.799748             -3.951247
| 60>   O                    : -3.968984            3.408857             -2.693875
| 61>   H                    : -3.428997            4.133400             -2.976944
| 62>   H                    : -4.837682            2.116741             -4.115847
| 63>   H                    : -4.388551            3.544017             -4.698766
| 64>   H                    : -3.031499            2.512948             -4.232440
| 65>   C                      -0.007571            2.884202             0.553842
| 66>   O                      -0.961278            2.596705             -0.447890
| 67>   H                      -1.309672            3.448110             -0.727636
| 68>   H                      -0.458122            3.474589             1.324680
| 69>   H                      0.421138             2.083740             1.150053
| 70>   H                      0.747337             3.588553             0.238310
| 71> *
| 72>
| 73>                          ****END OF INPUT****
 Total Charge           Charge          ....    0
 Multiplicity           Mult            ....    1
 Number of Electrons    NEL             ....   36
Dispersion correction           -0.000910494
FINAL SINGLE POINT ENERGY      -231.448797562452
Dispersion correction           -0.000191094
FINAL SINGLE POINT ENERGY      -115.721814602202

CARTESIAN COORDINATES (ANGSTROEM)
---------------------------------
  C     -4.021581    2.799748   -3.951247
  O     -3.968984    3.408857   -2.693875
  H     -3.428997    4.133400   -2.976944
  H     -4.837682    2.116741   -4.115847
  H     -4.388551    3.544017   -4.698766
  H     -3.031499    2.512948   -4.232440
  C     -0.007571    2.884202    0.553842
  O     -0.961278    2.596705   -0.447890
  H     -1.309672    3.448110   -0.727636
  H     -0.458122    3.474589    1.324680
  H      0.421138    2.083740    1.150053
  H      0.747337    3.588553    0.238310

 Multiplicity           Mult            ....    1
 Number of Electrons    NEL             ....   18
 Basis Dimension        Dim             ....  172

ORBITAL ENERGIES
----------------

  NO   OCC          E(Eh)            E(eV)
   0   2.0000     -19.233375      -523.3668
   1   2.0000     -10.308356      -280.5046
   2   2.0000      -1.138953       -30.9925
   3   2.0000      -0.801748       -21.8167
   4   2.0000      -0.616784       -16.7835
   5   2.0000      -0.542874       -14.7723
   6   2.0000      -0.527053       -14.3418
   7   2.0000      -0.438553       -11.9336
   8   2.0000      -0.370229       -10.0744
   9   0.0000       0.082611         2.2480
  10   0.0000       0.117896         3.2081
  11   0.0000       0.146622         3.9898
  12   0.0000       0.182230         4.9587
  13   0.0000       0.200632         5.4595

MULLIKEN ATOMIC CHARGES
-----------------------
   0 C :   -0.000043
   1 O :   -0.000133
   2 H :   -0.000081
   3 H :    0.000002
   4 H :   -0.000011
   5 H :   -0.000265
   6 C :   -0.190514
   7 O :   -0.468275
   8 H :    0.320167
   9 H :    0.104817
  10 H :    0.127144
  11 H :    0.107191
Sum of atomic charges:   -0.0000000

LOEWDIN ATOMIC CHARGES
----------------------
   0 C :   -0.000163
   1 O :   -0.000282
   2 H :   -0.000284
   3 H :   -0.000001
   4 H :   -0.000004
   5 H :   -0.000089
   6 C :   -0.393862
   7 O :   -0.074463
   8 H :    0.174789
   9 H :    0.091585
  10 H :    0.109680
  11 H :    0.093095

  Mayer bond orders larger than 0.1
B(  6-C ,  7-O ) :   0.9950 B(  6-C ,  9-H ) :   0.9834 B(  6-C , 10-H ) :   0.9705
B(  6-C , 11-H ) :   0.9777 B(  7-O ,  8-H ) :   0.8949

Dispersion correction           -0.000231028
FINAL SINGLE POINT ENERGY      -115.727123610868

DIPOLE MOMENT
-------------
                                X             Y             Z
Electronic contribution:     -1.16794      -0.73539      -1.42357
Nuclear contribution   :      1.31356       1.40392       1.68112
                        -----------------------------------------
Total Dipole Moment    :      0.14562       0.66853       0.25754
                        -----------------------------------------
Magnitude (a.u.)       :      0.73108
Magnitude (Debye)      :      1.85825

Rotational constants in cm-1:     4.581917     0.829273     0.790148
Rotational constants in MHz : 137362.429434 24860.984085 23688.036578

                             ****ORCA TERMINATED NORMALLY****
TOTAL RUN TIME: 0 days 0 hours 1 minutes 5 seconds 730 msec
