                         Program Version 4.1.2  - RELEASE  -
|  1> #Run DFT-D3 single point of the dimer
|  2> ! wB97X-D3 def2-TZVP TIGHTSCF CHELPG PMODEL PAL8
|  3>
|  4> %base "11-24_DFT_AB"
|  5>
|  6> %scf
|  7> MaxIter 1000
|  8> end
|  9>
| 10> * xyz 0 1
| 11>   C                      -8.448119            2.442185             -5.118233
| 12>   O                      -7.831945            1.753476             -4.059607
| 13>   H                      -8.251878            0.862124             -3.916511
| 14>   H                      -9.518605            2.289483             -5.032777
| 15>   H                      -8.197066            3.464053             -5.152794
| 16>   H                      -8.176135            2.038059             -6.035437
| 17>   C                      -8.520940            6.286076             -4.403232
| 18>   O                      -8.997023            5.176493             -3.581516
| 19>   H                      -8.221202            4.683733             -3.330389
| 20>   H                      -8.499745            7.139739             -3.784151
| 21>   H                      -7.524745            6.049312             -4.681727
| 22>   H                      -9.098874            6.502751             -5.312107
| 23> *
| 24>
| 25> #Run DFT-D3 single point of the molecule with dimer basis set
| 26> $new_job
| 27> %base "11-24_DFT_A"
| 28> ! wB97X-D3 def2-TZVP TIGHTSCF CHELPG PMODEL
| 29>
| 30> %scf
| 31> MaxIter 1000
| 32> end
| 33>
| 34> * xyz 0 1
| 35>   C                      -8.448119            2.442185             -5.118233
| 36>   O                      -7.831945            1.753476             -4.059607
| 37>   H                      -8.251878            0.862124             -3.916511
| 38>   H                      -9.518605            2.289483             -5.032777
| 39>   H                      -8.197066            3.464053             -5.152794
| 40>   H                      -8.176135            2.038059             -6.035437
| 41>   C                    : -8.520940            6.286076             -4.403232
| 42>   O                    : -8.997023            5.176493             -3.581516
| 43>   H                    : -8.221202            4.683733             -3.330389
| 44>   H                    : -8.499745            7.139739             -3.784151
| 45>   H                    : -7.524745            6.049312             -4.681727
| 46>   H                    : -9.098874            6.502751             -5.312107
| 47> *
| 48>
| 49> #Run DFT-D3 single point of the particle with dimer basis set
| 50> $new_job
| 51> %base "11-24_DFT_B"
| 52> ! wB97X-D3 def2-TZVP TIGHTSCF CHELPG PMODEL
| 53>
| 54> %scf
| 55> MaxIter 1000
| 56> end
| 57>
| 58> * xyz 0 1
| 59>   C                    : -8.448119            2.442185             -5.118233
| 60>   O                    : -7.831945            1.753476             -4.059607
| 61>   H                    : -8.251878            0.862124             -3.916511
| 62>   H                    : -9.518605            2.289483             -5.032777
| 63>   H                    : -8.197066            3.464053             -5.152794
| 64>   H                    : -8.176135            2.038059             -6.035437
| 65>   C                      -8.520940            6.286076             -4.403232
| 66>   O                      -8.997023            5.176493             -3.581516
| 67>   H                      -8.221202            4.683733             -3.330389
| 68>   H                      -8.499745            7.139739             -3.784151
| 69>   H                      -7.524745            6.049312             -4.681727
| 70>   H                      -9.098874            6.502751             -5.312107
| 71> *
| 72>
| 73>                          ****END OF INPUT****
 Total Charge           Charge          ....    0
 Multiplicity           Mult            ....    1
 Number of Electrons    NEL             ....   36
Dispersion correction           -0.001865372
FINAL SINGLE POINT ENERGY      -231.462485993960
Dispersion correction           -0.000222118
FINAL SINGLE POINT ENERGY      -115.730138972419

CARTESIAN COORDINATES (ANGSTROEM)
---------------------------------
  C     -8.448119    2.442185   -5.118233
  O     -7.831945    1.753476   -4.059607
  H     -8.251878    0.862124   -3.916511
  H     -9.518605    2.289483   -5.032777
  H     -8.197066    3.464053   -5.152794
  H     -8.176135    2.038059   -6.035437
  C     -8.520940    6.286076   -4.403232
  O     -8.997023    5.176493   -3.581516
  H     -8.221202    4.683733   -3.330389
  H     -8.499745    7.139739   -3.784151
  H     -7.524745    6.049312   -4.681727
  H     -9.098874    6.502751   -5.312107

 Multiplicity           Mult            ....    1
 Number of Electrons    NEL             ....   18
 Basis Dimension        Dim             ....  172

ORBITAL ENERGIES
----------------

  NO   OCC          E(Eh)            E(eV)
   0   2.0000     -19.228277      -523.2280
   1   2.0000     -10.310812      -280.5715
   2   2.0000      -1.125159       -30.6171
   3   2.0000      -0.802267       -21.8308
   4   2.0000      -0.604360       -16.4455
   5   2.0000      -0.542712       -14.7679
   6   2.0000      -0.530075       -14.4241
   7   2.0000      -0.435859       -11.8603
   8   2.0000      -0.376047       -10.2328
   9   0.0000       0.084824         2.3082
  10   0.0000       0.128771         3.5040
  11   0.0000       0.149138         4.0582
  12   0.0000       0.173635         4.7249
  13   0.0000       0.190039         5.1712

MULLIKEN ATOMIC CHARGES
-----------------------
   0 C :   -0.000071
   1 O :    0.000512
   2 H :    0.000057
   3 H :    0.000625
   4 H :   -0.016276
   5 H :   -0.001482
   6 C :   -0.164474
   7 O :   -0.478824
   8 H :    0.315948
   9 H :    0.119659
  10 H :    0.106074
  11 H :    0.118252
Sum of atomic charges:    0.0000000

LOEWDIN ATOMIC CHARGES
----------------------
   0 C :   -0.015642
   1 O :   -0.000492
   2 H :   -0.000043
   3 H :   -0.001475
   4 H :   -0.012360
   5 H :   -0.000247
   6 C :   -0.337076
   7 O :   -0.088828
   8 H :    0.163363
   9 H :    0.092840
  10 H :    0.092700
  11 H :    0.107261

  Mayer bond orders larger than 0.1
B(  6-C ,  7-O ) :   0.9800 B(  6-C ,  9-H ) :   0.9802 B(  6-C , 10-H ) :   0.9926
B(  6-C , 11-H ) :   0.9723 B(  7-O ,  8-H ) :   0.9023

Dispersion correction           -0.000239715
FINAL SINGLE POINT ENERGY      -115.731159179584

DIPOLE MOMENT
-------------
                                X             Y             Z
Electronic contribution:     -0.77881      -1.25350       0.92993
Nuclear contribution   :      1.49443       1.44077      -1.12007
                        -----------------------------------------
Total Dipole Moment    :      0.71562       0.18726      -0.19013
                        -----------------------------------------
Magnitude (a.u.)       :      0.76376
Magnitude (Debye)      :      1.94133

Rotational constants in cm-1:     4.426636     0.797114     0.769446
Rotational constants in MHz : 132707.194599 23896.867108 23067.417695

                             ****ORCA TERMINATED NORMALLY****
TOTAL RUN TIME: 0 days 0 hours 1 minutes 13 seconds 619 msec
