                         Program Version 4.1.2  - RELEASE  -
|  1> #Run DFT-D3 single point of the dimer
|  2> ! wB97X-D3 def2-TZVP TIGHTSCF CHELPG PMODEL PAL8
|  3>
|  4> %base "2-122_DFT_AB"
|  5>
|  6> %scf
|  7> MaxIter 1000
|  8> end
|  9>
| 10> * xyz 0 1
| 11>   C                      4.903913             0.406796             5.553629
| 12>   O                      4.965341             0.096374             6.927694
| 13>   H                      4.245651             0.443145             7.449929
| 14>   H                      3.890953             0.251996             5.036663
| 15>   H                      5.294555             1.436939             5.352639
| 16>   H                      5.521654             -0.336337            5.032475
| 17>   C                      7.996633             -1.735573            4.527237
| 18>   O                      7.263892             -2.949222            4.423711
| 19>   H                      7.955165             -3.509300            4.078103
| 20>   H                      8.908244             -1.747143            3.903842
| 21>   H                      7.329554             -0.891371            4.141060
| 22>   H                      8.341801             -1.503690            5.581200
| 23> *
| 24>
| 25> #Run DFT-D3 single point of the molecule with dimer basis set
| 26> $new_job
| 27> %base "2-122_DFT_A"
| 28> ! wB97X-D3 def2-TZVP TIGHTSCF CHELPG PMODEL
| 29>
| 30> %scf
| 31> MaxIter 1000
| 32> end
| 33>
| 34> * xyz 0 1
| 35>   C                      4.903913             0.406796             5.553629
| 36>   O                      4.965341             0.096374             6.927694
| 37>   H                      4.245651             0.443145             7.449929
| 38>   H                      3.890953             0.251996             5.036663
| 39>   H                      5.294555             1.436939             5.352639
| 40>   H                      5.521654             -0.336337            5.032475
| 41>   C                    : 7.996633             -1.735573            4.527237
| 42>   O                    : 7.263892             -2.949222            4.423711
| 43>   H                    : 7.955165             -3.509300            4.078103
| 44>   H                    : 8.908244             -1.747143            3.903842
| 45>   H                    : 7.329554             -0.891371            4.141060
| 46>   H                    : 8.341801             -1.503690            5.581200
| 47> *
| 48>
| 49> #Run DFT-D3 single point of the particle with dimer basis set
| 50> $new_job
| 51> %base "2-122_DFT_B"
| 52> ! wB97X-D3 def2-TZVP TIGHTSCF CHELPG PMODEL
| 53>
| 54> %scf
| 55> MaxIter 1000
| 56> end
| 57>
| 58> * xyz 0 1
| 59>   C                    : 4.903913             0.406796             5.553629
| 60>   O                    : 4.965341             0.096374             6.927694
| 61>   H                    : 4.245651             0.443145             7.449929
| 62>   H                    : 3.890953             0.251996             5.036663
| 63>   H                    : 5.294555             1.436939             5.352639
| 64>   H                    : 5.521654             -0.336337            5.032475
| 65>   C                      7.996633             -1.735573            4.527237
| 66>   O                      7.263892             -2.949222            4.423711
| 67>   H                      7.955165             -3.509300            4.078103
| 68>   H                      8.908244             -1.747143            3.903842
| 69>   H                      7.329554             -0.891371            4.141060
| 70>   H                      8.341801             -1.503690            5.581200
| 71> *
| 72>
| 73>                          ****END OF INPUT****
 Total Charge           Charge          ....    0
 Multiplicity           Mult            ....    1
 Number of Electrons    NEL             ....   36
Dispersion correction           -0.001533681
FINAL SINGLE POINT ENERGY      -231.463668261530
Dispersion correction           -0.000283545
FINAL SINGLE POINT ENERGY      -115.733037429866

CARTESIAN COORDINATES (ANGSTROEM)
---------------------------------
  C      4.903913    0.406796    5.553629
  O      4.965341    0.096374    6.927694
  H      4.245651    0.443145    7.449929
  H      3.890953    0.251996    5.036663
  H      5.294555    1.436939    5.352639
  H      5.521654   -0.336337    5.032475
  C      7.996633   -1.735573    4.527237
  O      7.263892   -2.949222    4.423711
  H      7.955165   -3.509300    4.078103
  H      8.908244   -1.747143    3.903842
  H      7.329554   -0.891371    4.141060
  H      8.341801   -1.503690    5.581200

 Multiplicity           Mult            ....    1
 Number of Electrons    NEL             ....   18
 Basis Dimension        Dim             ....  172

ORBITAL ENERGIES
----------------

  NO   OCC          E(Eh)            E(eV)
   0   2.0000     -19.234662      -523.4018
   1   2.0000     -10.324695      -280.9492
   2   2.0000      -1.143504       -31.1163
   3   2.0000      -0.784482       -21.3468
   4   2.0000      -0.613066       -16.6824
   5   2.0000      -0.536281       -14.5930
   6   2.0000      -0.519620       -14.1396
   7   2.0000      -0.443005       -12.0548
   8   2.0000      -0.375205       -10.2098
   9   0.0000       0.090138         2.4528
  10   0.0000       0.115187         3.1344
  11   0.0000       0.152159         4.1405
  12   0.0000       0.165927         4.5151
  13   0.0000       0.190245         5.1768

MULLIKEN ATOMIC CHARGES
-----------------------
   0 C :   -0.006065
   1 O :    0.000055
   2 H :   -0.000001
   3 H :    0.000180
   4 H :    0.000015
   5 H :    0.011172
   6 C :   -0.187880
   7 O :   -0.450780
   8 H :    0.314062
   9 H :    0.110576
  10 H :    0.110338
  11 H :    0.098330
Sum of atomic charges:   -0.0000000

LOEWDIN ATOMIC CHARGES
----------------------
   0 C :   -0.003981
   1 O :   -0.000027
   2 H :   -0.000003
   3 H :   -0.000016
   4 H :   -0.000154
   5 H :   -0.007460
   6 C :   -0.395628
   7 O :   -0.077031
   8 H :    0.170125
   9 H :    0.095957
  10 H :    0.116585
  11 H :    0.101633

  Mayer bond orders larger than 0.1
B(  6-C ,  7-O ) :   1.0139 B(  6-C ,  9-H ) :   0.9825 B(  6-C , 10-H ) :   0.9773
B(  6-C , 11-H ) :   0.9667 B(  7-O ,  8-H ) :   0.9052

Dispersion correction           -0.000247590
FINAL SINGLE POINT ENERGY      -115.730734593005

DIPOLE MOMENT
-------------
                                X             Y             Z
Electronic contribution:     -1.10161      -1.59453      -0.06432
Nuclear contribution   :      1.81693       1.68381      -0.13853
                        -----------------------------------------
Total Dipole Moment    :      0.71532       0.08928      -0.20285
                        -----------------------------------------
Magnitude (a.u.)       :      0.74887
Magnitude (Debye)      :      1.90346

Rotational constants in cm-1:     4.043130     0.825994     0.796764
Rotational constants in MHz : 121210.000826 24762.678022 23886.374246

                             ****ORCA TERMINATED NORMALLY****
TOTAL RUN TIME: 0 days 0 hours 6 minutes 19 seconds 440 msec
