                         Program Version 4.1.2  - RELEASE  -
|  1> #Run DFT-D3 single point of the dimer
|  2> ! wB97X-D3 def2-TZVP TIGHTSCF CHELPG PMODEL PAL8
|  3>
|  4> %base "11-165_DFT_AB"
|  5>
|  6> %scf
|  7> MaxIter 1000
|  8> end
|  9>
| 10> * xyz 0 1
| 11>   C                      -8.873412            -4.409818            -8.130485
| 12>   O                      -8.003245            -4.894935            -9.089303
| 13>   H                      -8.099585            -5.844589            -9.083097
| 14>   H                      -8.728155            -4.947995            -7.231725
| 15>   H                      -8.638425            -3.373010            -7.864660
| 16>   H                      -9.901173            -4.582954            -8.383619
| 17>   C                      -7.612981            -7.742472            -10.200403
| 18>   O                      -8.627848            -7.557631            -9.242261
| 19>   H                      -9.277501            -8.145374            -9.601279
| 20>   H                      -6.759457            -7.093476            -10.040922
| 21>   H                      -7.211203            -8.762125            -10.182356
| 22>   H                      -7.974951            -7.563682            -11.201572
| 23> *
| 24>
| 25> #Run DFT-D3 single point of the molecule with dimer basis set
| 26> $new_job
| 27> %base "11-165_DFT_A"
| 28> ! wB97X-D3 def2-TZVP TIGHTSCF CHELPG PMODEL
| 29>
| 30> %scf
| 31> MaxIter 1000
| 32> end
| 33>
| 34> * xyz 0 1
| 35>   C                      -8.873412            -4.409818            -8.130485
| 36>   O                      -8.003245            -4.894935            -9.089303
| 37>   H                      -8.099585            -5.844589            -9.083097
| 38>   H                      -8.728155            -4.947995            -7.231725
| 39>   H                      -8.638425            -3.373010            -7.864660
| 40>   H                      -9.901173            -4.582954            -8.383619
| 41>   C                    : -7.612981            -7.742472            -10.200403
| 42>   O                    : -8.627848            -7.557631            -9.242261
| 43>   H                    : -9.277501            -8.145374            -9.601279
| 44>   H                    : -6.759457            -7.093476            -10.040922
| 45>   H                    : -7.211203            -8.762125            -10.182356
| 46>   H                    : -7.974951            -7.563682            -11.201572
| 47> *
| 48>
| 49> #Run DFT-D3 single point of the particle with dimer basis set
| 50> $new_job
| 51> %base "11-165_DFT_B"
| 52> ! wB97X-D3 def2-TZVP TIGHTSCF CHELPG PMODEL
| 53>
| 54> %scf
| 55> MaxIter 1000
| 56> end
| 57>
| 58> * xyz 0 1
| 59>   C                    : -8.873412            -4.409818            -8.130485
| 60>   O                    : -8.003245            -4.894935            -9.089303
| 61>   H                    : -8.099585            -5.844589            -9.083097
| 62>   H                    : -8.728155            -4.947995            -7.231725
| 63>   H                    : -8.638425            -3.373010            -7.864660
| 64>   H                    : -9.901173            -4.582954            -8.383619
| 65>   C                      -7.612981            -7.742472            -10.200403
| 66>   O                      -8.627848            -7.557631            -9.242261
| 67>   H                      -9.277501            -8.145374            -9.601279
| 68>   H                      -6.759457            -7.093476            -10.040922
| 69>   H                      -7.211203            -8.762125            -10.182356
| 70>   H                      -7.974951            -7.563682            -11.201572
| 71> *
| 72>
| 73>                          ****END OF INPUT****
 Total Charge           Charge          ....    0
 Multiplicity           Mult            ....    1
 Number of Electrons    NEL             ....   36
Dispersion correction           -0.001876952
FINAL SINGLE POINT ENERGY      -231.471755680159
Dispersion correction           -0.000205591
FINAL SINGLE POINT ENERGY      -115.733083769888

CARTESIAN COORDINATES (ANGSTROEM)
---------------------------------
  C     -8.873412   -4.409818   -8.130485
  O     -8.003245   -4.894935   -9.089303
  H     -8.099585   -5.844589   -9.083097
  H     -8.728155   -4.947995   -7.231725
  H     -8.638425   -3.373010   -7.864660
  H     -9.901173   -4.582954   -8.383619
  C     -7.612981   -7.742472  -10.200403
  O     -8.627848   -7.557631   -9.242261
  H     -9.277501   -8.145374   -9.601279
  H     -6.759457   -7.093476  -10.040922
  H     -7.211203   -8.762125  -10.182356
  H     -7.974951   -7.563682  -11.201572

 Multiplicity           Mult            ....    1
 Number of Electrons    NEL             ....   18
 Basis Dimension        Dim             ....  172

ORBITAL ENERGIES
----------------

  NO   OCC          E(Eh)            E(eV)
   0   2.0000     -19.233374      -523.3667
   1   2.0000     -10.310481      -280.5624
   2   2.0000      -1.148489       -31.2520
   3   2.0000      -0.795330       -21.6420
   4   2.0000      -0.614017       -16.7083
   5   2.0000      -0.544524       -14.8172
   6   2.0000      -0.530677       -14.4404
   7   2.0000      -0.444555       -12.0970
   8   2.0000      -0.375354       -10.2139
   9   0.0000       0.100294         2.7291
  10   0.0000       0.126518         3.4427
  11   0.0000       0.154121         4.1938
  12   0.0000       0.190347         5.1796
  13   0.0000       0.202876         5.5205

MULLIKEN ATOMIC CHARGES
-----------------------
   0 C :    0.003331
   1 O :   -0.003774
   2 H :    0.008387
   3 H :   -0.002533
   4 H :   -0.000283
   5 H :   -0.003007
   6 C :   -0.193925
   7 O :   -0.451354
   8 H :    0.309903
   9 H :    0.120203
  10 H :    0.106493
  11 H :    0.106559
Sum of atomic charges:    0.0000000

LOEWDIN ATOMIC CHARGES
----------------------
   0 C :   -0.006516
   1 O :   -0.007788
   2 H :   -0.046667
   3 H :   -0.000834
   4 H :   -0.000082
   5 H :   -0.001129
   6 C :   -0.383373
   7 O :   -0.019895
   8 H :    0.166632
   9 H :    0.110431
  10 H :    0.096329
  11 H :    0.092892

  Mayer bond orders larger than 0.1
B(  6-C ,  7-O ) :   0.9927 B(  6-C ,  9-H ) :   0.9805 B(  6-C , 10-H ) :   0.9723
B(  6-C , 11-H ) :   0.9797 B(  7-O ,  8-H ) :   0.9051

Dispersion correction           -0.000212256
FINAL SINGLE POINT ENERGY      -115.734083448560

DIPOLE MOMENT
-------------
                                X             Y             Z
Electronic contribution:     -1.26314       0.40454       1.38459
Nuclear contribution   :      1.26201      -0.83249      -1.97228
                        -----------------------------------------
Total Dipole Moment    :     -0.00113      -0.42795      -0.58768
                        -----------------------------------------
Magnitude (a.u.)       :      0.72699
Magnitude (Debye)      :      1.84786

Rotational constants in cm-1:     4.350215     0.845490     0.813005
Rotational constants in MHz : 130416.162184 25347.139790 24373.263943

                             ****ORCA TERMINATED NORMALLY****
TOTAL RUN TIME: 0 days 0 hours 1 minutes 4 seconds 383 msec
