                         Program Version 4.1.2  - RELEASE  -
|  1> #Run DFT-D3 single point of the dimer
|  2> ! wB97X-D3 def2-TZVP TIGHTSCF CHELPG PMODEL PAL8
|  3>
|  4> %base "19-148_DFT_AB"
|  5>
|  6> %scf
|  7> MaxIter 1000
|  8> end
|  9>
| 10> * xyz 0 1
| 11>   C                      6.381632             -1.870875            3.659416
| 12>   O                      6.865294             -2.428046            2.462627
| 13>   H                      7.177478             -3.339419            2.607261
| 14>   H                      5.847585             -2.577557            4.305369
| 15>   H                      7.275320             -1.535234            4.225810
| 16>   H                      5.685898             -1.053315            3.452593
| 17>   C                      9.581174             -0.124281            1.928332
| 18>   O                      10.051812            1.201590             2.096946
| 19>   H                      10.500482            1.227346             2.926965
| 20>   H                      9.334964             -0.559037            2.868613
| 21>   H                      8.723279             -0.226228            1.277449
| 22>   H                      10.398617            -0.819547            1.598314
| 23> *
| 24>
| 25> #Run DFT-D3 single point of the molecule with dimer basis set
| 26> $new_job
| 27> %base "19-148_DFT_A"
| 28> ! wB97X-D3 def2-TZVP TIGHTSCF CHELPG PMODEL
| 29>
| 30> %scf
| 31> MaxIter 1000
| 32> end
| 33>
| 34> * xyz 0 1
| 35>   C                      6.381632             -1.870875            3.659416
| 36>   O                      6.865294             -2.428046            2.462627
| 37>   H                      7.177478             -3.339419            2.607261
| 38>   H                      5.847585             -2.577557            4.305369
| 39>   H                      7.275320             -1.535234            4.225810
| 40>   H                      5.685898             -1.053315            3.452593
| 41>   C                    : 9.581174             -0.124281            1.928332
| 42>   O                    : 10.051812            1.201590             2.096946
| 43>   H                    : 10.500482            1.227346             2.926965
| 44>   H                    : 9.334964             -0.559037            2.868613
| 45>   H                    : 8.723279             -0.226228            1.277449
| 46>   H                    : 10.398617            -0.819547            1.598314
| 47> *
| 48>
| 49> #Run DFT-D3 single point of the particle with dimer basis set
| 50> $new_job
| 51> %base "19-148_DFT_B"
| 52> ! wB97X-D3 def2-TZVP TIGHTSCF CHELPG PMODEL
| 53>
| 54> %scf
| 55> MaxIter 1000
| 56> end
| 57>
| 58> * xyz 0 1
| 59>   C                    : 6.381632             -1.870875            3.659416
| 60>   O                    : 6.865294             -2.428046            2.462627
| 61>   H                    : 7.177478             -3.339419            2.607261
| 62>   H                    : 5.847585             -2.577557            4.305369
| 63>   H                    : 7.275320             -1.535234            4.225810
| 64>   H                    : 5.685898             -1.053315            3.452593
| 65>   C                      9.581174             -0.124281            1.928332
| 66>   O                      10.051812            1.201590             2.096946
| 67>   H                      10.500482            1.227346             2.926965
| 68>   H                      9.334964             -0.559037            2.868613
| 69>   H                      8.723279             -0.226228            1.277449
| 70>   H                      10.398617            -0.819547            1.598314
| 71> *
| 72>
| 73>                          ****END OF INPUT****
 Total Charge           Charge          ....    0
 Multiplicity           Mult            ....    1
 Number of Electrons    NEL             ....   36
Dispersion correction           -0.001637276
FINAL SINGLE POINT ENERGY      -231.468972640782
Dispersion correction           -0.000241501
FINAL SINGLE POINT ENERGY      -115.734945157616

CARTESIAN COORDINATES (ANGSTROEM)
---------------------------------
  C      6.381632   -1.870875    3.659416
  O      6.865294   -2.428046    2.462627
  H      7.177478   -3.339419    2.607261
  H      5.847585   -2.577557    4.305369
  H      7.275320   -1.535234    4.225810
  H      5.685898   -1.053315    3.452593
  C      9.581174   -0.124281    1.928332
  O     10.051812    1.201590    2.096946
  H     10.500482    1.227346    2.926965
  H      9.334964   -0.559037    2.868613
  H      8.723279   -0.226228    1.277449
  H     10.398617   -0.819547    1.598314

 Multiplicity           Mult            ....    1
 Number of Electrons    NEL             ....   18
 Basis Dimension        Dim             ....  172

ORBITAL ENERGIES
----------------

  NO   OCC          E(Eh)            E(eV)
   0   2.0000     -19.230293      -523.2829
   1   2.0000     -10.312728      -280.6236
   2   2.0000      -1.140137       -31.0247
   3   2.0000      -0.798954       -21.7406
   4   2.0000      -0.617540       -16.8041
   5   2.0000      -0.537859       -14.6359
   6   2.0000      -0.528525       -14.3819
   7   2.0000      -0.439806       -11.9677
   8   2.0000      -0.371761       -10.1161
   9   0.0000       0.081425         2.2157
  10   0.0000       0.117437         3.1956
  11   0.0000       0.150674         4.1001
  12   0.0000       0.167195         4.5496
  13   0.0000       0.181116         4.9284

MULLIKEN ATOMIC CHARGES
-----------------------
   0 C :   -0.001630
   1 O :   -0.000182
   2 H :   -0.000022
   3 H :   -0.000005
   4 H :    0.000166
   5 H :    0.000198
   6 C :   -0.167485
   7 O :   -0.467320
   8 H :    0.313766
   9 H :    0.103371
  10 H :    0.122949
  11 H :    0.096195
Sum of atomic charges:   -0.0000000

LOEWDIN ATOMIC CHARGES
----------------------
   0 C :   -0.002981
   1 O :   -0.001112
   2 H :   -0.000127
   3 H :   -0.000022
   4 H :   -0.002403
   5 H :   -0.000076
   6 C :   -0.380991
   7 O :   -0.069115
   8 H :    0.160546
   9 H :    0.090777
  10 H :    0.105333
  11 H :    0.100169

  Mayer bond orders larger than 0.1
B(  6-C ,  7-O ) :   1.0023 B(  6-C ,  9-H ) :   0.9856 B(  6-C , 10-H ) :   0.9730
B(  6-C , 11-H ) :   0.9692 B(  7-O ,  8-H ) :   0.9030

Dispersion correction           -0.000238226
FINAL SINGLE POINT ENERGY      -115.732392584840

DIPOLE MOMENT
-------------
                                X             Y             Z
Electronic contribution:      0.44141       1.86614       0.02678
Nuclear contribution   :     -0.35983      -2.37649       0.47054
                        -----------------------------------------
Total Dipole Moment    :      0.08158      -0.51035       0.49733
                        -----------------------------------------
Magnitude (a.u.)       :      0.71725
Magnitude (Debye)      :      1.82311

Rotational constants in cm-1:     4.420443     0.827088     0.794166
Rotational constants in MHz : 132521.536398 24795.472356 23808.512625

                             ****ORCA TERMINATED NORMALLY****
TOTAL RUN TIME: 0 days 0 hours 1 minutes 37 seconds 607 msec
