                         Program Version 4.1.2  - RELEASE  -
|  1> #Run DFT-D3 single point of the dimer
|  2> ! wB97X-D3 def2-TZVP TIGHTSCF CHELPG PMODEL PAL8
|  3>
|  4> %base "18-173_DFT_AB"
|  5>
|  6> %scf
|  7> MaxIter 1000
|  8> end
|  9>
| 10> * xyz 0 1
| 11>   C                      -4.378102            8.116178             -2.250395
| 12>   O                      -3.265974            7.812544             -1.458457
| 13>   H                      -2.526704            7.889954             -2.099805
| 14>   H                      -4.643488            7.304127             -2.928239
| 15>   H                      -5.245410            8.405091             -1.698347
| 16>   H                      -4.190495            8.981392             -2.876955
| 17>   C                      -1.190909            10.327106            1.281165
| 18>   O                      -2.215405            10.697744            0.441225
| 19>   H                      -2.278766            9.994102             -0.216100
| 20>   H                      -0.267089            10.114509            0.636570
| 21>   H                      -1.034651            11.061205            2.086478
| 22>   H                      -1.474296            9.360939             1.762400
| 23> *
| 24>
| 25> #Run DFT-D3 single point of the molecule with dimer basis set
| 26> $new_job
| 27> %base "18-173_DFT_A"
| 28> ! wB97X-D3 def2-TZVP TIGHTSCF CHELPG PMODEL
| 29>
| 30> %scf
| 31> MaxIter 1000
| 32> end
| 33>
| 34> * xyz 0 1
| 35>   C                      -4.378102            8.116178             -2.250395
| 36>   O                      -3.265974            7.812544             -1.458457
| 37>   H                      -2.526704            7.889954             -2.099805
| 38>   H                      -4.643488            7.304127             -2.928239
| 39>   H                      -5.245410            8.405091             -1.698347
| 40>   H                      -4.190495            8.981392             -2.876955
| 41>   C                    : -1.190909            10.327106            1.281165
| 42>   O                    : -2.215405            10.697744            0.441225
| 43>   H                    : -2.278766            9.994102             -0.216100
| 44>   H                    : -0.267089            10.114509            0.636570
| 45>   H                    : -1.034651            11.061205            2.086478
| 46>   H                    : -1.474296            9.360939             1.762400
| 47> *
| 48>
| 49> #Run DFT-D3 single point of the particle with dimer basis set
| 50> $new_job
| 51> %base "18-173_DFT_B"
| 52> ! wB97X-D3 def2-TZVP TIGHTSCF CHELPG PMODEL
| 53>
| 54> %scf
| 55> MaxIter 1000
| 56> end
| 57>
| 58> * xyz 0 1
| 59>   C                    : -4.378102            8.116178             -2.250395
| 60>   O                    : -3.265974            7.812544             -1.458457
| 61>   H                    : -2.526704            7.889954             -2.099805
| 62>   H                    : -4.643488            7.304127             -2.928239
| 63>   H                    : -5.245410            8.405091             -1.698347
| 64>   H                    : -4.190495            8.981392             -2.876955
| 65>   C                      -1.190909            10.327106            1.281165
| 66>   O                      -2.215405            10.697744            0.441225
| 67>   H                      -2.278766            9.994102             -0.216100
| 68>   H                      -0.267089            10.114509            0.636570
| 69>   H                      -1.034651            11.061205            2.086478
| 70>   H                      -1.474296            9.360939             1.762400
| 71> *
| 72>
| 73>                          ****END OF INPUT****
 Total Charge           Charge          ....    0
 Multiplicity           Mult            ....    1
 Number of Electrons    NEL             ....   36
Dispersion correction           -0.001302761
FINAL SINGLE POINT ENERGY      -231.468806716543
Dispersion correction           -0.000219894
FINAL SINGLE POINT ENERGY      -115.733557119009

CARTESIAN COORDINATES (ANGSTROEM)
---------------------------------
  C     -4.378102    8.116178   -2.250395
  O     -3.265974    7.812544   -1.458457
  H     -2.526704    7.889954   -2.099805
  H     -4.643488    7.304127   -2.928239
  H     -5.245410    8.405091   -1.698347
  H     -4.190495    8.981392   -2.876955
  C     -1.190909   10.327106    1.281165
  O     -2.215405   10.697744    0.441225
  H     -2.278766    9.994102   -0.216100
  H     -0.267089   10.114509    0.636570
  H     -1.034651   11.061205    2.086478
  H     -1.474296    9.360939    1.762400

 Multiplicity           Mult            ....    1
 Number of Electrons    NEL             ....   18
 Basis Dimension        Dim             ....  172

ORBITAL ENERGIES
----------------

  NO   OCC          E(Eh)            E(eV)
   0   2.0000     -19.229523      -523.2619
   1   2.0000     -10.319078      -280.7964
   2   2.0000      -1.150157       -31.2974
   3   2.0000      -0.785065       -21.3627
   4   2.0000      -0.614655       -16.7256
   5   2.0000      -0.543569       -14.7913
   6   2.0000      -0.534002       -14.5309
   7   2.0000      -0.433178       -11.7874
   8   2.0000      -0.365853        -9.9554
   9   0.0000       0.069746         1.8979
  10   0.0000       0.121244         3.2992
  11   0.0000       0.156963         4.2712
  12   0.0000       0.172344         4.6897
  13   0.0000       0.186243         5.0679

MULLIKEN ATOMIC CHARGES
-----------------------
   0 C :   -0.000727
   1 O :   -0.000313
   2 H :   -0.000295
   3 H :    0.000004
   4 H :    0.000027
   5 H :   -0.000018
   6 C :   -0.161270
   7 O :   -0.460822
   8 H :    0.317094
   9 H :    0.092854
  10 H :    0.121009
  11 H :    0.092457
Sum of atomic charges:    0.0000000

LOEWDIN ATOMIC CHARGES
----------------------
   0 C :   -0.000959
   1 O :   -0.002413
   2 H :   -0.000761
   3 H :   -0.000018
   4 H :   -0.000060
   5 H :   -0.000080
   6 C :   -0.422278
   7 O :   -0.053940
   8 H :    0.176890
   9 H :    0.100774
  10 H :    0.108722
  11 H :    0.094124

  Mayer bond orders larger than 0.1
B(  6-C ,  7-O ) :   0.9933 B(  6-C ,  9-H ) :   0.9829 B(  6-C , 10-H ) :   0.9684
B(  6-C , 11-H ) :   0.9790 B(  7-O ,  8-H ) :   0.8999

Dispersion correction           -0.000208839
FINAL SINGLE POINT ENERGY      -115.731554424994

DIPOLE MOMENT
-------------
                                X             Y             Z
Electronic contribution:     -1.36048       0.76508      -0.95851
Nuclear contribution   :      1.67343      -1.32917       0.86658
                        -----------------------------------------
Total Dipole Moment    :      0.31295      -0.56409      -0.09193
                        -----------------------------------------
Magnitude (a.u.)       :      0.65160
Magnitude (Debye)      :      1.65624

Rotational constants in cm-1:     4.031760     0.877869     0.838265
Rotational constants in MHz : 120869.136980 26317.845971 25130.556121

                             ****ORCA TERMINATED NORMALLY****
TOTAL RUN TIME: 0 days 0 hours 0 minutes 57 seconds 802 msec
