                         Program Version 4.1.2  - RELEASE  -
|  1> #Run DFT-D3 single point of the dimer
|  2> ! wB97X-D3 def2-TZVP TIGHTSCF CHELPG PMODEL PAL8
|  3>
|  4> %base "2-22_DFT_AB"
|  5>
|  6> %scf
|  7> MaxIter 1000
|  8> end
|  9>
| 10> * xyz 0 1
| 11>   C                      3.461109             3.222378             4.105244
| 12>   O                      3.157580             2.071432             3.453058
| 13>   H                      2.370845             1.638740             3.819682
| 14>   H                      3.982423             3.051816             5.032330
| 15>   H                      4.203252             3.873688             3.594400
| 16>   H                      2.649209             3.897304             4.300673
| 17>   C                      8.088401             1.207706             0.125048
| 18>   O                      6.880566             0.723944             0.725348
| 19>   H                      6.327736             0.306026             0.042389
| 20>   H                      7.969318             1.287649             -1.015837
| 21>   H                      8.502525             2.181685             0.544458
| 22>   H                      8.970427             0.581518             0.385500
| 23> *
| 24>
| 25> #Run DFT-D3 single point of the molecule with dimer basis set
| 26> $new_job
| 27> %base "2-22_DFT_A"
| 28> ! wB97X-D3 def2-TZVP TIGHTSCF CHELPG PMODEL
| 29>
| 30> %scf
| 31> MaxIter 1000
| 32> end
| 33>
| 34> * xyz 0 1
| 35>   C                      3.461109             3.222378             4.105244
| 36>   O                      3.157580             2.071432             3.453058
| 37>   H                      2.370845             1.638740             3.819682
| 38>   H                      3.982423             3.051816             5.032330
| 39>   H                      4.203252             3.873688             3.594400
| 40>   H                      2.649209             3.897304             4.300673
| 41>   C                    : 8.088401             1.207706             0.125048
| 42>   O                    : 6.880566             0.723944             0.725348
| 43>   H                    : 6.327736             0.306026             0.042389
| 44>   H                    : 7.969318             1.287649             -1.015837
| 45>   H                    : 8.502525             2.181685             0.544458
| 46>   H                    : 8.970427             0.581518             0.385500
| 47> *
| 48>
| 49> #Run DFT-D3 single point of the particle with dimer basis set
| 50> $new_job
| 51> %base "2-22_DFT_B"
| 52> ! wB97X-D3 def2-TZVP TIGHTSCF CHELPG PMODEL
| 53>
| 54> %scf
| 55> MaxIter 1000
| 56> end
| 57>
| 58> * xyz 0 1
| 59>   C                    : 3.461109             3.222378             4.105244
| 60>   O                    : 3.157580             2.071432             3.453058
| 61>   H                    : 2.370845             1.638740             3.819682
| 62>   H                    : 3.982423             3.051816             5.032330
| 63>   H                    : 4.203252             3.873688             3.594400
| 64>   H                    : 2.649209             3.897304             4.300673
| 65>   C                      8.088401             1.207706             0.125048
| 66>   O                      6.880566             0.723944             0.725348
| 67>   H                      6.327736             0.306026             0.042389
| 68>   H                      7.969318             1.287649             -1.015837
| 69>   H                      8.502525             2.181685             0.544458
| 70>   H                      8.970427             0.581518             0.385500
| 71> *
| 72>
| 73>                          ****END OF INPUT****
 Total Charge           Charge          ....    0
 Multiplicity           Mult            ....    1
 Number of Electrons    NEL             ....   36
Dispersion correction           -0.000651038
FINAL SINGLE POINT ENERGY      -231.457476205642
Dispersion correction           -0.000243364
FINAL SINGLE POINT ENERGY      -115.730893307459

CARTESIAN COORDINATES (ANGSTROEM)
---------------------------------
  C      3.461109    3.222378    4.105244
  O      3.157580    2.071432    3.453058
  H      2.370845    1.638740    3.819682
  H      3.982423    3.051816    5.032330
  H      4.203252    3.873688    3.594400
  H      2.649209    3.897304    4.300673
  C      8.088401    1.207706    0.125048
  O      6.880566    0.723944    0.725348
  H      6.327736    0.306026    0.042389
  H      7.969318    1.287649   -1.015837
  H      8.502525    2.181685    0.544458
  H      8.970427    0.581518    0.385500

 Multiplicity           Mult            ....    1
 Number of Electrons    NEL             ....   18
 Basis Dimension        Dim             ....  172

ORBITAL ENERGIES
----------------

  NO   OCC          E(Eh)            E(eV)
   0   2.0000     -19.234949      -523.4096
   1   2.0000     -10.328478      -281.0522
   2   2.0000      -1.129401       -30.7326
   3   2.0000      -0.789178       -21.4746
   4   2.0000      -0.605090       -16.4653
   5   2.0000      -0.539225       -14.6731
   6   2.0000      -0.517880       -14.0922
   7   2.0000      -0.431641       -11.7456
   8   2.0000      -0.370370       -10.0783
   9   0.0000       0.092569         2.5189
  10   0.0000       0.109997         2.9932
  11   0.0000       0.144665         3.9365
  12   0.0000       0.168459         4.5840
  13   0.0000       0.193430         5.2635

MULLIKEN ATOMIC CHARGES
-----------------------
   0 C :   -0.000152
   1 O :    0.000018
   2 H :    0.000004
   3 H :    0.000014
   4 H :   -0.000033
   5 H :   -0.000004
   6 C :   -0.179364
   7 O :   -0.471635
   8 H :    0.322199
   9 H :    0.107166
  10 H :    0.111912
  11 H :    0.109874
Sum of atomic charges:   -0.0000000

LOEWDIN ATOMIC CHARGES
----------------------
   0 C :   -0.000056
   1 O :   -0.000025
   2 H :   -0.000001
   3 H :   -0.000000
   4 H :   -0.000017
   5 H :   -0.000002
   6 C :   -0.394817
   7 O :   -0.097331
   8 H :    0.177511
   9 H :    0.106244
  10 H :    0.110004
  11 H :    0.098491

  Mayer bond orders larger than 0.1
B(  6-C ,  7-O ) :   1.0112 B(  6-C ,  9-H ) :   0.9806 B(  6-C , 10-H ) :   0.9713
B(  6-C , 11-H ) :   0.9718 B(  7-O ,  8-H ) :   0.8938

Dispersion correction           -0.000284983
FINAL SINGLE POINT ENERGY      -115.727262859320

DIPOLE MOMENT
-------------
                                X             Y             Z
Electronic contribution:     -1.64680      -0.59043       0.89792
Nuclear contribution   :      1.77592       0.51441      -1.56601
                        -----------------------------------------
Total Dipole Moment    :      0.12912      -0.07602      -0.66809
                        -----------------------------------------
Magnitude (a.u.)       :      0.68469
Magnitude (Debye)      :      1.74034

Rotational constants in cm-1:     4.173905     0.801094     0.758975
Rotational constants in MHz : 125130.535735 24016.208247 22753.493453

                             ****ORCA TERMINATED NORMALLY****
TOTAL RUN TIME: 0 days 0 hours 5 minutes 40 seconds 364 msec
