                         Program Version 4.1.2  - RELEASE  -
|  1> #Run DFT-D3 single point of the dimer
|  2> ! wB97X-D3 def2-TZVP TIGHTSCF CHELPG PMODEL PAL8
|  3>
|  4> %base "8-37_DFT_AB"
|  5>
|  6> %scf
|  7> MaxIter 1000
|  8> end
|  9>
| 10> * xyz 0 1
| 11>   C                      -5.732268            -10.125279           -1.351968
| 12>   O                      -6.836174            -9.413016            -0.708576
| 13>   H                      -7.613012            -9.982425            -0.455737
| 14>   H                      -4.905482            -9.401689            -1.548393
| 15>   H                      -5.473831            -11.022509           -0.746062
| 16>   H                      -6.049753            -10.514197           -2.342592
| 17>   C                      -8.672339            -9.634608            2.156683
| 18>   O                      -9.971335            -9.241413            1.851202
| 19>   H                      -9.983889            -8.358073            1.480838
| 20>   H                      -8.841103            -10.336527           3.011248
| 21>   H                      -8.160852            -10.192829           1.358109
| 22>   H                      -8.033910            -8.807568            2.415028
| 23> *
| 24>
| 25> #Run DFT-D3 single point of the molecule with dimer basis set
| 26> $new_job
| 27> %base "8-37_DFT_A"
| 28> ! wB97X-D3 def2-TZVP TIGHTSCF CHELPG PMODEL
| 29>
| 30> %scf
| 31> MaxIter 1000
| 32> end
| 33>
| 34> * xyz 0 1
| 35>   C                      -5.732268            -10.125279           -1.351968
| 36>   O                      -6.836174            -9.413016            -0.708576
| 37>   H                      -7.613012            -9.982425            -0.455737
| 38>   H                      -4.905482            -9.401689            -1.548393
| 39>   H                      -5.473831            -11.022509           -0.746062
| 40>   H                      -6.049753            -10.514197           -2.342592
| 41>   C                    : -8.672339            -9.634608            2.156683
| 42>   O                    : -9.971335            -9.241413            1.851202
| 43>   H                    : -9.983889            -8.358073            1.480838
| 44>   H                    : -8.841103            -10.336527           3.011248
| 45>   H                    : -8.160852            -10.192829           1.358109
| 46>   H                    : -8.033910            -8.807568            2.415028
| 47> *
| 48>
| 49> #Run DFT-D3 single point of the particle with dimer basis set
| 50> $new_job
| 51> %base "8-37_DFT_B"
| 52> ! wB97X-D3 def2-TZVP TIGHTSCF CHELPG PMODEL
| 53>
| 54> %scf
| 55> MaxIter 1000
| 56> end
| 57>
| 58> * xyz 0 1
| 59>   C                    : -5.732268            -10.125279           -1.351968
| 60>   O                    : -6.836174            -9.413016            -0.708576
| 61>   H                    : -7.613012            -9.982425            -0.455737
| 62>   H                    : -4.905482            -9.401689            -1.548393
| 63>   H                    : -5.473831            -11.022509           -0.746062
| 64>   H                    : -6.049753            -10.514197           -2.342592
| 65>   C                      -8.672339            -9.634608            2.156683
| 66>   O                      -9.971335            -9.241413            1.851202
| 67>   H                      -9.983889            -8.358073            1.480838
| 68>   H                      -8.841103            -10.336527           3.011248
| 69>   H                      -8.160852            -10.192829           1.358109
| 70>   H                      -8.033910            -8.807568            2.415028
| 71> *
| 72>
| 73>                          ****END OF INPUT****
 Total Charge           Charge          ....    0
 Multiplicity           Mult            ....    1
 Number of Electrons    NEL             ....   36
Dispersion correction           -0.001578277
FINAL SINGLE POINT ENERGY      -231.465635443677
Dispersion correction           -0.000279408
FINAL SINGLE POINT ENERGY      -115.731034392602

CARTESIAN COORDINATES (ANGSTROEM)
---------------------------------
  C     -5.732268  -10.125279   -1.351968
  O     -6.836174   -9.413016   -0.708576
  H     -7.613012   -9.982425   -0.455737
  H     -4.905482   -9.401689   -1.548393
  H     -5.473831  -11.022509   -0.746062
  H     -6.049753  -10.514197   -2.342592
  C     -8.672339   -9.634608    2.156683
  O     -9.971335   -9.241413    1.851202
  H     -9.983889   -8.358073    1.480838
  H     -8.841103  -10.336527    3.011248
  H     -8.160852  -10.192829    1.358109
  H     -8.033910   -8.807568    2.415028

 Multiplicity           Mult            ....    1
 Number of Electrons    NEL             ....   18
 Basis Dimension        Dim             ....  172

ORBITAL ENERGIES
----------------

  NO   OCC          E(Eh)            E(eV)
   0   2.0000     -19.228474      -523.2334
   1   2.0000     -10.311259      -280.5836
   2   2.0000      -1.142139       -31.0792
   3   2.0000      -0.794174       -21.6106
   4   2.0000      -0.620686       -16.8897
   5   2.0000      -0.539928       -14.6922
   6   2.0000      -0.524631       -14.2759
   7   2.0000      -0.433041       -11.7837
   8   2.0000      -0.370181       -10.0731
   9   0.0000       0.085145         2.3169
  10   0.0000       0.115742         3.1495
  11   0.0000       0.155696         4.2367
  12   0.0000       0.178811         4.8657
  13   0.0000       0.188585         5.1317

MULLIKEN ATOMIC CHARGES
-----------------------
   0 C :   -0.001800
   1 O :   -0.001400
   2 H :    0.006347
   3 H :   -0.000029
   4 H :    0.000187
   5 H :    0.000067
   6 C :   -0.160464
   7 O :   -0.469135
   8 H :    0.313035
   9 H :    0.119105
  10 H :    0.089709
  11 H :    0.104378
Sum of atomic charges:   -0.0000000

LOEWDIN ATOMIC CHARGES
----------------------
   0 C :   -0.000685
   1 O :   -0.003902
   2 H :   -0.012328
   3 H :   -0.000012
   4 H :   -0.000143
   5 H :   -0.000004
   6 C :   -0.397966
   7 O :   -0.058697
   8 H :    0.166194
   9 H :    0.114913
  10 H :    0.100487
  11 H :    0.092145

  Mayer bond orders larger than 0.1
B(  6-C ,  7-O ) :   1.0098 B(  6-C ,  9-H ) :   0.9823 B(  6-C , 10-H ) :   0.9663
B(  6-C , 11-H ) :   0.9805 B(  7-O ,  8-H ) :   0.8998

Dispersion correction           -0.000242181
FINAL SINGLE POINT ENERGY      -115.733924660778

DIPOLE MOMENT
-------------
                                X             Y             Z
Electronic contribution:     -1.66810       0.49068      -0.39132
Nuclear contribution   :      2.15360      -0.04252       0.27383
                        -----------------------------------------
Total Dipole Moment    :      0.48550       0.44815      -0.11750
                        -----------------------------------------
Magnitude (a.u.)       :      0.67109
Magnitude (Debye)      :      1.70577

Rotational constants in cm-1:     4.275930     0.857034     0.820234
Rotational constants in MHz : 128189.147535 25693.220667 24590.002038

                             ****ORCA TERMINATED NORMALLY****
TOTAL RUN TIME: 0 days 0 hours 0 minutes 45 seconds 343 msec
