                         Program Version 4.1.2  - RELEASE  -
|  1> #Run DFT-D3 single point of the dimer
|  2> ! wB97X-D3 def2-TZVP TIGHTSCF CHELPG PMODEL PAL8
|  3>
|  4> %base "2-12_DFT_AB"
|  5>
|  6> %scf
|  7> MaxIter 1000
|  8> end
|  9>
| 10> * xyz 0 1
| 11>   C                      3.632446             -6.994954            3.184119
| 12>   O                      4.407674             -7.329784            1.949356
| 13>   H                      4.084722             -6.757850            1.277197
| 14>   H                      3.654814             -7.907382            3.783212
| 15>   H                      4.085916             -6.202538            3.691906
| 16>   H                      2.536765             -6.837212            2.963092
| 17>   C                      1.949965             -4.019189            3.124493
| 18>   O                      1.630126             -4.411812            4.465837
| 19>   H                      2.438127             -4.855578            4.705124
| 20>   H                      1.123352             -3.474775            2.600783
| 21>   H                      2.786890             -3.248862            3.120486
| 22>   H                      2.187356             -4.831305            2.493141
| 23> *
| 24>
| 25> #Run DFT-D3 single point of the molecule with dimer basis set
| 26> $new_job
| 27> %base "2-12_DFT_A"
| 28> ! wB97X-D3 def2-TZVP TIGHTSCF CHELPG PMODEL
| 29>
| 30> %scf
| 31> MaxIter 1000
| 32> end
| 33>
| 34> * xyz 0 1
| 35>   C                      3.632446             -6.994954            3.184119
| 36>   O                      4.407674             -7.329784            1.949356
| 37>   H                      4.084722             -6.757850            1.277197
| 38>   H                      3.654814             -7.907382            3.783212
| 39>   H                      4.085916             -6.202538            3.691906
| 40>   H                      2.536765             -6.837212            2.963092
| 41>   C                    : 1.949965             -4.019189            3.124493
| 42>   O                    : 1.630126             -4.411812            4.465837
| 43>   H                    : 2.438127             -4.855578            4.705124
| 44>   H                    : 1.123352             -3.474775            2.600783
| 45>   H                    : 2.786890             -3.248862            3.120486
| 46>   H                    : 2.187356             -4.831305            2.493141
| 47> *
| 48>
| 49> #Run DFT-D3 single point of the particle with dimer basis set
| 50> $new_job
| 51> %base "2-12_DFT_B"
| 52> ! wB97X-D3 def2-TZVP TIGHTSCF CHELPG PMODEL
| 53>
| 54> %scf
| 55> MaxIter 1000
| 56> end
| 57>
| 58> * xyz 0 1
| 59>   C                    : 3.632446             -6.994954            3.184119
| 60>   O                    : 4.407674             -7.329784            1.949356
| 61>   H                    : 4.084722             -6.757850            1.277197
| 62>   H                    : 3.654814             -7.907382            3.783212
| 63>   H                    : 4.085916             -6.202538            3.691906
| 64>   H                    : 2.536765             -6.837212            2.963092
| 65>   C                      1.949965             -4.019189            3.124493
| 66>   O                      1.630126             -4.411812            4.465837
| 67>   H                      2.438127             -4.855578            4.705124
| 68>   H                      1.123352             -3.474775            2.600783
| 69>   H                      2.786890             -3.248862            3.120486
| 70>   H                      2.187356             -4.831305            2.493141
| 71> *
| 72>
| 73>                          ****END OF INPUT****
 Total Charge           Charge          ....    0
 Multiplicity           Mult            ....    1
 Number of Electrons    NEL             ....   36
Dispersion correction           -0.002140661
FINAL SINGLE POINT ENERGY      -231.461193668166
Dispersion correction           -0.000266601
FINAL SINGLE POINT ENERGY      -115.730431936455

CARTESIAN COORDINATES (ANGSTROEM)
---------------------------------
  C      3.632446   -6.994954    3.184119
  O      4.407674   -7.329784    1.949356
  H      4.084722   -6.757850    1.277197
  H      3.654814   -7.907382    3.783212
  H      4.085916   -6.202538    3.691906
  H      2.536765   -6.837212    2.963092
  C      1.949965   -4.019189    3.124493
  O      1.630126   -4.411812    4.465837
  H      2.438127   -4.855578    4.705124
  H      1.123352   -3.474775    2.600783
  H      2.786890   -3.248862    3.120486
  H      2.187356   -4.831305    2.493141

 Multiplicity           Mult            ....    1
 Number of Electrons    NEL             ....   18
 Basis Dimension        Dim             ....  172

ORBITAL ENERGIES
----------------

  NO   OCC          E(Eh)            E(eV)
   0   2.0000     -19.235821      -523.4333
   1   2.0000     -10.318599      -280.7834
   2   2.0000      -1.139329       -31.0027
   3   2.0000      -0.793643       -21.5961
   4   2.0000      -0.606773       -16.5111
   5   2.0000      -0.544071       -14.8049
   6   2.0000      -0.524286       -14.2665
   7   2.0000      -0.438980       -11.9452
   8   2.0000      -0.378491       -10.2993
   9   0.0000       0.075125         2.0442
  10   0.0000       0.130333         3.5466
  11   0.0000       0.146139         3.9766
  12   0.0000       0.178642         4.8611
  13   0.0000       0.183224         4.9858

MULLIKEN ATOMIC CHARGES
-----------------------
   0 C :   -0.004062
   1 O :    0.000047
   2 H :   -0.000044
   3 H :    0.000211
   4 H :   -0.001038
   5 H :    0.002350
   6 C :   -0.200295
   7 O :   -0.454196
   8 H :    0.314957
   9 H :    0.123610
  10 H :    0.106161
  11 H :    0.112297
Sum of atomic charges:    0.0000000

LOEWDIN ATOMIC CHARGES
----------------------
   0 C :   -0.015550
   1 O :   -0.000103
   2 H :   -0.000595
   3 H :   -0.000082
   4 H :   -0.003063
   5 H :   -0.006409
   6 C :   -0.375269
   7 O :   -0.076138
   8 H :    0.168006
   9 H :    0.113575
  10 H :    0.103656
  11 H :    0.091973

  Mayer bond orders larger than 0.1
B(  6-C ,  7-O ) :   1.0039 B(  6-C ,  9-H ) :   0.9741 B(  6-C , 10-H ) :   0.9841
B(  6-C , 11-H ) :   0.9688 B(  7-O ,  8-H ) :   0.9063

Dispersion correction           -0.000240474
FINAL SINGLE POINT ENERGY      -115.731463236353

DIPOLE MOMENT
-------------
                                X             Y             Z
Electronic contribution:     -0.59893      -0.58559       1.77031
Nuclear contribution   :      1.20009       0.45921      -2.15791
                        -----------------------------------------
Total Dipole Moment    :      0.60116      -0.12639      -0.38760
                        -----------------------------------------
Magnitude (a.u.)       :      0.72636
Magnitude (Debye)      :      1.84626

Rotational constants in cm-1:     4.270020     0.809250     0.784659
Rotational constants in MHz : 128011.991739 24260.695097 23523.470819

                             ****ORCA TERMINATED NORMALLY****
TOTAL RUN TIME: 0 days 0 hours 6 minutes 15 seconds 792 msec
