                         Program Version 4.1.2  - RELEASE  -
|  1> #Run DFT-D3 single point of the dimer
|  2> ! wB97X-D3 def2-TZVP TIGHTSCF CHELPG PMODEL PAL8
|  3>
|  4> %base "19-186_DFT_AB"
|  5>
|  6> %scf
|  7> MaxIter 1000
|  8> end
|  9>
| 10> * xyz 0 1
| 11>   C                      -1.953081            0.452528             -0.283085
| 12>   O                      -2.417833            1.621188             0.379749
| 13>   H                      -2.843032            1.413224             1.202916
| 14>   H                      -2.778291            -0.140561            -0.668962
| 15>   H                      -1.331316            0.778315             -1.150622
| 16>   H                      -1.219793            -0.095008            0.314135
| 17>   C                      -4.588792            3.138124             -1.636857
| 18>   O                      -3.225731            3.052331             -1.798176
| 19>   H                      -2.739190            2.657665             -1.073676
| 20>   H                      -4.763914            3.379079             -0.588357
| 21>   H                      -4.966611            3.934520             -2.305763
| 22>   H                      -5.112813            2.244717             -1.828312
| 23> *
| 24>
| 25> #Run DFT-D3 single point of the molecule with dimer basis set
| 26> $new_job
| 27> %base "19-186_DFT_A"
| 28> ! wB97X-D3 def2-TZVP TIGHTSCF CHELPG PMODEL
| 29>
| 30> %scf
| 31> MaxIter 1000
| 32> end
| 33>
| 34> * xyz 0 1
| 35>   C                      -1.953081            0.452528             -0.283085
| 36>   O                      -2.417833            1.621188             0.379749
| 37>   H                      -2.843032            1.413224             1.202916
| 38>   H                      -2.778291            -0.140561            -0.668962
| 39>   H                      -1.331316            0.778315             -1.150622
| 40>   H                      -1.219793            -0.095008            0.314135
| 41>   C                    : -4.588792            3.138124             -1.636857
| 42>   O                    : -3.225731            3.052331             -1.798176
| 43>   H                    : -2.739190            2.657665             -1.073676
| 44>   H                    : -4.763914            3.379079             -0.588357
| 45>   H                    : -4.966611            3.934520             -2.305763
| 46>   H                    : -5.112813            2.244717             -1.828312
| 47> *
| 48>
| 49> #Run DFT-D3 single point of the particle with dimer basis set
| 50> $new_job
| 51> %base "19-186_DFT_B"
| 52> ! wB97X-D3 def2-TZVP TIGHTSCF CHELPG PMODEL
| 53>
| 54> %scf
| 55> MaxIter 1000
| 56> end
| 57>
| 58> * xyz 0 1
| 59>   C                    : -1.953081            0.452528             -0.283085
| 60>   O                    : -2.417833            1.621188             0.379749
| 61>   H                    : -2.843032            1.413224             1.202916
| 62>   H                    : -2.778291            -0.140561            -0.668962
| 63>   H                    : -1.331316            0.778315             -1.150622
| 64>   H                    : -1.219793            -0.095008            0.314135
| 65>   C                      -4.588792            3.138124             -1.636857
| 66>   O                      -3.225731            3.052331             -1.798176
| 67>   H                      -2.739190            2.657665             -1.073676
| 68>   H                      -4.763914            3.379079             -0.588357
| 69>   H                      -4.966611            3.934520             -2.305763
| 70>   H                      -5.112813            2.244717             -1.828312
| 71> *
| 72>
| 73>                          ****END OF INPUT****
 Total Charge           Charge          ....    0
 Multiplicity           Mult            ....    1
 Number of Electrons    NEL             ....   36
Dispersion correction           -0.002104103
FINAL SINGLE POINT ENERGY      -231.474894880641
Dispersion correction           -0.000255279
FINAL SINGLE POINT ENERGY      -115.735525045493

CARTESIAN COORDINATES (ANGSTROEM)
---------------------------------
  C     -1.953081    0.452528   -0.283085
  O     -2.417833    1.621188    0.379749
  H     -2.843032    1.413224    1.202916
  H     -2.778291   -0.140561   -0.668962
  H     -1.331316    0.778315   -1.150622
  H     -1.219793   -0.095008    0.314135
  C     -4.588792    3.138124   -1.636857
  O     -3.225731    3.052331   -1.798176
  H     -2.739190    2.657665   -1.073676
  H     -4.763914    3.379079   -0.588357
  H     -4.966611    3.934520   -2.305763
  H     -5.112813    2.244717   -1.828312

 Multiplicity           Mult            ....    1
 Number of Electrons    NEL             ....   18
 Basis Dimension        Dim             ....  172

ORBITAL ENERGIES
----------------

  NO   OCC          E(Eh)            E(eV)
   0   2.0000     -19.225374      -523.1490
   1   2.0000     -10.306626      -280.4575
   2   2.0000      -1.143546       -31.1175
   3   2.0000      -0.799642       -21.7594
   4   2.0000      -0.621659       -16.9162
   5   2.0000      -0.547867       -14.9082
   6   2.0000      -0.535327       -14.5670
   7   2.0000      -0.421379       -11.4663
   8   2.0000      -0.369993       -10.0680
   9   0.0000       0.070285         1.9125
  10   0.0000       0.136560         3.7160
  11   0.0000       0.154639         4.2079
  12   0.0000       0.163656         4.4533
  13   0.0000       0.192913         5.2494

MULLIKEN ATOMIC CHARGES
-----------------------
   0 C :   -0.010770
   1 O :   -0.006689
   2 H :   -0.000230
   3 H :    0.001468
   4 H :   -0.001134
   5 H :   -0.000681
   6 C :   -0.142203
   7 O :   -0.479402
   8 H :    0.327633
   9 H :    0.093081
  10 H :    0.117725
  11 H :    0.101202
Sum of atomic charges:    0.0000000

LOEWDIN ATOMIC CHARGES
----------------------
   0 C :   -0.014080
   1 O :   -0.026825
   2 H :   -0.001277
   3 H :   -0.000710
   4 H :   -0.002794
   5 H :   -0.000285
   6 C :   -0.400748
   7 O :   -0.030065
   8 H :    0.183261
   9 H :    0.095696
  10 H :    0.113209
  11 H :    0.084620

  Mayer bond orders larger than 0.1
B(  6-C ,  7-O ) :   0.9930 B(  6-C ,  9-H ) :   0.9950 B(  6-C , 10-H ) :   0.9750
B(  6-C , 11-H ) :   0.9685 B(  7-O ,  8-H ) :   0.8915

Dispersion correction           -0.000228007
FINAL SINGLE POINT ENERGY      -115.732614893423

DIPOLE MOMENT
-------------
                                X             Y             Z
Electronic contribution:      1.68678      -0.10262      -0.37857
Nuclear contribution   :     -1.91068      -0.11570       0.91691
                        -----------------------------------------
Total Dipole Moment    :     -0.22390      -0.21833       0.53833
                        -----------------------------------------
Magnitude (a.u.)       :      0.62258
Magnitude (Debye)      :      1.58246

Rotational constants in cm-1:     4.436335     0.870912     0.833251
Rotational constants in MHz : 132997.968753 26109.297183 24980.232739

                             ****ORCA TERMINATED NORMALLY****
TOTAL RUN TIME: 0 days 0 hours 1 minutes 48 seconds 981 msec
