                         Program Version 4.1.2  - RELEASE  -
|  1> #Run DFT-D3 single point of the dimer
|  2> ! wB97X-D3 def2-TZVP TIGHTSCF CHELPG PMODEL PAL8
|  3>
|  4> %base "9-21_DFT_AB"
|  5>
|  6> %scf
|  7> MaxIter 1000
|  8> end
|  9>
| 10> * xyz 0 1
| 11>   C                      1.487376             -0.428665            4.266690
| 12>   O                      2.630056             -0.194025            5.057445
| 13>   H                      2.762876             -0.876611            5.745413
| 14>   H                      1.308714             0.285588             3.519412
| 15>   H                      1.633911             -1.323911            3.744331
| 16>   H                      0.553844             -0.624710            4.835763
| 17>   C                      -2.497234            1.424267             4.891622
| 18>   O                      -2.654171            0.374319             3.913851
| 19>   H                      -3.592682            0.040974             4.025586
| 20>   H                      -1.416648            1.782374             5.033693
| 21>   H                      -3.003030            2.364827             4.689943
| 22>   H                      -2.756721            1.046714             5.876505
| 23> *
| 24>
| 25> #Run DFT-D3 single point of the molecule with dimer basis set
| 26> $new_job
| 27> %base "9-21_DFT_A"
| 28> ! wB97X-D3 def2-TZVP TIGHTSCF CHELPG PMODEL
| 29>
| 30> %scf
| 31> MaxIter 1000
| 32> end
| 33>
| 34> * xyz 0 1
| 35>   C                      1.487376             -0.428665            4.266690
| 36>   O                      2.630056             -0.194025            5.057445
| 37>   H                      2.762876             -0.876611            5.745413
| 38>   H                      1.308714             0.285588             3.519412
| 39>   H                      1.633911             -1.323911            3.744331
| 40>   H                      0.553844             -0.624710            4.835763
| 41>   C                    : -2.497234            1.424267             4.891622
| 42>   O                    : -2.654171            0.374319             3.913851
| 43>   H                    : -3.592682            0.040974             4.025586
| 44>   H                    : -1.416648            1.782374             5.033693
| 45>   H                    : -3.003030            2.364827             4.689943
| 46>   H                    : -2.756721            1.046714             5.876505
| 47> *
| 48>
| 49> #Run DFT-D3 single point of the particle with dimer basis set
| 50> $new_job
| 51> %base "9-21_DFT_B"
| 52> ! wB97X-D3 def2-TZVP TIGHTSCF CHELPG PMODEL
| 53>
| 54> %scf
| 55> MaxIter 1000
| 56> end
| 57>
| 58> * xyz 0 1
| 59>   C                    : 1.487376             -0.428665            4.266690
| 60>   O                    : 2.630056             -0.194025            5.057445
| 61>   H                    : 2.762876             -0.876611            5.745413
| 62>   H                    : 1.308714             0.285588             3.519412
| 63>   H                    : 1.633911             -1.323911            3.744331
| 64>   H                    : 0.553844             -0.624710            4.835763
| 65>   C                      -2.497234            1.424267             4.891622
| 66>   O                      -2.654171            0.374319             3.913851
| 67>   H                      -3.592682            0.040974             4.025586
| 68>   H                      -1.416648            1.782374             5.033693
| 69>   H                      -3.003030            2.364827             4.689943
| 70>   H                      -2.756721            1.046714             5.876505
| 71> *
| 72>
| 73>                          ****END OF INPUT****
 Total Charge           Charge          ....    0
 Multiplicity           Mult            ....    1
 Number of Electrons    NEL             ....   36
Dispersion correction           -0.001219233
FINAL SINGLE POINT ENERGY      -231.460212542105
Dispersion correction           -0.000243512
FINAL SINGLE POINT ENERGY      -115.729517817868

CARTESIAN COORDINATES (ANGSTROEM)
---------------------------------
  C      1.487376   -0.428665    4.266690
  O      2.630056   -0.194025    5.057445
  H      2.762876   -0.876611    5.745413
  H      1.308714    0.285588    3.519412
  H      1.633911   -1.323911    3.744331
  H      0.553844   -0.624710    4.835763
  C     -2.497234    1.424267    4.891622
  O     -2.654171    0.374319    3.913851
  H     -3.592682    0.040974    4.025586
  H     -1.416648    1.782374    5.033693
  H     -3.003030    2.364827    4.689943
  H     -2.756721    1.046714    5.876505

 Multiplicity           Mult            ....    1
 Number of Electrons    NEL             ....   18
 Basis Dimension        Dim             ....  172

ORBITAL ENERGIES
----------------

  NO   OCC          E(Eh)            E(eV)
   0   2.0000     -19.238380      -523.5029
   1   2.0000     -10.319383      -280.8047
   2   2.0000      -1.122770       -30.5521
   3   2.0000      -0.791967       -21.5505
   4   2.0000      -0.599611       -16.3162
   5   2.0000      -0.543808       -14.7978
   6   2.0000      -0.517964       -14.0945
   7   2.0000      -0.428663       -11.6645
   8   2.0000      -0.378011       -10.2862
   9   0.0000       0.091325         2.4851
  10   0.0000       0.113701         3.0940
  11   0.0000       0.144699         3.9374
  12   0.0000       0.168995         4.5986
  13   0.0000       0.192761         5.2453

MULLIKEN ATOMIC CHARGES
-----------------------
   0 C :   -0.000075
   1 O :    0.000034
   2 H :    0.000007
   3 H :   -0.000157
   4 H :   -0.000048
   5 H :   -0.000669
   6 C :   -0.181469
   7 O :   -0.471502
   8 H :    0.318372
   9 H :    0.116280
  10 H :    0.112063
  11 H :    0.107163
Sum of atomic charges:    0.0000000

LOEWDIN ATOMIC CHARGES
----------------------
   0 C :   -0.001071
   1 O :   -0.000010
   2 H :   -0.000001
   3 H :   -0.000146
   4 H :   -0.000010
   5 H :   -0.000912
   6 C :   -0.383284
   7 O :   -0.112772
   8 H :    0.193811
   9 H :    0.117968
  10 H :    0.092854
  11 H :    0.093572

  Mayer bond orders larger than 0.1
B(  6-C ,  7-O ) :   0.9973 B(  6-C ,  9-H ) :   0.9731 B(  6-C , 10-H ) :   0.9673
B(  6-C , 11-H ) :   0.9834 B(  7-O ,  8-H ) :   0.8926

Dispersion correction           -0.000272295
FINAL SINGLE POINT ENERGY      -115.729274744857

DIPOLE MOMENT
-------------
                                X             Y             Z
Electronic contribution:     -0.16490      -1.35848      -1.39983
Nuclear contribution   :     -0.34655       1.58077       1.87344
                        -----------------------------------------
Total Dipole Moment    :     -0.51145       0.22228       0.47361
                        -----------------------------------------
Magnitude (a.u.)       :      0.73164
Magnitude (Debye)      :      1.85969

Rotational constants in cm-1:     4.281421     0.788851     0.762511
Rotational constants in MHz : 128353.760053 23649.155533 22859.513677

                             ****ORCA TERMINATED NORMALLY****
TOTAL RUN TIME: 0 days 0 hours 0 minutes 40 seconds 372 msec
