                         Program Version 4.1.2  - RELEASE  -
|  1> #Run DFT-D3 single point of the dimer
|  2> ! wB97X-D3 def2-TZVP TIGHTSCF CHELPG PMODEL PAL8
|  3>
|  4> %base "13-163_DFT_AB"
|  5>
|  6> %scf
|  7> MaxIter 1000
|  8> end
|  9>
| 10> * xyz 0 1
| 11>   C                      6.086307             -8.339000            -1.950974
| 12>   O                      7.119211             -9.239033            -2.344616
| 13>   H                      7.924299             -8.996173            -1.920066
| 14>   H                      5.204355             -8.539009            -2.582275
| 15>   H                      5.796177             -8.560167            -0.931467
| 16>   H                      6.260960             -7.216122            -2.022520
| 17>   C                      10.504551            -11.180506           -0.179575
| 18>   O                      9.425508             -11.131380           -1.103996
| 19>   H                      8.716325             -10.826452           -0.523253
| 20>   H                      10.316046            -11.977736           0.589473
| 21>   H                      11.376198            -11.512109           -0.812800
| 22>   H                      10.759810            -10.249666           0.345818
| 23> *
| 24>
| 25> #Run DFT-D3 single point of the molecule with dimer basis set
| 26> $new_job
| 27> %base "13-163_DFT_A"
| 28> ! wB97X-D3 def2-TZVP TIGHTSCF CHELPG PMODEL
| 29>
| 30> %scf
| 31> MaxIter 1000
| 32> end
| 33>
| 34> * xyz 0 1
| 35>   C                      6.086307             -8.339000            -1.950974
| 36>   O                      7.119211             -9.239033            -2.344616
| 37>   H                      7.924299             -8.996173            -1.920066
| 38>   H                      5.204355             -8.539009            -2.582275
| 39>   H                      5.796177             -8.560167            -0.931467
| 40>   H                      6.260960             -7.216122            -2.022520
| 41>   C                    : 10.504551            -11.180506           -0.179575
| 42>   O                    : 9.425508             -11.131380           -1.103996
| 43>   H                    : 8.716325             -10.826452           -0.523253
| 44>   H                    : 10.316046            -11.977736           0.589473
| 45>   H                    : 11.376198            -11.512109           -0.812800
| 46>   H                    : 10.759810            -10.249666           0.345818
| 47> *
| 48>
| 49> #Run DFT-D3 single point of the particle with dimer basis set
| 50> $new_job
| 51> %base "13-163_DFT_B"
| 52> ! wB97X-D3 def2-TZVP TIGHTSCF CHELPG PMODEL
| 53>
| 54> %scf
| 55> MaxIter 1000
| 56> end
| 57>
| 58> * xyz 0 1
| 59>   C                    : 6.086307             -8.339000            -1.950974
| 60>   O                    : 7.119211             -9.239033            -2.344616
| 61>   H                    : 7.924299             -8.996173            -1.920066
| 62>   H                    : 5.204355             -8.539009            -2.582275
| 63>   H                    : 5.796177             -8.560167            -0.931467
| 64>   H                    : 6.260960             -7.216122            -2.022520
| 65>   C                      10.504551            -11.180506           -0.179575
| 66>   O                      9.425508             -11.131380           -1.103996
| 67>   H                      8.716325             -10.826452           -0.523253
| 68>   H                      10.316046            -11.977736           0.589473
| 69>   H                      11.376198            -11.512109           -0.812800
| 70>   H                      10.759810            -10.249666           0.345818
| 71> *
| 72>
| 73>                          ****END OF INPUT****
 Total Charge           Charge          ....    0
 Multiplicity           Mult            ....    1
 Number of Electrons    NEL             ....   36
Dispersion correction           -0.001338693
FINAL SINGLE POINT ENERGY      -231.468033274896
Dispersion correction           -0.000269809
FINAL SINGLE POINT ENERGY      -115.734222614619

CARTESIAN COORDINATES (ANGSTROEM)
---------------------------------
  C      6.086307   -8.339000   -1.950974
  O      7.119211   -9.239033   -2.344616
  H      7.924299   -8.996173   -1.920066
  H      5.204355   -8.539009   -2.582275
  H      5.796177   -8.560167   -0.931467
  H      6.260960   -7.216122   -2.022520
  C     10.504551  -11.180506   -0.179575
  O      9.425508  -11.131380   -1.103996
  H      8.716325  -10.826452   -0.523253
  H     10.316046  -11.977736    0.589473
  H     11.376198  -11.512109   -0.812800
  H     10.759810  -10.249666    0.345818

 Multiplicity           Mult            ....    1
 Number of Electrons    NEL             ....   18
 Basis Dimension        Dim             ....  172

ORBITAL ENERGIES
----------------

  NO   OCC          E(Eh)            E(eV)
   0   2.0000     -19.236321      -523.4469
   1   2.0000     -10.320541      -280.8362
   2   2.0000      -1.140296       -31.0290
   3   2.0000      -0.786770       -21.4091
   4   2.0000      -0.611354       -16.6358
   5   2.0000      -0.539919       -14.6919
   6   2.0000      -0.516530       -14.0555
   7   2.0000      -0.443538       -12.0693
   8   2.0000      -0.376426       -10.2431
   9   0.0000       0.082617         2.2481
  10   0.0000       0.119438         3.2501
  11   0.0000       0.151526         4.1232
  12   0.0000       0.184207         5.0125
  13   0.0000       0.189038         5.1440

MULLIKEN ATOMIC CHARGES
-----------------------
   0 C :    0.001152
   1 O :    0.000672
   2 H :   -0.010005
   3 H :    0.000005
   4 H :   -0.000160
   5 H :   -0.000036
   6 C :   -0.187784
   7 O :   -0.447418
   8 H :    0.313367
   9 H :    0.102219
  10 H :    0.119749
  11 H :    0.108238
Sum of atomic charges:    0.0000000

LOEWDIN ATOMIC CHARGES
----------------------
   0 C :   -0.000243
   1 O :   -0.002451
   2 H :   -0.008813
   3 H :   -0.000004
   4 H :   -0.000047
   5 H :   -0.000001
   6 C :   -0.397562
   7 O :   -0.074547
   8 H :    0.175185
   9 H :    0.098406
  10 H :    0.116545
  11 H :    0.093530

  Mayer bond orders larger than 0.1
B(  6-C ,  7-O ) :   1.0051 B(  6-C ,  9-H ) :   0.9760 B(  6-C , 10-H ) :   0.9774
B(  6-C , 11-H ) :   0.9620 B(  7-O ,  8-H ) :   0.9018

Dispersion correction           -0.000235785
FINAL SINGLE POINT ENERGY      -115.733243799579

DIPOLE MOMENT
-------------
                                X             Y             Z
Electronic contribution:     -1.33441       0.12409      -1.28556
Nuclear contribution   :      1.31733       0.03623       1.98558
                        -----------------------------------------
Total Dipole Moment    :     -0.01708       0.16032       0.70003
                        -----------------------------------------
Magnitude (a.u.)       :      0.71835
Magnitude (Debye)      :      1.82591

Rotational constants in cm-1:     4.064203     0.832330     0.797556
Rotational constants in MHz : 121841.755361 24952.626218 23910.117024

                             ****ORCA TERMINATED NORMALLY****
TOTAL RUN TIME: 0 days 0 hours 1 minutes 8 seconds 861 msec
