                         Program Version 4.1.2  - RELEASE  -
|  1> #Run DFT-D3 single point of the dimer
|  2> ! wB97X-D3 def2-TZVP TIGHTSCF CHELPG PMODEL PAL8
|  3>
|  4> %base "20-47_DFT_AB"
|  5>
|  6> %scf
|  7> MaxIter 1000
|  8> end
|  9>
| 10> * xyz 0 1
| 11>   C                      10.369788            -1.022027            1.137112
| 12>   O                      9.385676             -0.662923            2.037067
| 13>   H                      8.915815             -1.406507            2.396030
| 14>   H                      9.951602             -1.529467            0.290434
| 15>   H                      10.979370            -0.132618            0.842871
| 16>   H                      10.919377            -1.856796            1.581003
| 17>   C                      10.465747            2.642601             -3.006390
| 18>   O                      11.365031            1.578863             -3.139401
| 19>   H                      12.139437            1.915457             -3.631726
| 20>   H                      9.537111             2.306168             -2.554527
| 21>   H                      10.851904            3.486465             -2.475135
| 22>   H                      10.167365            2.986200             -4.020478
| 23> *
| 24>
| 25> #Run DFT-D3 single point of the molecule with dimer basis set
| 26> $new_job
| 27> %base "20-47_DFT_A"
| 28> ! wB97X-D3 def2-TZVP TIGHTSCF CHELPG PMODEL
| 29>
| 30> %scf
| 31> MaxIter 1000
| 32> end
| 33>
| 34> * xyz 0 1
| 35>   C                      10.369788            -1.022027            1.137112
| 36>   O                      9.385676             -0.662923            2.037067
| 37>   H                      8.915815             -1.406507            2.396030
| 38>   H                      9.951602             -1.529467            0.290434
| 39>   H                      10.979370            -0.132618            0.842871
| 40>   H                      10.919377            -1.856796            1.581003
| 41>   C                    : 10.465747            2.642601             -3.006390
| 42>   O                    : 11.365031            1.578863             -3.139401
| 43>   H                    : 12.139437            1.915457             -3.631726
| 44>   H                    : 9.537111             2.306168             -2.554527
| 45>   H                    : 10.851904            3.486465             -2.475135
| 46>   H                    : 10.167365            2.986200             -4.020478
| 47> *
| 48>
| 49> #Run DFT-D3 single point of the particle with dimer basis set
| 50> $new_job
| 51> %base "20-47_DFT_B"
| 52> ! wB97X-D3 def2-TZVP TIGHTSCF CHELPG PMODEL
| 53>
| 54> %scf
| 55> MaxIter 1000
| 56> end
| 57>
| 58> * xyz 0 1
| 59>   C                    : 10.369788            -1.022027            1.137112
| 60>   O                    : 9.385676             -0.662923            2.037067
| 61>   H                    : 8.915815             -1.406507            2.396030
| 62>   H                    : 9.951602             -1.529467            0.290434
| 63>   H                    : 10.979370            -0.132618            0.842871
| 64>   H                    : 10.919377            -1.856796            1.581003
| 65>   C                      10.465747            2.642601             -3.006390
| 66>   O                      11.365031            1.578863             -3.139401
| 67>   H                      12.139437            1.915457             -3.631726
| 68>   H                      9.537111             2.306168             -2.554527
| 69>   H                      10.851904            3.486465             -2.475135
| 70>   H                      10.167365            2.986200             -4.020478
| 71> *
| 72>
| 73>                          ****END OF INPUT****
 Total Charge           Charge          ....    0
 Multiplicity           Mult            ....    1
 Number of Electrons    NEL             ....   36
Dispersion correction           -0.000635900
FINAL SINGLE POINT ENERGY      -231.465611286207
Dispersion correction           -0.000216196
FINAL SINGLE POINT ENERGY      -115.729795029548

CARTESIAN COORDINATES (ANGSTROEM)
---------------------------------
  C     10.369788   -1.022027    1.137112
  O      9.385676   -0.662923    2.037067
  H      8.915815   -1.406507    2.396030
  H      9.951602   -1.529467    0.290434
  H     10.979370   -0.132618    0.842871
  H     10.919377   -1.856796    1.581003
  C     10.465747    2.642601   -3.006390
  O     11.365031    1.578863   -3.139401
  H     12.139437    1.915457   -3.631726
  H      9.537111    2.306168   -2.554527
  H     10.851904    3.486465   -2.475135
  H     10.167365    2.986200   -4.020478

 Multiplicity           Mult            ....    1
 Number of Electrons    NEL             ....   18
 Basis Dimension        Dim             ....  172

ORBITAL ENERGIES
----------------

  NO   OCC          E(Eh)            E(eV)
   0   2.0000     -19.231596      -523.3183
   1   2.0000     -10.309635      -280.5394
   2   2.0000      -1.138002       -30.9666
   3   2.0000      -0.794207       -21.6115
   4   2.0000      -0.611908       -16.6509
   5   2.0000      -0.544288       -14.8108
   6   2.0000      -0.529606       -14.4113
   7   2.0000      -0.432913       -11.7802
   8   2.0000      -0.371788       -10.1169
   9   0.0000       0.092356         2.5131
  10   0.0000       0.113511         3.0888
  11   0.0000       0.155801         4.2396
  12   0.0000       0.170169         4.6305
  13   0.0000       0.194663         5.2970

MULLIKEN ATOMIC CHARGES
-----------------------
   0 C :    0.000173
   1 O :   -0.000002
   2 H :   -0.000000
   3 H :   -0.000046
   4 H :   -0.000523
   5 H :   -0.000020
   6 C :   -0.151351
   7 O :   -0.471177
   8 H :    0.316517
   9 H :    0.115771
  10 H :    0.101995
  11 H :    0.088662
Sum of atomic charges:   -0.0000000

LOEWDIN ATOMIC CHARGES
----------------------
   0 C :   -0.000073
   1 O :   -0.000003
   2 H :   -0.000000
   3 H :   -0.000009
   4 H :   -0.000181
   5 H :   -0.000000
   6 C :   -0.397041
   7 O :   -0.074604
   8 H :    0.181246
   9 H :    0.107026
  10 H :    0.087773
  11 H :    0.095867

  Mayer bond orders larger than 0.1
B(  6-C ,  7-O ) :   1.0010 B(  6-C ,  9-H ) :   0.9736 B(  6-C , 10-H ) :   0.9728
B(  6-C , 11-H ) :   0.9848 B(  7-O ,  8-H ) :   0.8954

Dispersion correction           -0.000228043
FINAL SINGLE POINT ENERGY      -115.735317034792

DIPOLE MOMENT
-------------
                                X             Y             Z
Electronic contribution:      1.12429      -1.46542       0.03552
Nuclear contribution   :     -0.99576       2.08687      -0.28970
                        -----------------------------------------
Total Dipole Moment    :      0.12853       0.62146      -0.25418
                        -----------------------------------------
Magnitude (a.u.)       :      0.68362
Magnitude (Debye)      :      1.73762

Rotational constants in cm-1:     4.311414     0.845512     0.814158
Rotational constants in MHz : 129252.934780 25347.797531 24407.840024

                             ****ORCA TERMINATED NORMALLY****
TOTAL RUN TIME: 0 days 0 hours 1 minutes 6 seconds 603 msec
