                         Program Version 4.1.2  - RELEASE  -
|  1> #Run DFT-D3 single point of the dimer
|  2> ! wB97X-D3 def2-TZVP TIGHTSCF CHELPG PMODEL PAL8
|  3>
|  4> %base "9-126_DFT_AB"
|  5>
|  6> %scf
|  7> MaxIter 1000
|  8> end
|  9>
| 10> * xyz 0 1
| 11>   C                      -1.356228            -0.340846            0.709262
| 12>   O                      -0.810618            -0.266674            -0.606625
| 13>   H                      -1.477171            -0.764683            -1.013376
| 14>   H                      -0.663269            0.163702             1.446102
| 15>   H                      -2.321533            0.255748             0.727861
| 16>   H                      -1.548935            -1.338380            1.075579
| 17>   C                      1.679776             -3.546201            0.676951
| 18>   O                      0.715683             -2.560960            0.566006
| 19>   H                      1.174141             -1.743596            0.382833
| 20>   H                      2.370658             -3.287889            1.424318
| 21>   H                      1.297961             -4.499157            0.996631
| 22>   H                      2.239425             -3.799190            -0.274607
| 23> *
| 24>
| 25> #Run DFT-D3 single point of the molecule with dimer basis set
| 26> $new_job
| 27> %base "9-126_DFT_A"
| 28> ! wB97X-D3 def2-TZVP TIGHTSCF CHELPG PMODEL
| 29>
| 30> %scf
| 31> MaxIter 1000
| 32> end
| 33>
| 34> * xyz 0 1
| 35>   C                      -1.356228            -0.340846            0.709262
| 36>   O                      -0.810618            -0.266674            -0.606625
| 37>   H                      -1.477171            -0.764683            -1.013376
| 38>   H                      -0.663269            0.163702             1.446102
| 39>   H                      -2.321533            0.255748             0.727861
| 40>   H                      -1.548935            -1.338380            1.075579
| 41>   C                    : 1.679776             -3.546201            0.676951
| 42>   O                    : 0.715683             -2.560960            0.566006
| 43>   H                    : 1.174141             -1.743596            0.382833
| 44>   H                    : 2.370658             -3.287889            1.424318
| 45>   H                    : 1.297961             -4.499157            0.996631
| 46>   H                    : 2.239425             -3.799190            -0.274607
| 47> *
| 48>
| 49> #Run DFT-D3 single point of the particle with dimer basis set
| 50> $new_job
| 51> %base "9-126_DFT_B"
| 52> ! wB97X-D3 def2-TZVP TIGHTSCF CHELPG PMODEL
| 53>
| 54> %scf
| 55> MaxIter 1000
| 56> end
| 57>
| 58> * xyz 0 1
| 59>   C                    : -1.356228            -0.340846            0.709262
| 60>   O                    : -0.810618            -0.266674            -0.606625
| 61>   H                    : -1.477171            -0.764683            -1.013376
| 62>   H                    : -0.663269            0.163702             1.446102
| 63>   H                    : -2.321533            0.255748             0.727861
| 64>   H                    : -1.548935            -1.338380            1.075579
| 65>   C                      1.679776             -3.546201            0.676951
| 66>   O                      0.715683             -2.560960            0.566006
| 67>   H                      1.174141             -1.743596            0.382833
| 68>   H                      2.370658             -3.287889            1.424318
| 69>   H                      1.297961             -4.499157            0.996631
| 70>   H                      2.239425             -3.799190            -0.274607
| 71> *
| 72>
| 73>                          ****END OF INPUT****
 Total Charge           Charge          ....    0
 Multiplicity           Mult            ....    1
 Number of Electrons    NEL             ....   36
Dispersion correction           -0.001815402
FINAL SINGLE POINT ENERGY      -231.465318535163
Dispersion correction           -0.000222809
FINAL SINGLE POINT ENERGY      -115.729300900815

CARTESIAN COORDINATES (ANGSTROEM)
---------------------------------
  C     -1.356228   -0.340846    0.709262
  O     -0.810618   -0.266674   -0.606625
  H     -1.477171   -0.764683   -1.013376
  H     -0.663269    0.163702    1.446102
  H     -2.321533    0.255748    0.727861
  H     -1.548935   -1.338380    1.075579
  C      1.679776   -3.546201    0.676951
  O      0.715683   -2.560960    0.566006
  H      1.174141   -1.743596    0.382833
  H      2.370658   -3.287889    1.424318
  H      1.297961   -4.499157    0.996631
  H      2.239425   -3.799190   -0.274607

 Multiplicity           Mult            ....    1
 Number of Electrons    NEL             ....   18
 Basis Dimension        Dim             ....  172

ORBITAL ENERGIES
----------------

  NO   OCC          E(Eh)            E(eV)
   0   2.0000     -19.233518      -523.3706
   1   2.0000     -10.307570      -280.4832
   2   2.0000      -1.149744       -31.2861
   3   2.0000      -0.799005       -21.7420
   4   2.0000      -0.618719       -16.8362
   5   2.0000      -0.547880       -14.9086
   6   2.0000      -0.534874       -14.5547
   7   2.0000      -0.430756       -11.7215
   8   2.0000      -0.375026       -10.2050
   9   0.0000       0.090535         2.4636
  10   0.0000       0.129519         3.5244
  11   0.0000       0.157241         4.2787
  12   0.0000       0.177146         4.8204
  13   0.0000       0.198554         5.4029

MULLIKEN ATOMIC CHARGES
-----------------------
   0 C :    0.003399
   1 O :   -0.001401
   2 H :   -0.001837
   3 H :   -0.001613
   4 H :   -0.000452
   5 H :   -0.007235
   6 C :   -0.173174
   7 O :   -0.448024
   8 H :    0.319795
   9 H :    0.105403
  10 H :    0.115356
  11 H :    0.089782
Sum of atomic charges:    0.0000000

LOEWDIN ATOMIC CHARGES
----------------------
   0 C :   -0.016135
   1 O :   -0.004223
   2 H :   -0.001436
   3 H :   -0.001221
   4 H :   -0.000117
   5 H :   -0.007452
   6 C :   -0.409315
   7 O :   -0.026691
   8 H :    0.175892
   9 H :    0.086580
  10 H :    0.104346
  11 H :    0.099773

  Mayer bond orders larger than 0.1
B(  6-C ,  7-O ) :   1.0070 B(  6-C ,  9-H ) :   0.9836 B(  6-C , 10-H ) :   0.9765
B(  6-C , 11-H ) :   0.9698 B(  7-O ,  8-H ) :   0.8944

Dispersion correction           -0.000231744
FINAL SINGLE POINT ENERGY      -115.732740193345

DIPOLE MOMENT
-------------
                                X             Y             Z
Electronic contribution:     -1.43810       1.26581      -0.09812
Nuclear contribution   :      2.09696      -1.13804       0.06065
                        -----------------------------------------
Total Dipole Moment    :      0.65886       0.12777      -0.03747
                        -----------------------------------------
Magnitude (a.u.)       :      0.67217
Magnitude (Debye)      :      1.70853

Rotational constants in cm-1:     4.482342     0.851573     0.827358
Rotational constants in MHz : 134377.226919 25529.505066 24803.575501

                             ****ORCA TERMINATED NORMALLY****
TOTAL RUN TIME: 0 days 0 hours 0 minutes 45 seconds 402 msec
