                         Program Version 4.1.2  - RELEASE  -
|  1> #Run DFT-D3 single point of the dimer
|  2> ! wB97X-D3 def2-TZVP TIGHTSCF CHELPG PMODEL PAL8
|  3>
|  4> %base "19-195_DFT_AB"
|  5>
|  6> %scf
|  7> MaxIter 1000
|  8> end
|  9>
| 10> * xyz 0 1
| 11>   C                      1.309229             -1.618359            3.048068
| 12>   O                      0.618711             -2.653348            3.660415
| 13>   H                      0.034684             -2.996127            2.985988
| 14>   H                      1.705704             -1.835364            2.022964
| 15>   H                      0.725643             -0.628895            2.983214
| 16>   H                      2.138539             -1.223666            3.657437
| 17>   C                      -1.979645            -4.182581            1.500222
| 18>   O                      -0.930025            -3.282066            1.405934
| 19>   H                      -0.292941            -3.641227            0.777251
| 20>   H                      -2.938253            -3.728186            1.734132
| 21>   H                      -2.098886            -4.838322            0.577501
| 22>   H                      -1.810998            -4.887910            2.328977
| 23> *
| 24>
| 25> #Run DFT-D3 single point of the molecule with dimer basis set
| 26> $new_job
| 27> %base "19-195_DFT_A"
| 28> ! wB97X-D3 def2-TZVP TIGHTSCF CHELPG PMODEL
| 29>
| 30> %scf
| 31> MaxIter 1000
| 32> end
| 33>
| 34> * xyz 0 1
| 35>   C                      1.309229             -1.618359            3.048068
| 36>   O                      0.618711             -2.653348            3.660415
| 37>   H                      0.034684             -2.996127            2.985988
| 38>   H                      1.705704             -1.835364            2.022964
| 39>   H                      0.725643             -0.628895            2.983214
| 40>   H                      2.138539             -1.223666            3.657437
| 41>   C                    : -1.979645            -4.182581            1.500222
| 42>   O                    : -0.930025            -3.282066            1.405934
| 43>   H                    : -0.292941            -3.641227            0.777251
| 44>   H                    : -2.938253            -3.728186            1.734132
| 45>   H                    : -2.098886            -4.838322            0.577501
| 46>   H                    : -1.810998            -4.887910            2.328977
| 47> *
| 48>
| 49> #Run DFT-D3 single point of the particle with dimer basis set
| 50> $new_job
| 51> %base "19-195_DFT_B"
| 52> ! wB97X-D3 def2-TZVP TIGHTSCF CHELPG PMODEL
| 53>
| 54> %scf
| 55> MaxIter 1000
| 56> end
| 57>
| 58> * xyz 0 1
| 59>   C                    : 1.309229             -1.618359            3.048068
| 60>   O                    : 0.618711             -2.653348            3.660415
| 61>   H                    : 0.034684             -2.996127            2.985988
| 62>   H                    : 1.705704             -1.835364            2.022964
| 63>   H                    : 0.725643             -0.628895            2.983214
| 64>   H                    : 2.138539             -1.223666            3.657437
| 65>   C                      -1.979645            -4.182581            1.500222
| 66>   O                      -0.930025            -3.282066            1.405934
| 67>   H                      -0.292941            -3.641227            0.777251
| 68>   H                      -2.938253            -3.728186            1.734132
| 69>   H                      -2.098886            -4.838322            0.577501
| 70>   H                      -1.810998            -4.887910            2.328977
| 71> *
| 72>
| 73>                          ****END OF INPUT****
 Total Charge           Charge          ....    0
 Multiplicity           Mult            ....    1
 Number of Electrons    NEL             ....   36
Dispersion correction           -0.001867544
FINAL SINGLE POINT ENERGY      -231.472938856865
Dispersion correction           -0.000259163
FINAL SINGLE POINT ENERGY      -115.731143704610

CARTESIAN COORDINATES (ANGSTROEM)
---------------------------------
  C      1.309229   -1.618359    3.048068
  O      0.618711   -2.653348    3.660415
  H      0.034684   -2.996127    2.985988
  H      1.705704   -1.835364    2.022964
  H      0.725643   -0.628895    2.983214
  H      2.138539   -1.223666    3.657437
  C     -1.979645   -4.182581    1.500222
  O     -0.930025   -3.282066    1.405934
  H     -0.292941   -3.641227    0.777251
  H     -2.938253   -3.728186    1.734132
  H     -2.098886   -4.838322    0.577501
  H     -1.810998   -4.887910    2.328977

 Multiplicity           Mult            ....    1
 Number of Electrons    NEL             ....   18
 Basis Dimension        Dim             ....  172

ORBITAL ENERGIES
----------------

  NO   OCC          E(Eh)            E(eV)
   0   2.0000     -19.234249      -523.3905
   1   2.0000     -10.315705      -280.7046
   2   2.0000      -1.146754       -31.2048
   3   2.0000      -0.792630       -21.5686
   4   2.0000      -0.617020       -16.7900
   5   2.0000      -0.537893       -14.6368
   6   2.0000      -0.535673       -14.5764
   7   2.0000      -0.433701       -11.8016
   8   2.0000      -0.370759       -10.0889
   9   0.0000       0.096610         2.6289
  10   0.0000       0.123729         3.3668
  11   0.0000       0.151290         4.1168
  12   0.0000       0.182368         4.9625
  13   0.0000       0.203298         5.5320

MULLIKEN ATOMIC CHARGES
-----------------------
   0 C :    0.005459
   1 O :   -0.000482
   2 H :   -0.010957
   3 H :   -0.003003
   4 H :   -0.001490
   5 H :   -0.000180
   6 C :   -0.171228
   7 O :   -0.459960
   8 H :    0.323043
   9 H :    0.116583
  10 H :    0.099811
  11 H :    0.102404
Sum of atomic charges:    0.0000000

LOEWDIN ATOMIC CHARGES
----------------------
   0 C :   -0.008727
   1 O :   -0.006770
   2 H :   -0.047655
   3 H :   -0.001359
   4 H :   -0.000490
   5 H :   -0.000109
   6 C :   -0.412155
   7 O :   -0.003975
   8 H :    0.179717
   9 H :    0.102711
  10 H :    0.103552
  11 H :    0.095260

  Mayer bond orders larger than 0.1
B(  6-C ,  7-O ) :   1.0000 B(  6-C ,  9-H ) :   0.9734 B(  6-C , 10-H ) :   0.9786
B(  6-C , 11-H ) :   0.9804 B(  7-O ,  8-H ) :   0.8920

Dispersion correction           -0.000244422
FINAL SINGLE POINT ENERGY      -115.733944602045

DIPOLE MOMENT
-------------
                                X             Y             Z
Electronic contribution:      1.32843       1.41792      -0.07111
Nuclear contribution   :     -1.32170      -1.98013      -0.30191
                        -----------------------------------------
Total Dipole Moment    :      0.00674      -0.56221      -0.37302
                        -----------------------------------------
Magnitude (a.u.)       :      0.67474
Magnitude (Debye)      :      1.71505

Rotational constants in cm-1:     4.283664     0.852011     0.813595
Rotational constants in MHz : 128421.029785 25542.651070 24390.979130

                             ****ORCA TERMINATED NORMALLY****
TOTAL RUN TIME: 0 days 0 hours 1 minutes 43 seconds 285 msec
