                         Program Version 4.1.2  - RELEASE  -
|  1> #Run DFT geometry optimization
|  2> ! wB97X-D3 def2-TZVP TIGHTSCF Grid5 FinalGrid6 Opt CHELPG PAL4
|  3>
|  4> %base "6_geo_opt"
|  5> %geom MaxIter 500
|  6> end
|  7>
|  8> %geom
|  9>   Constraints
| 10>     { A 5 0 1 C }
| 11>   end
| 12> end
| 13>
| 14>
| 15> * xyz 0 1
| 16>   C                    3.011308             -1.180897            0.598492
| 17>   O                    4.394526             -1.126943            0.874827
| 18>   H                    4.772196             -0.379022            0.412493
| 19>   H                    2.806434             -1.318965            -0.469350
| 20>   H                    2.611632             -2.040265            1.135898
| 21>   H                    2.485582             -0.284133            0.945984
| 22> *
| 23>
| 24>                          ****END OF INPUT****
 Total Charge           Charge          ....    0
 Multiplicity           Mult            ....    1
 Number of Electrons    NEL             ....   18
Dispersion correction           -0.000239133
FINAL SINGLE POINT ENERGY      -115.738050673421
Dispersion correction            ... done
                    ***********************HURRAY********************

CARTESIAN COORDINATES (ANGSTROEM)
---------------------------------
  C      3.011309   -1.180985    0.598538
  O      4.394503   -1.127167    0.874906
  H      4.772216   -0.378714    0.412329
  H      2.806536   -1.318949   -0.469322
  H      2.611447   -2.040257    1.135908
  H      2.485666   -0.284152    0.945985

 Multiplicity           Mult            ....    1
 Number of Electrons    NEL             ....   18
 Basis Dimension        Dim             ....   86

ORBITAL ENERGIES
----------------

  NO   OCC          E(Eh)            E(eV)
   0   2.0000     -19.228038      -523.2215
   1   2.0000     -10.315110      -280.6884
   2   2.0000      -1.136778       -30.9333
   3   2.0000      -0.795339       -21.6423
   4   2.0000      -0.611554       -16.6412
   5   2.0000      -0.541814       -14.7435
   6   2.0000      -0.526370       -14.3233
   7   2.0000      -0.433744       -11.8028
   8   2.0000      -0.373576       -10.1655
   9   0.0000       0.116638         3.1739
  10   0.0000       0.156701         4.2641
  11   0.0000       0.202601         5.5131
  12   0.0000       0.205096         5.5809
  13   0.0000       0.226327         6.1587

MULLIKEN ATOMIC CHARGES
-----------------------
   0 C :   -0.150774
   1 O :   -0.477740
   2 H :    0.313029
   3 H :    0.098628
   4 H :    0.118235
   5 H :    0.098621
Sum of atomic charges:    0.0000000

LOEWDIN ATOMIC CHARGES
----------------------
   0 C :   -0.385107
   1 O :   -0.076149
   2 H :    0.165773
   3 H :    0.093390
   4 H :    0.108677
   5 H :    0.093417

  Mayer bond orders larger than 0.1
B(  0-C ,  1-O ) :   0.9986 B(  0-C ,  3-H ) :   0.9755 B(  0-C ,  4-H ) :   0.9749
B(  0-C ,  5-H ) :   0.9757 B(  1-O ,  2-H ) :   0.9002

Dispersion correction           -0.000239121
FINAL SINGLE POINT ENERGY      -115.738050978319

DIPOLE MOMENT
-------------
                                X             Y             Z
Electronic contribution:      1.75496      -0.02801       0.42004
Nuclear contribution   :     -2.06466       0.47485      -0.81847
                        -----------------------------------------
Total Dipole Moment    :     -0.30969       0.44684      -0.39843
                        -----------------------------------------
Magnitude (a.u.)       :      0.67403
Magnitude (Debye)      :      1.71325

Rotational constants in cm-1:     4.292339     0.833858     0.804986
Rotational constants in MHz : 128681.085701 24998.442183 24132.863488

                             ****ORCA TERMINATED NORMALLY****
TOTAL RUN TIME: 0 days 0 hours 0 minutes 35 seconds 295 msec
