                         Program Version 4.1.2  - RELEASE  -
|  1> #Run DFT-D3 single point of the dimer
|  2> ! wB97X-D3 def2-TZVP TIGHTSCF CHELPG PMODEL PAL8
|  3>
|  4> %base "16-108_DFT_AB"
|  5>
|  6> %scf
|  7> MaxIter 1000
|  8> end
|  9>
| 10> * xyz 0 1
| 11>   C                      -5.734501            -10.192023           -5.611026
| 12>   O                      -4.666098            -9.342436            -5.831175
| 13>   H                      -5.044080            -8.663797            -6.404960
| 14>   H                      -6.608225            -9.629141            -5.369410
| 15>   H                      -5.796766            -10.794661           -6.500832
| 16>   H                      -5.543738            -10.761625           -4.659608
| 17>   C                      -2.724335            -7.779231            -3.663963
| 18>   O                      -2.306535            -8.949450            -4.368580
| 19>   H                      -3.146143            -9.301360            -4.569485
| 20>   H                      -3.622942            -8.116595            -3.058919
| 21>   H                      -2.015280            -7.343031            -2.985387
| 22>   H                      -3.217830            -7.021954            -4.316722
| 23> *
| 24>
| 25> #Run DFT-D3 single point of the molecule with dimer basis set
| 26> $new_job
| 27> %base "16-108_DFT_A"
| 28> ! wB97X-D3 def2-TZVP TIGHTSCF CHELPG PMODEL
| 29>
| 30> %scf
| 31> MaxIter 1000
| 32> end
| 33>
| 34> * xyz 0 1
| 35>   C                      -5.734501            -10.192023           -5.611026
| 36>   O                      -4.666098            -9.342436            -5.831175
| 37>   H                      -5.044080            -8.663797            -6.404960
| 38>   H                      -6.608225            -9.629141            -5.369410
| 39>   H                      -5.796766            -10.794661           -6.500832
| 40>   H                      -5.543738            -10.761625           -4.659608
| 41>   C                    : -2.724335            -7.779231            -3.663963
| 42>   O                    : -2.306535            -8.949450            -4.368580
| 43>   H                    : -3.146143            -9.301360            -4.569485
| 44>   H                    : -3.622942            -8.116595            -3.058919
| 45>   H                    : -2.015280            -7.343031            -2.985387
| 46>   H                    : -3.217830            -7.021954            -4.316722
| 47> *
| 48>
| 49> #Run DFT-D3 single point of the particle with dimer basis set
| 50> $new_job
| 51> %base "16-108_DFT_B"
| 52> ! wB97X-D3 def2-TZVP TIGHTSCF CHELPG PMODEL
| 53>
| 54> %scf
| 55> MaxIter 1000
| 56> end
| 57>
| 58> * xyz 0 1
| 59>   C                    : -5.734501            -10.192023           -5.611026
| 60>   O                    : -4.666098            -9.342436            -5.831175
| 61>   H                    : -5.044080            -8.663797            -6.404960
| 62>   H                    : -6.608225            -9.629141            -5.369410
| 63>   H                    : -5.796766            -10.794661           -6.500832
| 64>   H                    : -5.543738            -10.761625           -4.659608
| 65>   C                      -2.724335            -7.779231            -3.663963
| 66>   O                      -2.306535            -8.949450            -4.368580
| 67>   H                      -3.146143            -9.301360            -4.569485
| 68>   H                      -3.622942            -8.116595            -3.058919
| 69>   H                      -2.015280            -7.343031            -2.985387
| 70>   H                      -3.217830            -7.021954            -4.316722
| 71> *
| 72>
| 73>                          ****END OF INPUT****
 Total Charge           Charge          ....    0
 Multiplicity           Mult            ....    1
 Number of Electrons    NEL             ....   36
Dispersion correction           -0.001896181
FINAL SINGLE POINT ENERGY      -231.462444616185
Dispersion correction           -0.000193654
FINAL SINGLE POINT ENERGY      -115.729932144010

CARTESIAN COORDINATES (ANGSTROEM)
---------------------------------
  C     -5.734501  -10.192023   -5.611026
  O     -4.666098   -9.342436   -5.831175
  H     -5.044080   -8.663797   -6.404960
  H     -6.608225   -9.629141   -5.369410
  H     -5.796766  -10.794661   -6.500832
  H     -5.543738  -10.761625   -4.659608
  C     -2.724335   -7.779231   -3.663963
  O     -2.306535   -8.949450   -4.368580
  H     -3.146143   -9.301360   -4.569485
  H     -3.622942   -8.116595   -3.058919
  H     -2.015280   -7.343031   -2.985387
  H     -3.217830   -7.021954   -4.316722

 Multiplicity           Mult            ....    1
 Number of Electrons    NEL             ....   18
 Basis Dimension        Dim             ....  172

ORBITAL ENERGIES
----------------

  NO   OCC          E(Eh)            E(eV)
   0   2.0000     -19.232585      -523.3452
   1   2.0000     -10.321439      -280.8606
   2   2.0000      -1.146484       -31.1974
   3   2.0000      -0.792772       -21.5724
   4   2.0000      -0.613478       -16.6936
   5   2.0000      -0.539702       -14.6860
   6   2.0000      -0.529469       -14.4076
   7   2.0000      -0.445943       -12.1347
   8   2.0000      -0.372243       -10.1292
   9   0.0000       0.067101         1.8259
  10   0.0000       0.133243         3.6257
  11   0.0000       0.146735         3.9929
  12   0.0000       0.157153         4.2764
  13   0.0000       0.193140         5.2556

MULLIKEN ATOMIC CHARGES
-----------------------
   0 C :   -0.002348
   1 O :   -0.005680
   2 H :   -0.000248
   3 H :    0.000066
   4 H :    0.000061
   5 H :   -0.000274
   6 C :   -0.203899
   7 O :   -0.445161
   8 H :    0.311807
   9 H :    0.101731
  10 H :    0.136413
  11 H :    0.107531
Sum of atomic charges:    0.0000000

LOEWDIN ATOMIC CHARGES
----------------------
   0 C :   -0.003192
   1 O :   -0.019310
   2 H :   -0.001068
   3 H :   -0.000051
   4 H :   -0.000071
   5 H :   -0.000539
   6 C :   -0.382006
   7 O :   -0.059726
   8 H :    0.160423
   9 H :    0.104044
  10 H :    0.102349
  11 H :    0.099147

  Mayer bond orders larger than 0.1
B(  6-C ,  7-O ) :   0.9928 B(  6-C ,  9-H ) :   0.9949 B(  6-C , 10-H ) :   0.9697
B(  6-C , 11-H ) :   0.9654 B(  7-O ,  8-H ) :   0.9124

Dispersion correction           -0.000221399
FINAL SINGLE POINT ENERGY      -115.726637907585

DIPOLE MOMENT
-------------
                                X             Y             Z
Electronic contribution:      1.00940      -1.40302      -0.92145
Nuclear contribution   :     -1.68537       1.63816       1.08995
                        -----------------------------------------
Total Dipole Moment    :     -0.67597       0.23514       0.16850
                        -----------------------------------------
Magnitude (a.u.)       :      0.73527
Magnitude (Debye)      :      1.86891

Rotational constants in cm-1:     4.232223     0.827995     0.790805
Rotational constants in MHz : 126878.867310 24822.671044 23707.737320

                             ****ORCA TERMINATED NORMALLY****
TOTAL RUN TIME: 0 days 0 hours 1 minutes 7 seconds 13 msec
