                         Program Version 4.1.2  - RELEASE  -
|  1> #Run DFT-D3 single point of the dimer
|  2> ! wB97X-D3 def2-TZVP TIGHTSCF CHELPG PMODEL PAL8
|  3>
|  4> %base "15-32_DFT_AB"
|  5>
|  6> %scf
|  7> MaxIter 1000
|  8> end
|  9>
| 10> * xyz 0 1
| 11>   C                      -6.215711            8.702306             -1.753921
| 12>   O                      -6.204522            7.278721             -1.947713
| 13>   H                      -7.104918            7.064609             -2.073756
| 14>   H                      -5.527617            9.106006             -0.946702
| 15>   H                      -5.940116            9.260479             -2.642426
| 16>   H                      -7.167443            9.114555             -1.494518
| 17>   C                      -4.484758            8.407967             3.688813
| 18>   O                      -4.479491            9.748562             3.262175
| 19>   H                      -3.579098            10.059647            3.079137
| 20>   H                      -4.119576            7.755454             2.874660
| 21>   H                      -3.874546            8.304731             4.547465
| 22>   H                      -5.538848            8.038277             3.916587
| 23> *
| 24>
| 25> #Run DFT-D3 single point of the molecule with dimer basis set
| 26> $new_job
| 27> %base "15-32_DFT_A"
| 28> ! wB97X-D3 def2-TZVP TIGHTSCF CHELPG PMODEL
| 29>
| 30> %scf
| 31> MaxIter 1000
| 32> end
| 33>
| 34> * xyz 0 1
| 35>   C                      -6.215711            8.702306             -1.753921
| 36>   O                      -6.204522            7.278721             -1.947713
| 37>   H                      -7.104918            7.064609             -2.073756
| 38>   H                      -5.527617            9.106006             -0.946702
| 39>   H                      -5.940116            9.260479             -2.642426
| 40>   H                      -7.167443            9.114555             -1.494518
| 41>   C                    : -4.484758            8.407967             3.688813
| 42>   O                    : -4.479491            9.748562             3.262175
| 43>   H                    : -3.579098            10.059647            3.079137
| 44>   H                    : -4.119576            7.755454             2.874660
| 45>   H                    : -3.874546            8.304731             4.547465
| 46>   H                    : -5.538848            8.038277             3.916587
| 47> *
| 48>
| 49> #Run DFT-D3 single point of the particle with dimer basis set
| 50> $new_job
| 51> %base "15-32_DFT_B"
| 52> ! wB97X-D3 def2-TZVP TIGHTSCF CHELPG PMODEL
| 53>
| 54> %scf
| 55> MaxIter 1000
| 56> end
| 57>
| 58> * xyz 0 1
| 59>   C                    : -6.215711            8.702306             -1.753921
| 60>   O                    : -6.204522            7.278721             -1.947713
| 61>   H                    : -7.104918            7.064609             -2.073756
| 62>   H                    : -5.527617            9.106006             -0.946702
| 63>   H                    : -5.940116            9.260479             -2.642426
| 64>   H                    : -7.167443            9.114555             -1.494518
| 65>   C                      -4.484758            8.407967             3.688813
| 66>   O                      -4.479491            9.748562             3.262175
| 67>   H                      -3.579098            10.059647            3.079137
| 68>   H                      -4.119576            7.755454             2.874660
| 69>   H                      -3.874546            8.304731             4.547465
| 70>   H                      -5.538848            8.038277             3.916587
| 71> *
| 72>
| 73>                          ****END OF INPUT****
 Total Charge           Charge          ....    0
 Multiplicity           Mult            ....    1
 Number of Electrons    NEL             ....   36
Dispersion correction           -0.000682107
FINAL SINGLE POINT ENERGY      -231.464005141663
Dispersion correction           -0.000266581
FINAL SINGLE POINT ENERGY      -115.729890533611

CARTESIAN COORDINATES (ANGSTROEM)
---------------------------------
  C     -6.215711    8.702306   -1.753921
  O     -6.204522    7.278721   -1.947713
  H     -7.104918    7.064609   -2.073756
  H     -5.527617    9.106006   -0.946702
  H     -5.940116    9.260479   -2.642426
  H     -7.167443    9.114555   -1.494518
  C     -4.484758    8.407967    3.688813
  O     -4.479491    9.748562    3.262175
  H     -3.579098   10.059647    3.079137
  H     -4.119576    7.755454    2.874660
  H     -3.874546    8.304731    4.547465
  H     -5.538848    8.038277    3.916587

 Multiplicity           Mult            ....    1
 Number of Electrons    NEL             ....   18
 Basis Dimension        Dim             ....  172

ORBITAL ENERGIES
----------------

  NO   OCC          E(Eh)            E(eV)
   0   2.0000     -19.227809      -523.2153
   1   2.0000     -10.314868      -280.6818
   2   2.0000      -1.133613       -30.8472
   3   2.0000      -0.793221       -21.5846
   4   2.0000      -0.609989       -16.5987
   5   2.0000      -0.547662       -14.9026
   6   2.0000      -0.524963       -14.2850
   7   2.0000      -0.424663       -11.5557
   8   2.0000      -0.371804       -10.1173
   9   0.0000       0.089295         2.4299
  10   0.0000       0.114270         3.1095
  11   0.0000       0.152931         4.1615
  12   0.0000       0.168841         4.5944
  13   0.0000       0.191770         5.2183

MULLIKEN ATOMIC CHARGES
-----------------------
   0 C :    0.000448
   1 O :   -0.000000
   2 H :   -0.000000
   3 H :   -0.001052
   4 H :   -0.000030
   5 H :   -0.000031
   6 C :   -0.151308
   7 O :   -0.487476
   8 H :    0.318136
   9 H :    0.100481
  10 H :    0.105680
  11 H :    0.115152
Sum of atomic charges:    0.0000000

LOEWDIN ATOMIC CHARGES
----------------------
   0 C :   -0.000034
   1 O :   -0.000004
   2 H :   -0.000000
   3 H :   -0.000320
   4 H :   -0.000000
   5 H :   -0.000001
   6 C :   -0.390360
   7 O :   -0.082845
   8 H :    0.174149
   9 H :    0.095731
  10 H :    0.085996
  11 H :    0.117690

  Mayer bond orders larger than 0.1
B(  6-C ,  7-O ) :   0.9897 B(  6-C ,  9-H ) :   0.9789 B(  6-C , 10-H ) :   0.9799
B(  6-C , 11-H ) :   0.9692 B(  7-O ,  8-H ) :   0.8920

Dispersion correction           -0.000238525
FINAL SINGLE POINT ENERGY      -115.733560032344

DIPOLE MOMENT
-------------
                                X             Y             Z
Electronic contribution:     -0.08577       1.72947      -0.45405
Nuclear contribution   :      0.66800      -2.07071       0.51971
                        -----------------------------------------
Total Dipole Moment    :      0.58223      -0.34124       0.06567
                        -----------------------------------------
Magnitude (a.u.)       :      0.67805
Magnitude (Debye)      :      1.72346

Rotational constants in cm-1:     4.272606     0.833274     0.803087
Rotational constants in MHz : 128089.493091 24980.935466 24075.950914

                             ****ORCA TERMINATED NORMALLY****
TOTAL RUN TIME: 0 days 0 hours 0 minutes 58 seconds 730 msec
