                         Program Version 4.1.2  - RELEASE  -
|  1> #Run DFT-D3 single point of the dimer
|  2> ! wB97X-D3 def2-TZVP TIGHTSCF CHELPG PMODEL PAL8
|  3>
|  4> %base "18-199_DFT_AB"
|  5>
|  6> %scf
|  7> MaxIter 1000
|  8> end
|  9>
| 10> * xyz 0 1
| 11>   C                      2.680048             11.428202            5.553753
| 12>   O                      3.205014             10.351090            4.820974
| 13>   H                      3.830850             9.851421             5.347493
| 14>   H                      3.483308             12.098825            5.951507
| 15>   H                      2.029457             11.987699            4.871280
| 16>   H                      2.058830             11.102375            6.433720
| 17>   C                      4.925837             7.410630             4.917166
| 18>   O                      4.454631             8.192782             6.072312
| 19>   H                      4.090017             7.434244             6.638904
| 20>   H                      4.138016             7.472935             4.115969
| 21>   H                      5.899441             7.748438             4.407945
| 22>   H                      4.893873             6.343783             5.211386
| 23> *
| 24>
| 25> #Run DFT-D3 single point of the molecule with dimer basis set
| 26> $new_job
| 27> %base "18-199_DFT_A"
| 28> ! wB97X-D3 def2-TZVP TIGHTSCF CHELPG PMODEL
| 29>
| 30> %scf
| 31> MaxIter 1000
| 32> end
| 33>
| 34> * xyz 0 1
| 35>   C                      2.680048             11.428202            5.553753
| 36>   O                      3.205014             10.351090            4.820974
| 37>   H                      3.830850             9.851421             5.347493
| 38>   H                      3.483308             12.098825            5.951507
| 39>   H                      2.029457             11.987699            4.871280
| 40>   H                      2.058830             11.102375            6.433720
| 41>   C                    : 4.925837             7.410630             4.917166
| 42>   O                    : 4.454631             8.192782             6.072312
| 43>   H                    : 4.090017             7.434244             6.638904
| 44>   H                    : 4.138016             7.472935             4.115969
| 45>   H                    : 5.899441             7.748438             4.407945
| 46>   H                    : 4.893873             6.343783             5.211386
| 47> *
| 48>
| 49> #Run DFT-D3 single point of the particle with dimer basis set
| 50> $new_job
| 51> %base "18-199_DFT_B"
| 52> ! wB97X-D3 def2-TZVP TIGHTSCF CHELPG PMODEL
| 53>
| 54> %scf
| 55> MaxIter 1000
| 56> end
| 57>
| 58> * xyz 0 1
| 59>   C                    : 2.680048             11.428202            5.553753
| 60>   O                    : 3.205014             10.351090            4.820974
| 61>   H                    : 3.830850             9.851421             5.347493
| 62>   H                    : 3.483308             12.098825            5.951507
| 63>   H                    : 2.029457             11.987699            4.871280
| 64>   H                    : 2.058830             11.102375            6.433720
| 65>   C                      4.925837             7.410630             4.917166
| 66>   O                      4.454631             8.192782             6.072312
| 67>   H                      4.090017             7.434244             6.638904
| 68>   H                      4.138016             7.472935             4.115969
| 69>   H                      5.899441             7.748438             4.407945
| 70>   H                      4.893873             6.343783             5.211386
| 71> *
| 72>
| 73>                          ****END OF INPUT****
 Total Charge           Charge          ....    0
 Multiplicity           Mult            ....    1
 Number of Electrons    NEL             ....   36
Dispersion correction           -0.001683943
FINAL SINGLE POINT ENERGY      -231.466166798722
Dispersion correction           -0.000253246
FINAL SINGLE POINT ENERGY      -115.737101527897

CARTESIAN COORDINATES (ANGSTROEM)
---------------------------------
  C      2.680048   11.428202    5.553753
  O      3.205014   10.351090    4.820974
  H      3.830850    9.851421    5.347493
  H      3.483308   12.098825    5.951507
  H      2.029457   11.987699    4.871280
  H      2.058830   11.102375    6.433720
  C      4.925837    7.410630    4.917166
  O      4.454631    8.192782    6.072312
  H      4.090017    7.434244    6.638904
  H      4.138016    7.472935    4.115969
  H      5.899441    7.748438    4.407945
  H      4.893873    6.343783    5.211386

 Multiplicity           Mult            ....    1
 Number of Electrons    NEL             ....   18
 Basis Dimension        Dim             ....  172

ORBITAL ENERGIES
----------------

  NO   OCC          E(Eh)            E(eV)
   0   2.0000     -19.239216      -523.5257
   1   2.0000     -10.330146      -281.0976
   2   2.0000      -1.116669       -30.3861
   3   2.0000      -0.783793       -21.3281
   4   2.0000      -0.596634       -16.2352
   5   2.0000      -0.524584       -14.2747
   6   2.0000      -0.521041       -14.1782
   7   2.0000      -0.443942       -12.0803
   8   2.0000      -0.371623       -10.1124
   9   0.0000       0.093140         2.5345
  10   0.0000       0.114523         3.1163
  11   0.0000       0.142694         3.8829
  12   0.0000       0.181040         4.9263
  13   0.0000       0.194093         5.2815

MULLIKEN ATOMIC CHARGES
-----------------------
   0 C :   -0.001126
   1 O :   -0.001289
   2 H :   -0.001637
   3 H :   -0.000127
   4 H :   -0.000092
   5 H :   -0.000513
   6 C :   -0.204154
   7 O :   -0.459636
   8 H :    0.314502
   9 H :    0.115692
  10 H :    0.125073
  11 H :    0.113308
Sum of atomic charges:   -0.0000000

LOEWDIN ATOMIC CHARGES
----------------------
   0 C :   -0.001959
   1 O :   -0.007003
   2 H :   -0.040315
   3 H :   -0.000047
   4 H :   -0.000030
   5 H :   -0.000252
   6 C :   -0.367924
   7 O :   -0.100898
   8 H :    0.200023
   9 H :    0.102649
  10 H :    0.115460
  11 H :    0.100296

  Mayer bond orders larger than 0.1
B(  6-C ,  7-O ) :   0.9926 B(  6-C ,  9-H ) :   0.9753 B(  6-C , 10-H ) :   0.9662
B(  6-C , 11-H ) :   0.9817 B(  7-O ,  8-H ) :   0.8978

Dispersion correction           -0.000266798
FINAL SINGLE POINT ENERGY      -115.722161591184

DIPOLE MOMENT
-------------
                                X             Y             Z
Electronic contribution:     -0.35804       1.20189       1.45221
Nuclear contribution   :      0.32044      -1.98692      -1.57763
                        -----------------------------------------
Total Dipole Moment    :     -0.03760      -0.78503      -0.12542
                        -----------------------------------------
Magnitude (a.u.)       :      0.79588
Magnitude (Debye)      :      2.02296

Rotational constants in cm-1:     3.966868     0.783469     0.743245
Rotational constants in MHz : 118923.718918 23487.821806 22281.926390

                             ****ORCA TERMINATED NORMALLY****
TOTAL RUN TIME: 0 days 0 hours 1 minutes 1 seconds 606 msec
