                         Program Version 4.1.2  - RELEASE  -
|  1> #Run DFT-D3 single point of the dimer
|  2> ! wB97X-D3 def2-TZVP TIGHTSCF CHELPG PMODEL PAL8
|  3>
|  4> %base "13-37_DFT_AB"
|  5>
|  6> %scf
|  7> MaxIter 1000
|  8> end
|  9>
| 10> * xyz 0 1
| 11>   C                      2.238468             -1.442492            -1.376394
| 12>   O                      1.121689             -1.733540            -0.514272
| 13>   H                      1.431541             -2.499082            -0.058163
| 14>   H                      3.190386             -1.760322            -0.835746
| 15>   H                      2.025457             -1.974779            -2.354060
| 16>   H                      2.293692             -0.377440            -1.575006
| 17>   C                      3.430092             -1.192626            2.065246
| 18>   O                      2.789394             -1.440383            3.271237
| 19>   H                      2.279054             -0.679949            3.535481
| 20>   H                      4.032795             -1.946773            1.773120
| 21>   H                      2.727652             -0.932789            1.217253
| 22>   H                      4.034279             -0.301592            2.073270
| 23> *
| 24>
| 25> #Run DFT-D3 single point of the molecule with dimer basis set
| 26> $new_job
| 27> %base "13-37_DFT_A"
| 28> ! wB97X-D3 def2-TZVP TIGHTSCF CHELPG PMODEL
| 29>
| 30> %scf
| 31> MaxIter 1000
| 32> end
| 33>
| 34> * xyz 0 1
| 35>   C                      2.238468             -1.442492            -1.376394
| 36>   O                      1.121689             -1.733540            -0.514272
| 37>   H                      1.431541             -2.499082            -0.058163
| 38>   H                      3.190386             -1.760322            -0.835746
| 39>   H                      2.025457             -1.974779            -2.354060
| 40>   H                      2.293692             -0.377440            -1.575006
| 41>   C                    : 3.430092             -1.192626            2.065246
| 42>   O                    : 2.789394             -1.440383            3.271237
| 43>   H                    : 2.279054             -0.679949            3.535481
| 44>   H                    : 4.032795             -1.946773            1.773120
| 45>   H                    : 2.727652             -0.932789            1.217253
| 46>   H                    : 4.034279             -0.301592            2.073270
| 47> *
| 48>
| 49> #Run DFT-D3 single point of the particle with dimer basis set
| 50> $new_job
| 51> %base "13-37_DFT_B"
| 52> ! wB97X-D3 def2-TZVP TIGHTSCF CHELPG PMODEL
| 53>
| 54> %scf
| 55> MaxIter 1000
| 56> end
| 57>
| 58> * xyz 0 1
| 59>   C                    : 2.238468             -1.442492            -1.376394
| 60>   O                    : 1.121689             -1.733540            -0.514272
| 61>   H                    : 1.431541             -2.499082            -0.058163
| 62>   H                    : 3.190386             -1.760322            -0.835746
| 63>   H                    : 2.025457             -1.974779            -2.354060
| 64>   H                    : 2.293692             -0.377440            -1.575006
| 65>   C                      3.430092             -1.192626            2.065246
| 66>   O                      2.789394             -1.440383            3.271237
| 67>   H                      2.279054             -0.679949            3.535481
| 68>   H                      4.032795             -1.946773            1.773120
| 69>   H                      2.727652             -0.932789            1.217253
| 70>   H                      4.034279             -0.301592            2.073270
| 71> *
| 72>
| 73>                          ****END OF INPUT****
 Total Charge           Charge          ....    0
 Multiplicity           Mult            ....    1
 Number of Electrons    NEL             ....   36
Dispersion correction           -0.001895617
FINAL SINGLE POINT ENERGY      -231.461289656088
Dispersion correction           -0.000233270
FINAL SINGLE POINT ENERGY      -115.731151649755

CARTESIAN COORDINATES (ANGSTROEM)
---------------------------------
  C      2.238468   -1.442492   -1.376394
  O      1.121689   -1.733540   -0.514272
  H      1.431541   -2.499082   -0.058163
  H      3.190386   -1.760322   -0.835746
  H      2.025457   -1.974779   -2.354060
  H      2.293692   -0.377440   -1.575006
  C      3.430092   -1.192626    2.065246
  O      2.789394   -1.440383    3.271237
  H      2.279054   -0.679949    3.535481
  H      4.032795   -1.946773    1.773120
  H      2.727652   -0.932789    1.217253
  H      4.034279   -0.301592    2.073270

 Multiplicity           Mult            ....    1
 Number of Electrons    NEL             ....   18
 Basis Dimension        Dim             ....  172

ORBITAL ENERGIES
----------------

  NO   OCC          E(Eh)            E(eV)
   0   2.0000     -19.231318      -523.3108
   1   2.0000     -10.304047      -280.3874
   2   2.0000      -1.145253       -31.1639
   3   2.0000      -0.805183       -21.9102
   4   2.0000      -0.622786       -16.9469
   5   2.0000      -0.545736       -14.8502
   6   2.0000      -0.531008       -14.4495
   7   2.0000      -0.438737       -11.9386
   8   2.0000      -0.369033       -10.0419
   9   0.0000       0.087219         2.3733
  10   0.0000       0.118739         3.2310
  11   0.0000       0.160090         4.3563
  12   0.0000       0.168495         4.5850
  13   0.0000       0.182860         4.9759

MULLIKEN ATOMIC CHARGES
-----------------------
   0 C :   -0.001056
   1 O :    0.002191
   2 H :    0.001440
   3 H :   -0.002537
   4 H :   -0.000193
   5 H :   -0.000781
   6 C :   -0.152935
   7 O :   -0.472094
   8 H :    0.317598
   9 H :    0.130675
  10 H :    0.078804
  11 H :    0.098889
Sum of atomic charges:    0.0000000

LOEWDIN ATOMIC CHARGES
----------------------
   0 C :   -0.014206
   1 O :   -0.005093
   2 H :   -0.003193
   3 H :   -0.005826
   4 H :   -0.000196
   5 H :   -0.000876
   6 C :   -0.387514
   7 O :   -0.047036
   8 H :    0.168275
   9 H :    0.089687
  10 H :    0.113857
  11 H :    0.092122

  Mayer bond orders larger than 0.1
B(  6-C ,  7-O ) :   1.0000 B(  6-C ,  9-H ) :   0.9735 B(  6-C , 10-H ) :   0.9815
B(  6-C , 11-H ) :   0.9750 B(  7-O ,  8-H ) :   0.8969

Dispersion correction           -0.000235054
FINAL SINGLE POINT ENERGY      -115.729133112162

DIPOLE MOMENT
-------------
                                X             Y             Z
Electronic contribution:     -0.72050      -0.62587       1.69427
Nuclear contribution   :      0.66580       1.20780      -1.97367
                        -----------------------------------------
Total Dipole Moment    :     -0.05470       0.58193      -0.27940
                        -----------------------------------------
Magnitude (a.u.)       :      0.64784
Magnitude (Debye)      :      1.64668

Rotational constants in cm-1:     4.595544     0.850907     0.817517
Rotational constants in MHz : 137770.930131 25509.559622 24508.540528

                             ****ORCA TERMINATED NORMALLY****
TOTAL RUN TIME: 0 days 0 hours 1 minutes 11 seconds 920 msec
