                         Program Version 4.1.2  - RELEASE  -
|  1> #Run DFT-D3 single point of the dimer
|  2> ! wB97X-D3 def2-TZVP TIGHTSCF CHELPG PMODEL PAL8
|  3>
|  4> %base "9-104_DFT_AB"
|  5>
|  6> %scf
|  7> MaxIter 1000
|  8> end
|  9>
| 10> * xyz 0 1
| 11>   C                      6.482871             0.175619             -3.124092
| 12>   O                      5.876064             1.479061             -3.086430
| 13>   H                      5.127288             1.460981             -2.485195
| 14>   H                      6.305677             -0.243266            -2.102666
| 15>   H                      5.921835             -0.472918            -3.836024
| 16>   H                      7.590044             0.153542             -3.268757
| 17>   C                      4.706203             3.239788             0.780180
| 18>   O                      4.902455             3.772127             -0.475501
| 19>   H                      5.840434             3.599339             -0.761379
| 20>   H                      5.637058             3.269896             1.351008
| 21>   H                      3.858075             3.700776             1.224186
| 22>   H                      4.302059             2.223933             0.724914
| 23> *
| 24>
| 25> #Run DFT-D3 single point of the molecule with dimer basis set
| 26> $new_job
| 27> %base "9-104_DFT_A"
| 28> ! wB97X-D3 def2-TZVP TIGHTSCF CHELPG PMODEL
| 29>
| 30> %scf
| 31> MaxIter 1000
| 32> end
| 33>
| 34> * xyz 0 1
| 35>   C                      6.482871             0.175619             -3.124092
| 36>   O                      5.876064             1.479061             -3.086430
| 37>   H                      5.127288             1.460981             -2.485195
| 38>   H                      6.305677             -0.243266            -2.102666
| 39>   H                      5.921835             -0.472918            -3.836024
| 40>   H                      7.590044             0.153542             -3.268757
| 41>   C                    : 4.706203             3.239788             0.780180
| 42>   O                    : 4.902455             3.772127             -0.475501
| 43>   H                    : 5.840434             3.599339             -0.761379
| 44>   H                    : 5.637058             3.269896             1.351008
| 45>   H                    : 3.858075             3.700776             1.224186
| 46>   H                    : 4.302059             2.223933             0.724914
| 47> *
| 48>
| 49> #Run DFT-D3 single point of the particle with dimer basis set
| 50> $new_job
| 51> %base "9-104_DFT_B"
| 52> ! wB97X-D3 def2-TZVP TIGHTSCF CHELPG PMODEL
| 53>
| 54> %scf
| 55> MaxIter 1000
| 56> end
| 57>
| 58> * xyz 0 1
| 59>   C                    : 6.482871             0.175619             -3.124092
| 60>   O                    : 5.876064             1.479061             -3.086430
| 61>   H                    : 5.127288             1.460981             -2.485195
| 62>   H                    : 6.305677             -0.243266            -2.102666
| 63>   H                    : 5.921835             -0.472918            -3.836024
| 64>   H                    : 7.590044             0.153542             -3.268757
| 65>   C                      4.706203             3.239788             0.780180
| 66>   O                      4.902455             3.772127             -0.475501
| 67>   H                      5.840434             3.599339             -0.761379
| 68>   H                      5.637058             3.269896             1.351008
| 69>   H                      3.858075             3.700776             1.224186
| 70>   H                      4.302059             2.223933             0.724914
| 71> *
| 72>
| 73>                          ****END OF INPUT****
 Total Charge           Charge          ....    0
 Multiplicity           Mult            ....    1
 Number of Electrons    NEL             ....   36
Dispersion correction           -0.001310088
FINAL SINGLE POINT ENERGY      -231.463425430289
Dispersion correction           -0.000249290
FINAL SINGLE POINT ENERGY      -115.730631941532

CARTESIAN COORDINATES (ANGSTROEM)
---------------------------------
  C      6.482871    0.175619   -3.124092
  O      5.876064    1.479061   -3.086430
  H      5.127288    1.460981   -2.485195
  H      6.305677   -0.243266   -2.102666
  H      5.921835   -0.472918   -3.836024
  H      7.590044    0.153542   -3.268757
  C      4.706203    3.239788    0.780180
  O      4.902455    3.772127   -0.475501
  H      5.840434    3.599339   -0.761379
  H      5.637058    3.269896    1.351008
  H      3.858075    3.700776    1.224186
  H      4.302059    2.223933    0.724914

 Multiplicity           Mult            ....    1
 Number of Electrons    NEL             ....   18
 Basis Dimension        Dim             ....  172

ORBITAL ENERGIES
----------------

  NO   OCC          E(Eh)            E(eV)
   0   2.0000     -19.231537      -523.3167
   1   2.0000     -10.305415      -280.4246
   2   2.0000      -1.140784       -31.0423
   3   2.0000      -0.794382       -21.6162
   4   2.0000      -0.613474       -16.6935
   5   2.0000      -0.552186       -15.0258
   6   2.0000      -0.528854       -14.3908
   7   2.0000      -0.432772       -11.7763
   8   2.0000      -0.364997        -9.9321
   9   0.0000       0.081152         2.2083
  10   0.0000       0.116215         3.1624
  11   0.0000       0.153473         4.1762
  12   0.0000       0.172187         4.6854
  13   0.0000       0.195683         5.3248

MULLIKEN ATOMIC CHARGES
-----------------------
   0 C :    0.000164
   1 O :   -0.000421
   2 H :   -0.004893
   3 H :   -0.000035
   4 H :   -0.000026
   5 H :    0.000046
   6 C :   -0.153920
   7 O :   -0.469317
   8 H :    0.320781
   9 H :    0.102165
  10 H :    0.114229
  11 H :    0.091226
Sum of atomic charges:    0.0000000

LOEWDIN ATOMIC CHARGES
----------------------
   0 C :   -0.000174
   1 O :   -0.001361
   2 H :   -0.004339
   3 H :   -0.000022
   4 H :   -0.000006
   5 H :   -0.000002
   6 C :   -0.414485
   7 O :   -0.063634
   8 H :    0.192434
   9 H :    0.096690
  10 H :    0.101163
  11 H :    0.093736

  Mayer bond orders larger than 0.1
B(  6-C ,  7-O ) :   1.0160 B(  6-C ,  9-H ) :   0.9860 B(  6-C , 10-H ) :   0.9756
B(  6-C , 11-H ) :   0.9756 B(  7-O ,  8-H ) :   0.8905

Dispersion correction           -0.000227306
FINAL SINGLE POINT ENERGY      -115.729914200304

DIPOLE MOMENT
-------------
                                X             Y             Z
Electronic contribution:      0.20150       0.83517      -1.56248
Nuclear contribution   :      0.29995      -1.12896       1.86653
                        -----------------------------------------
Total Dipole Moment    :      0.50145      -0.29379       0.30405
                        -----------------------------------------
Magnitude (a.u.)       :      0.65590
Magnitude (Debye)      :      1.66717

Rotational constants in cm-1:     4.303577     0.876939     0.828811
Rotational constants in MHz : 129017.978809 26289.969017 24847.130555

                             ****ORCA TERMINATED NORMALLY****
TOTAL RUN TIME: 0 days 0 hours 0 minutes 39 seconds 94 msec
