                         Program Version 4.1.2  - RELEASE  -
|  1> #Run DFT-D3 single point of the dimer
|  2> ! wB97X-D3 def2-TZVP TIGHTSCF CHELPG PMODEL PAL8
|  3>
|  4> %base "3-166_DFT_AB"
|  5>
|  6> %scf
|  7> MaxIter 1000
|  8> end
|  9>
| 10> * xyz 0 1
| 11>   C                      -7.953217            11.105020            3.421729
| 12>   O                      -7.496028            10.377599            2.266500
| 13>   H                      -8.096600            9.615735             2.207716
| 14>   H                      -8.264087            10.519951            4.242746
| 15>   H                      -7.282128            11.905598            3.801026
| 16>   H                      -8.870092            11.657492            3.264073
| 17>   C                      -10.241846           9.975682             -0.431476
| 18>   O                      -10.750107           11.231768            -0.610783
| 19>   H                      -10.044483           11.860876            -0.546333
| 20>   H                      -10.112242           9.775244             0.661964
| 21>   H                      -11.121980           9.367607             -0.714543
| 22>   H                      -9.446399            9.645781             -1.118983
| 23> *
| 24>
| 25> #Run DFT-D3 single point of the molecule with dimer basis set
| 26> $new_job
| 27> %base "3-166_DFT_A"
| 28> ! wB97X-D3 def2-TZVP TIGHTSCF CHELPG PMODEL
| 29>
| 30> %scf
| 31> MaxIter 1000
| 32> end
| 33>
| 34> * xyz 0 1
| 35>   C                      -7.953217            11.105020            3.421729
| 36>   O                      -7.496028            10.377599            2.266500
| 37>   H                      -8.096600            9.615735             2.207716
| 38>   H                      -8.264087            10.519951            4.242746
| 39>   H                      -7.282128            11.905598            3.801026
| 40>   H                      -8.870092            11.657492            3.264073
| 41>   C                    : -10.241846           9.975682             -0.431476
| 42>   O                    : -10.750107           11.231768            -0.610783
| 43>   H                    : -10.044483           11.860876            -0.546333
| 44>   H                    : -10.112242           9.775244             0.661964
| 45>   H                    : -11.121980           9.367607             -0.714543
| 46>   H                    : -9.446399            9.645781             -1.118983
| 47> *
| 48>
| 49> #Run DFT-D3 single point of the particle with dimer basis set
| 50> $new_job
| 51> %base "3-166_DFT_B"
| 52> ! wB97X-D3 def2-TZVP TIGHTSCF CHELPG PMODEL
| 53>
| 54> %scf
| 55> MaxIter 1000
| 56> end
| 57>
| 58> * xyz 0 1
| 59>   C                    : -7.953217            11.105020            3.421729
| 60>   O                    : -7.496028            10.377599            2.266500
| 61>   H                    : -8.096600            9.615735             2.207716
| 62>   H                    : -8.264087            10.519951            4.242746
| 63>   H                    : -7.282128            11.905598            3.801026
| 64>   H                    : -8.870092            11.657492            3.264073
| 65>   C                      -10.241846           9.975682             -0.431476
| 66>   O                      -10.750107           11.231768            -0.610783
| 67>   H                      -10.044483           11.860876            -0.546333
| 68>   H                      -10.112242           9.775244             0.661964
| 69>   H                      -11.121980           9.367607             -0.714543
| 70>   H                      -9.446399            9.645781             -1.118983
| 71> *
| 72>
| 73>                          ****END OF INPUT****
 Total Charge           Charge          ....    0
 Multiplicity           Mult            ....    1
 Number of Electrons    NEL             ....   36
Dispersion correction           -0.001411771
FINAL SINGLE POINT ENERGY      -231.459840088588
Dispersion correction           -0.000260550
FINAL SINGLE POINT ENERGY      -115.728670955160

CARTESIAN COORDINATES (ANGSTROEM)
---------------------------------
  C     -7.953217   11.105020    3.421729
  O     -7.496028   10.377599    2.266500
  H     -8.096600    9.615735    2.207716
  H     -8.264087   10.519951    4.242746
  H     -7.282128   11.905598    3.801026
  H     -8.870092   11.657492    3.264073
  C    -10.241846    9.975682   -0.431476
  O    -10.750107   11.231768   -0.610783
  H    -10.044483   11.860876   -0.546333
  H    -10.112242    9.775244    0.661964
  H    -11.121980    9.367607   -0.714543
  H     -9.446399    9.645781   -1.118983

 Multiplicity           Mult            ....    1
 Number of Electrons    NEL             ....   18
 Basis Dimension        Dim             ....  172

ORBITAL ENERGIES
----------------

  NO   OCC          E(Eh)            E(eV)
   0   2.0000     -19.228988      -523.2474
   1   2.0000     -10.311515      -280.5906
   2   2.0000      -1.154298       -31.4101
   3   2.0000      -0.792876       -21.5752
   4   2.0000      -0.616338       -16.7714
   5   2.0000      -0.554188       -15.0802
   6   2.0000      -0.525096       -14.2886
   7   2.0000      -0.422190       -11.4884
   8   2.0000      -0.374481       -10.1902
   9   0.0000       0.080052         2.1783
  10   0.0000       0.123504         3.3607
  11   0.0000       0.149141         4.0583
  12   0.0000       0.176347         4.7986
  13   0.0000       0.185519         5.0482

MULLIKEN ATOMIC CHARGES
-----------------------
   0 C :    0.000324
   1 O :    0.000342
   2 H :   -0.002230
   3 H :    0.000016
   4 H :    0.000015
   5 H :    0.000142
   6 C :   -0.164191
   7 O :   -0.457442
   8 H :    0.309457
   9 H :    0.098472
  10 H :    0.112683
  11 H :    0.102413
Sum of atomic charges:    0.0000000

LOEWDIN ATOMIC CHARGES
----------------------
   0 C :   -0.000516
   1 O :   -0.000657
   2 H :   -0.004101
   3 H :   -0.000007
   4 H :   -0.000004
   5 H :   -0.000114
   6 C :   -0.432617
   7 O :   -0.035049
   8 H :    0.160920
   9 H :    0.100957
  10 H :    0.114900
  11 H :    0.096287

  Mayer bond orders larger than 0.1
B(  6-C ,  7-O ) :   1.0127 B(  6-C ,  9-H ) :   0.9767 B(  6-C , 10-H ) :   0.9764
B(  6-C , 11-H ) :   0.9669 B(  7-O ,  8-H ) :   0.9031

Dispersion correction           -0.000234744
FINAL SINGLE POINT ENERGY      -115.729697156495

DIPOLE MOMENT
-------------
                                X             Y             Z
Electronic contribution:     -0.54068       1.68058      -0.26271
Nuclear contribution   :      1.14719      -1.73222       0.34122
                        -----------------------------------------
Total Dipole Moment    :      0.60651      -0.05164       0.07850
                        -----------------------------------------
Magnitude (a.u.)       :      0.61374
Magnitude (Debye)      :      1.56001

Rotational constants in cm-1:     4.202871     0.874359     0.856814
Rotational constants in MHz : 125998.888066 26212.631882 25686.632084

                             ****ORCA TERMINATED NORMALLY****
TOTAL RUN TIME: 0 days 0 hours 5 minutes 28 seconds 451 msec
