                         Program Version 4.1.2  - RELEASE  -
|  1> #Run DFT-D3 single point of the dimer
|  2> ! wB97X-D3 def2-TZVP TIGHTSCF CHELPG PMODEL PAL8
|  3>
|  4> %base "8-113_DFT_AB"
|  5>
|  6> %scf
|  7> MaxIter 1000
|  8> end
|  9>
| 10> * xyz 0 1
| 11>   C                      8.297950             9.638053             6.999184
| 12>   O                      7.073123             9.026462             7.254794
| 13>   H                      6.756923             9.261665             8.121239
| 14>   H                      8.609197             9.209825             6.040132
| 15>   H                      8.162283             10.762873            6.849724
| 16>   H                      9.095038             9.417143             7.781061
| 17>   C                      3.331205             8.879087             6.004327
| 18>   O                      4.379538             9.384621             5.205546
| 19>   H                      5.180893             8.897967             5.414773
| 20>   H                      2.426944             9.554563             6.046449
| 21>   H                      2.986649             7.898771             5.610622
| 22>   H                      3.675383             8.766237             7.041271
| 23> *
| 24>
| 25> #Run DFT-D3 single point of the molecule with dimer basis set
| 26> $new_job
| 27> %base "8-113_DFT_A"
| 28> ! wB97X-D3 def2-TZVP TIGHTSCF CHELPG PMODEL
| 29>
| 30> %scf
| 31> MaxIter 1000
| 32> end
| 33>
| 34> * xyz 0 1
| 35>   C                      8.297950             9.638053             6.999184
| 36>   O                      7.073123             9.026462             7.254794
| 37>   H                      6.756923             9.261665             8.121239
| 38>   H                      8.609197             9.209825             6.040132
| 39>   H                      8.162283             10.762873            6.849724
| 40>   H                      9.095038             9.417143             7.781061
| 41>   C                    : 3.331205             8.879087             6.004327
| 42>   O                    : 4.379538             9.384621             5.205546
| 43>   H                    : 5.180893             8.897967             5.414773
| 44>   H                    : 2.426944             9.554563             6.046449
| 45>   H                    : 2.986649             7.898771             5.610622
| 46>   H                    : 3.675383             8.766237             7.041271
| 47> *
| 48>
| 49> #Run DFT-D3 single point of the particle with dimer basis set
| 50> $new_job
| 51> %base "8-113_DFT_B"
| 52> ! wB97X-D3 def2-TZVP TIGHTSCF CHELPG PMODEL
| 53>
| 54> %scf
| 55> MaxIter 1000
| 56> end
| 57>
| 58> * xyz 0 1
| 59>   C                    : 8.297950             9.638053             6.999184
| 60>   O                    : 7.073123             9.026462             7.254794
| 61>   H                    : 6.756923             9.261665             8.121239
| 62>   H                    : 8.609197             9.209825             6.040132
| 63>   H                    : 8.162283             10.762873            6.849724
| 64>   H                    : 9.095038             9.417143             7.781061
| 65>   C                      3.331205             8.879087             6.004327
| 66>   O                      4.379538             9.384621             5.205546
| 67>   H                      5.180893             8.897967             5.414773
| 68>   H                      2.426944             9.554563             6.046449
| 69>   H                      2.986649             7.898771             5.610622
| 70>   H                      3.675383             8.766237             7.041271
| 71> *
| 72>
| 73>                          ****END OF INPUT****
 Total Charge           Charge          ....    0
 Multiplicity           Mult            ....    1
 Number of Electrons    NEL             ....   36
Dispersion correction           -0.001489287
FINAL SINGLE POINT ENERGY      -231.474255866322
Dispersion correction           -0.000251256
FINAL SINGLE POINT ENERGY      -115.734651711843

CARTESIAN COORDINATES (ANGSTROEM)
---------------------------------
  C      8.297950    9.638053    6.999184
  O      7.073123    9.026462    7.254794
  H      6.756923    9.261665    8.121239
  H      8.609197    9.209825    6.040132
  H      8.162283   10.762873    6.849724
  H      9.095038    9.417143    7.781061
  C      3.331205    8.879087    6.004327
  O      4.379538    9.384621    5.205546
  H      5.180893    8.897967    5.414773
  H      2.426944    9.554563    6.046449
  H      2.986649    7.898771    5.610622
  H      3.675383    8.766237    7.041271

 Multiplicity           Mult            ....    1
 Number of Electrons    NEL             ....   18
 Basis Dimension        Dim             ....  172

ORBITAL ENERGIES
----------------

  NO   OCC          E(Eh)            E(eV)
   0   2.0000     -19.230624      -523.2919
   1   2.0000     -10.319846      -280.8173
   2   2.0000      -1.137302       -30.9476
   3   2.0000      -0.791044       -21.5254
   4   2.0000      -0.609719       -16.5913
   5   2.0000      -0.542285       -14.7563
   6   2.0000      -0.527769       -14.3613
   7   2.0000      -0.428829       -11.6690
   8   2.0000      -0.373379       -10.1602
   9   0.0000       0.073152         1.9906
  10   0.0000       0.124782         3.3955
  11   0.0000       0.147463         4.0127
  12   0.0000       0.164017         4.4631
  13   0.0000       0.195569         5.3217

MULLIKEN ATOMIC CHARGES
-----------------------
   0 C :   -0.001816
   1 O :   -0.001193
   2 H :   -0.000108
   3 H :    0.000161
   4 H :    0.000066
   5 H :   -0.000013
   6 C :   -0.160286
   7 O :   -0.473194
   8 H :    0.317380
   9 H :    0.118003
  10 H :    0.097570
  11 H :    0.103429
Sum of atomic charges:   -0.0000000

LOEWDIN ATOMIC CHARGES
----------------------
   0 C :   -0.001040
   1 O :   -0.003447
   2 H :   -0.000429
   3 H :   -0.000076
   4 H :   -0.000084
   5 H :   -0.000027
   6 C :   -0.393051
   7 O :   -0.075430
   8 H :    0.169433
   9 H :    0.113898
  10 H :    0.095577
  11 H :    0.094675

  Mayer bond orders larger than 0.1
B(  6-C ,  7-O ) :   0.9966 B(  6-C ,  9-H ) :   0.9693 B(  6-C , 10-H ) :   0.9789
B(  6-C , 11-H ) :   0.9790 B(  7-O ,  8-H ) :   0.8983

Dispersion correction           -0.000243688
FINAL SINGLE POINT ENERGY      -115.735089455820

DIPOLE MOMENT
-------------
                                X             Y             Z
Electronic contribution:      1.27538       0.77115      -1.11062
Nuclear contribution   :     -1.18196      -1.27040       1.56935
                        -----------------------------------------
Total Dipole Moment    :      0.09341      -0.49925       0.45873
                        -----------------------------------------
Magnitude (a.u.)       :      0.68441
Magnitude (Debye)      :      1.73963

Rotational constants in cm-1:     4.212579     0.825827     0.798973
Rotational constants in MHz : 126289.935902 24757.671541 23952.608702

                             ****ORCA TERMINATED NORMALLY****
TOTAL RUN TIME: 0 days 0 hours 0 minutes 45 seconds 811 msec
