                         Program Version 4.1.2  - RELEASE  -
|  1> #Run DFT-D3 single point of the dimer
|  2> ! wB97X-D3 def2-TZVP TIGHTSCF CHELPG PMODEL PAL8
|  3>
|  4> %base "16-55_DFT_AB"
|  5>
|  6> %scf
|  7> MaxIter 1000
|  8> end
|  9>
| 10> * xyz 0 1
| 11>   C                      3.918612             -5.045741            2.896027
| 12>   O                      4.275113             -3.748419            2.773380
| 13>   H                      5.177996             -3.619790            2.820687
| 14>   H                      3.911424             -5.560728            1.980114
| 15>   H                      4.669848             -5.508734            3.468600
| 16>   H                      2.869578             -5.280809            3.312576
| 17>   C                      9.490457             -4.875805            3.455950
| 18>   O                      10.344244            -5.117745            2.427739
| 19>   H                      11.255796            -5.131421            2.828803
| 20>   H                      8.538186             -5.378607            3.341968
| 21>   H                      9.866922             -5.323209            4.390639
| 22>   H                      9.396912             -3.795127            3.671283
| 23> *
| 24>
| 25> #Run DFT-D3 single point of the molecule with dimer basis set
| 26> $new_job
| 27> %base "16-55_DFT_A"
| 28> ! wB97X-D3 def2-TZVP TIGHTSCF CHELPG PMODEL
| 29>
| 30> %scf
| 31> MaxIter 1000
| 32> end
| 33>
| 34> * xyz 0 1
| 35>   C                      3.918612             -5.045741            2.896027
| 36>   O                      4.275113             -3.748419            2.773380
| 37>   H                      5.177996             -3.619790            2.820687
| 38>   H                      3.911424             -5.560728            1.980114
| 39>   H                      4.669848             -5.508734            3.468600
| 40>   H                      2.869578             -5.280809            3.312576
| 41>   C                    : 9.490457             -4.875805            3.455950
| 42>   O                    : 10.344244            -5.117745            2.427739
| 43>   H                    : 11.255796            -5.131421            2.828803
| 44>   H                    : 8.538186             -5.378607            3.341968
| 45>   H                    : 9.866922             -5.323209            4.390639
| 46>   H                    : 9.396912             -3.795127            3.671283
| 47> *
| 48>
| 49> #Run DFT-D3 single point of the particle with dimer basis set
| 50> $new_job
| 51> %base "16-55_DFT_B"
| 52> ! wB97X-D3 def2-TZVP TIGHTSCF CHELPG PMODEL
| 53>
| 54> %scf
| 55> MaxIter 1000
| 56> end
| 57>
| 58> * xyz 0 1
| 59>   C                    : 3.918612             -5.045741            2.896027
| 60>   O                    : 4.275113             -3.748419            2.773380
| 61>   H                    : 5.177996             -3.619790            2.820687
| 62>   H                    : 3.911424             -5.560728            1.980114
| 63>   H                    : 4.669848             -5.508734            3.468600
| 64>   H                    : 2.869578             -5.280809            3.312576
| 65>   C                      9.490457             -4.875805            3.455950
| 66>   O                      10.344244            -5.117745            2.427739
| 67>   H                      11.255796            -5.131421            2.828803
| 68>   H                      8.538186             -5.378607            3.341968
| 69>   H                      9.866922             -5.323209            4.390639
| 70>   H                      9.396912             -3.795127            3.671283
| 71> *
| 72>
| 73>                          ****END OF INPUT****
 Total Charge           Charge          ....    0
 Multiplicity           Mult            ....    1
 Number of Electrons    NEL             ....   36
Dispersion correction           -0.000677241
FINAL SINGLE POINT ENERGY      -231.452640124486
Dispersion correction           -0.000218031
FINAL SINGLE POINT ENERGY      -115.721939027336

CARTESIAN COORDINATES (ANGSTROEM)
---------------------------------
  C      3.918612   -5.045741    2.896027
  O      4.275113   -3.748419    2.773380
  H      5.177996   -3.619790    2.820687
  H      3.911424   -5.560728    1.980114
  H      4.669848   -5.508734    3.468600
  H      2.869578   -5.280809    3.312576
  C      9.490457   -4.875805    3.455950
  O     10.344244   -5.117745    2.427739
  H     11.255796   -5.131421    2.828803
  H      8.538186   -5.378607    3.341968
  H      9.866922   -5.323209    4.390639
  H      9.396912   -3.795127    3.671283

 Multiplicity           Mult            ....    1
 Number of Electrons    NEL             ....   18
 Basis Dimension        Dim             ....  172

ORBITAL ENERGIES
----------------

  NO   OCC          E(Eh)            E(eV)
   0   2.0000     -19.233803      -523.3784
   1   2.0000     -10.308340      -280.5042
   2   2.0000      -1.150574       -31.3087
   3   2.0000      -0.788033       -21.4435
   4   2.0000      -0.618798       -16.8383
   5   2.0000      -0.553047       -15.0492
   6   2.0000      -0.530365       -14.4320
   7   2.0000      -0.425159       -11.5692
   8   2.0000      -0.370795       -10.0898
   9   0.0000       0.086014         2.3406
  10   0.0000       0.108143         2.9427
  11   0.0000       0.146726         3.9926
  12   0.0000       0.171949         4.6790
  13   0.0000       0.188620         5.1326

MULLIKEN ATOMIC CHARGES
-----------------------
   0 C :    0.000010
   1 O :    0.000006
   2 H :   -0.000050
   3 H :   -0.000005
   4 H :   -0.000070
   5 H :   -0.000001
   6 C :   -0.156249
   7 O :   -0.459475
   8 H :    0.323756
   9 H :    0.113855
  10 H :    0.087225
  11 H :    0.090999
Sum of atomic charges:   -0.0000000

LOEWDIN ATOMIC CHARGES
----------------------
   0 C :   -0.000055
   1 O :   -0.000004
   2 H :   -0.000089
   3 H :   -0.000001
   4 H :   -0.000094
   5 H :   -0.000000
   6 C :   -0.438582
   7 O :   -0.050599
   8 H :    0.198828
   9 H :    0.103094
  10 H :    0.093339
  11 H :    0.094164

  Mayer bond orders larger than 0.1
B(  6-C ,  7-O ) :   1.0174 B(  6-C ,  9-H ) :   0.9707 B(  6-C , 10-H ) :   0.9896
B(  6-C , 11-H ) :   0.9734 B(  7-O ,  8-H ) :   0.8904

Dispersion correction           -0.000217931
FINAL SINGLE POINT ENERGY      -115.730406552092

DIPOLE MOMENT
-------------
                                X             Y             Z
Electronic contribution:      0.97021      -0.30884      -1.62481
Nuclear contribution   :     -0.69515       0.34897       2.25418
                        -----------------------------------------
Total Dipole Moment    :      0.27506       0.04013       0.62937
                        -----------------------------------------
Magnitude (a.u.)       :      0.68802
Magnitude (Debye)      :      1.74880

Rotational constants in cm-1:     4.236847     0.881984     0.852987
Rotational constants in MHz : 127017.476149 26441.224063 25571.906120

                             ****ORCA TERMINATED NORMALLY****
TOTAL RUN TIME: 0 days 0 hours 0 minutes 59 seconds 948 msec
