                         Program Version 4.1.2  - RELEASE  -
|  1> #Run DFT-D3 single point of the dimer
|  2> ! wB97X-D3 def2-TZVP TIGHTSCF CHELPG PMODEL PAL8
|  3>
|  4> %base "12-140_DFT_AB"
|  5>
|  6> %scf
|  7> MaxIter 1000
|  8> end
|  9>
| 10> * xyz 0 1
| 11>   C                      2.788778             7.113822             10.181854
| 12>   O                      3.801655             6.976364             9.220775
| 13>   H                      4.465584             6.400968             9.529224
| 14>   H                      2.109126             6.241315             10.280435
| 15>   H                      3.263922             7.233564             11.141851
| 16>   H                      2.128043             7.959936             9.959660
| 17>   C                      8.756345             5.346527             9.124602
| 18>   O                      7.432067             5.202244             8.847964
| 19>   H                      7.096865             4.293952             8.916372
| 20>   H                      9.291302             4.993951             8.215409
| 21>   H                      9.107427             6.443233             9.263130
| 22>   H                      8.972218             4.789132             10.079502
| 23> *
| 24>
| 25> #Run DFT-D3 single point of the molecule with dimer basis set
| 26> $new_job
| 27> %base "12-140_DFT_A"
| 28> ! wB97X-D3 def2-TZVP TIGHTSCF CHELPG PMODEL
| 29>
| 30> %scf
| 31> MaxIter 1000
| 32> end
| 33>
| 34> * xyz 0 1
| 35>   C                      2.788778             7.113822             10.181854
| 36>   O                      3.801655             6.976364             9.220775
| 37>   H                      4.465584             6.400968             9.529224
| 38>   H                      2.109126             6.241315             10.280435
| 39>   H                      3.263922             7.233564             11.141851
| 40>   H                      2.128043             7.959936             9.959660
| 41>   C                    : 8.756345             5.346527             9.124602
| 42>   O                    : 7.432067             5.202244             8.847964
| 43>   H                    : 7.096865             4.293952             8.916372
| 44>   H                    : 9.291302             4.993951             8.215409
| 45>   H                    : 9.107427             6.443233             9.263130
| 46>   H                    : 8.972218             4.789132             10.079502
| 47> *
| 48>
| 49> #Run DFT-D3 single point of the particle with dimer basis set
| 50> $new_job
| 51> %base "12-140_DFT_B"
| 52> ! wB97X-D3 def2-TZVP TIGHTSCF CHELPG PMODEL
| 53>
| 54> %scf
| 55> MaxIter 1000
| 56> end
| 57>
| 58> * xyz 0 1
| 59>   C                    : 2.788778             7.113822             10.181854
| 60>   O                    : 3.801655             6.976364             9.220775
| 61>   H                    : 4.465584             6.400968             9.529224
| 62>   H                    : 2.109126             6.241315             10.280435
| 63>   H                    : 3.263922             7.233564             11.141851
| 64>   H                    : 2.128043             7.959936             9.959660
| 65>   C                      8.756345             5.346527             9.124602
| 66>   O                      7.432067             5.202244             8.847964
| 67>   H                      7.096865             4.293952             8.916372
| 68>   H                      9.291302             4.993951             8.215409
| 69>   H                      9.107427             6.443233             9.263130
| 70>   H                      8.972218             4.789132             10.079502
| 71> *
| 72>
| 73>                          ****END OF INPUT****
 Total Charge           Charge          ....    0
 Multiplicity           Mult            ....    1
 Number of Electrons    NEL             ....   36
Dispersion correction           -0.000848367
FINAL SINGLE POINT ENERGY      -231.461638617898
Dispersion correction           -0.000238967
FINAL SINGLE POINT ENERGY      -115.734271487550

CARTESIAN COORDINATES (ANGSTROEM)
---------------------------------
  C      2.788778    7.113822   10.181854
  O      3.801655    6.976364    9.220775
  H      4.465584    6.400968    9.529224
  H      2.109126    6.241315   10.280435
  H      3.263922    7.233564   11.141851
  H      2.128043    7.959936    9.959660
  C      8.756345    5.346527    9.124602
  O      7.432067    5.202244    8.847964
  H      7.096865    4.293952    8.916372
  H      9.291302    4.993951    8.215409
  H      9.107427    6.443233    9.263130
  H      8.972218    4.789132   10.079502

 Multiplicity           Mult            ....    1
 Number of Electrons    NEL             ....   18
 Basis Dimension        Dim             ....  172

ORBITAL ENERGIES
----------------

  NO   OCC          E(Eh)            E(eV)
   0   2.0000     -19.225983      -523.1656
   1   2.0000     -10.321312      -280.8572
   2   2.0000      -1.147757       -31.2321
   3   2.0000      -0.786484       -21.4013
   4   2.0000      -0.612294       -16.6614
   5   2.0000      -0.553295       -15.0559
   6   2.0000      -0.532085       -14.4788
   7   2.0000      -0.411007       -11.1841
   8   2.0000      -0.366495        -9.9728
   9   0.0000       0.093676         2.5490
  10   0.0000       0.113073         3.0769
  11   0.0000       0.150545         4.0965
  12   0.0000       0.180910         4.9228
  13   0.0000       0.200341         5.4516

MULLIKEN ATOMIC CHARGES
-----------------------
   0 C :    0.000389
   1 O :    0.000396
   2 H :   -0.004535
   3 H :   -0.000018
   4 H :   -0.000049
   5 H :    0.000004
   6 C :   -0.145358
   7 O :   -0.477304
   8 H :    0.325310
   9 H :    0.095837
  10 H :    0.111357
  11 H :    0.093971
Sum of atomic charges:   -0.0000000

LOEWDIN ATOMIC CHARGES
----------------------
   0 C :   -0.000017
   1 O :   -0.000170
   2 H :   -0.003514
   3 H :   -0.000000
   4 H :   -0.000001
   5 H :   -0.000001
   6 C :   -0.436596
   7 O :   -0.050835
   8 H :    0.179262
   9 H :    0.096102
  10 H :    0.117275
  11 H :    0.098495

  Mayer bond orders larger than 0.1
B(  6-C ,  7-O ) :   0.9925 B(  6-C ,  9-H ) :   0.9805 B(  6-C , 10-H ) :   0.9640
B(  6-C , 11-H ) :   0.9834 B(  7-O ,  8-H ) :   0.8839

Dispersion correction           -0.000233139
FINAL SINGLE POINT ENERGY      -115.726025455639

DIPOLE MOMENT
-------------
                                X             Y             Z
Electronic contribution:     -1.74753      -0.09810      -0.34959
Nuclear contribution   :      2.01458      -0.44041       0.49664
                        -----------------------------------------
Total Dipole Moment    :      0.26705      -0.53851       0.14705
                        -----------------------------------------
Magnitude (a.u.)       :      0.61882
Magnitude (Debye)      :      1.57290

Rotational constants in cm-1:     4.109091     0.869155     0.843877
Rotational constants in MHz : 123187.458673 26056.623804 25298.795681

                             ****ORCA TERMINATED NORMALLY****
TOTAL RUN TIME: 0 days 0 hours 0 minutes 58 seconds 987 msec
