                         Program Version 4.1.2  - RELEASE  -
|  1> #Run DFT-D3 single point of the dimer
|  2> ! wB97X-D3 def2-TZVP TIGHTSCF CHELPG PMODEL PAL8
|  3>
|  4> %base "6-33_DFT_AB"
|  5>
|  6> %scf
|  7> MaxIter 1000
|  8> end
|  9>
| 10> * xyz 0 1
| 11>   C                      5.317093             -1.389465            9.829214
| 12>   O                      4.191214             -1.778297            9.136215
| 13>   H                      3.445085             -1.583899            9.711773
| 14>   H                      5.210921             -0.435185            10.318451
| 15>   H                      5.554928             -2.009631            10.720505
| 16>   H                      6.232359             -1.237325            9.223944
| 17>   C                      8.813073             -3.027639            10.180411
| 18>   O                      8.321382             -2.300474            11.311863
| 19>   H                      8.995381             -1.956765            11.874428
| 20>   H                      7.983589             -3.351874            9.544213
| 21>   H                      9.543527             -2.495823            9.600854
| 22>   H                      9.342928             -3.890709            10.553853
| 23> *
| 24>
| 25> #Run DFT-D3 single point of the molecule with dimer basis set
| 26> $new_job
| 27> %base "6-33_DFT_A"
| 28> ! wB97X-D3 def2-TZVP TIGHTSCF CHELPG PMODEL
| 29>
| 30> %scf
| 31> MaxIter 1000
| 32> end
| 33>
| 34> * xyz 0 1
| 35>   C                      5.317093             -1.389465            9.829214
| 36>   O                      4.191214             -1.778297            9.136215
| 37>   H                      3.445085             -1.583899            9.711773
| 38>   H                      5.210921             -0.435185            10.318451
| 39>   H                      5.554928             -2.009631            10.720505
| 40>   H                      6.232359             -1.237325            9.223944
| 41>   C                    : 8.813073             -3.027639            10.180411
| 42>   O                    : 8.321382             -2.300474            11.311863
| 43>   H                    : 8.995381             -1.956765            11.874428
| 44>   H                    : 7.983589             -3.351874            9.544213
| 45>   H                    : 9.543527             -2.495823            9.600854
| 46>   H                    : 9.342928             -3.890709            10.553853
| 47> *
| 48>
| 49> #Run DFT-D3 single point of the particle with dimer basis set
| 50> $new_job
| 51> %base "6-33_DFT_B"
| 52> ! wB97X-D3 def2-TZVP TIGHTSCF CHELPG PMODEL
| 53>
| 54> %scf
| 55> MaxIter 1000
| 56> end
| 57>
| 58> * xyz 0 1
| 59>   C                    : 5.317093             -1.389465            9.829214
| 60>   O                    : 4.191214             -1.778297            9.136215
| 61>   H                    : 3.445085             -1.583899            9.711773
| 62>   H                    : 5.210921             -0.435185            10.318451
| 63>   H                    : 5.554928             -2.009631            10.720505
| 64>   H                    : 6.232359             -1.237325            9.223944
| 65>   C                      8.813073             -3.027639            10.180411
| 66>   O                      8.321382             -2.300474            11.311863
| 67>   H                      8.995381             -1.956765            11.874428
| 68>   H                      7.983589             -3.351874            9.544213
| 69>   H                      9.543527             -2.495823            9.600854
| 70>   H                      9.342928             -3.890709            10.553853
| 71> *
| 72>
| 73>                          ****END OF INPUT****
 Total Charge           Charge          ....    0
 Multiplicity           Mult            ....    1
 Number of Electrons    NEL             ....   36
Dispersion correction           -0.001735248
FINAL SINGLE POINT ENERGY      -231.467214036097
Dispersion correction           -0.000234213
FINAL SINGLE POINT ENERGY      -115.731000358940

CARTESIAN COORDINATES (ANGSTROEM)
---------------------------------
  C      5.317093   -1.389465    9.829214
  O      4.191214   -1.778297    9.136215
  H      3.445085   -1.583899    9.711773
  H      5.210921   -0.435185   10.318451
  H      5.554928   -2.009631   10.720505
  H      6.232359   -1.237325    9.223944
  C      8.813073   -3.027639   10.180411
  O      8.321382   -2.300474   11.311863
  H      8.995381   -1.956765   11.874428
  H      7.983589   -3.351874    9.544213
  H      9.543527   -2.495823    9.600854
  H      9.342928   -3.890709   10.553853

 Multiplicity           Mult            ....    1
 Number of Electrons    NEL             ....   18
 Basis Dimension        Dim             ....  172

ORBITAL ENERGIES
----------------

  NO   OCC          E(Eh)            E(eV)
   0   2.0000     -19.224568      -523.1271
   1   2.0000     -10.312005      -280.6039
   2   2.0000      -1.129197       -30.7270
   3   2.0000      -0.802938       -21.8491
   4   2.0000      -0.613419       -16.6920
   5   2.0000      -0.537412       -14.6237
   6   2.0000      -0.529791       -14.4164
   7   2.0000      -0.431048       -11.7294
   8   2.0000      -0.371517       -10.1095
   9   0.0000       0.096022         2.6129
  10   0.0000       0.123508         3.3608
  11   0.0000       0.152169         4.1407
  12   0.0000       0.181764         4.9461
  13   0.0000       0.196148         5.3375

MULLIKEN ATOMIC CHARGES
-----------------------
   0 C :    0.002771
   1 O :   -0.000039
   2 H :   -0.000012
   3 H :   -0.001216
   4 H :   -0.004751
   5 H :   -0.001188
   6 C :   -0.155656
   7 O :   -0.488395
   8 H :    0.310322
   9 H :    0.127072
  10 H :    0.104635
  11 H :    0.106455
Sum of atomic charges:   -0.0000000

LOEWDIN ATOMIC CHARGES
----------------------
   0 C :   -0.006737
   1 O :   -0.000032
   2 H :   -0.000009
   3 H :   -0.000285
   4 H :   -0.004366
   5 H :   -0.001768
   6 C :   -0.359745
   7 O :   -0.076803
   8 H :    0.152878
   9 H :    0.112247
  10 H :    0.090513
  11 H :    0.094106

  Mayer bond orders larger than 0.1
B(  6-C ,  7-O ) :   0.9808 B(  6-C ,  9-H ) :   0.9724 B(  6-C , 10-H ) :   0.9732
B(  6-C , 11-H ) :   0.9821 B(  7-O ,  8-H ) :   0.8990

Dispersion correction           -0.000249291
FINAL SINGLE POINT ENERGY      -115.734084787307

DIPOLE MOMENT
-------------
                                X             Y             Z
Electronic contribution:     -0.74950       0.92325       1.30090
Nuclear contribution   :      1.42024      -1.01669      -1.41361
                        -----------------------------------------
Total Dipole Moment    :      0.67074      -0.09343      -0.11271
                        -----------------------------------------
Magnitude (a.u.)       :      0.68653
Magnitude (Debye)      :      1.74501

Rotational constants in cm-1:     4.474230     0.813222     0.780945
Rotational constants in MHz : 134134.036703 24379.776551 23412.133320

                             ****ORCA TERMINATED NORMALLY****
TOTAL RUN TIME: 0 days 0 hours 1 minutes 7 seconds 376 msec
