                         Program Version 4.1.2  - RELEASE  -
|  1> #Run DFT-D3 single point of the dimer
|  2> ! wB97X-D3 def2-TZVP TIGHTSCF CHELPG PMODEL PAL8
|  3>
|  4> %base "13-222_DFT_AB"
|  5>
|  6> %scf
|  7> MaxIter 1000
|  8> end
|  9>
| 10> * xyz 0 1
| 11>   C                      3.694090             0.378957             -6.877183
| 12>   O                      2.913124             -0.000757            -5.751815
| 13>   H                      1.927826             -0.047381            -5.934338
| 14>   H                      3.797572             -0.408838            -7.616210
| 15>   H                      3.427840             1.291935             -7.408147
| 16>   H                      4.631567             0.640459             -6.494055
| 17>   C                      -0.695942            -1.118168            -4.644641
| 18>   O                      -0.689851            0.124149             -5.212528
| 19>   H                      -0.049258            0.673570             -4.677234
| 20>   H                      -0.102550            -1.842898            -5.168804
| 21>   H                      -0.440777            -1.019185            -3.624721
| 22>   H                      -1.700991            -1.589887            -4.669325
| 23> *
| 24>
| 25> #Run DFT-D3 single point of the molecule with dimer basis set
| 26> $new_job
| 27> %base "13-222_DFT_A"
| 28> ! wB97X-D3 def2-TZVP TIGHTSCF CHELPG PMODEL
| 29>
| 30> %scf
| 31> MaxIter 1000
| 32> end
| 33>
| 34> * xyz 0 1
| 35>   C                      3.694090             0.378957             -6.877183
| 36>   O                      2.913124             -0.000757            -5.751815
| 37>   H                      1.927826             -0.047381            -5.934338
| 38>   H                      3.797572             -0.408838            -7.616210
| 39>   H                      3.427840             1.291935             -7.408147
| 40>   H                      4.631567             0.640459             -6.494055
| 41>   C                    : -0.695942            -1.118168            -4.644641
| 42>   O                    : -0.689851            0.124149             -5.212528
| 43>   H                    : -0.049258            0.673570             -4.677234
| 44>   H                    : -0.102550            -1.842898            -5.168804
| 45>   H                    : -0.440777            -1.019185            -3.624721
| 46>   H                    : -1.700991            -1.589887            -4.669325
| 47> *
| 48>
| 49> #Run DFT-D3 single point of the particle with dimer basis set
| 50> $new_job
| 51> %base "13-222_DFT_B"
| 52> ! wB97X-D3 def2-TZVP TIGHTSCF CHELPG PMODEL
| 53>
| 54> %scf
| 55> MaxIter 1000
| 56> end
| 57>
| 58> * xyz 0 1
| 59>   C                    : 3.694090             0.378957             -6.877183
| 60>   O                    : 2.913124             -0.000757            -5.751815
| 61>   H                    : 1.927826             -0.047381            -5.934338
| 62>   H                    : 3.797572             -0.408838            -7.616210
| 63>   H                    : 3.427840             1.291935             -7.408147
| 64>   H                    : 4.631567             0.640459             -6.494055
| 65>   C                      -0.695942            -1.118168            -4.644641
| 66>   O                      -0.689851            0.124149             -5.212528
| 67>   H                      -0.049258            0.673570             -4.677234
| 68>   H                      -0.102550            -1.842898            -5.168804
| 69>   H                      -0.440777            -1.019185            -3.624721
| 70>   H                      -1.700991            -1.589887            -4.669325
| 71> *
| 72>
| 73>                          ****END OF INPUT****
 Total Charge           Charge          ....    0
 Multiplicity           Mult            ....    1
 Number of Electrons    NEL             ....   36
Dispersion correction           -0.001475079
FINAL SINGLE POINT ENERGY      -231.463950879755
Dispersion correction           -0.000278146
FINAL SINGLE POINT ENERGY      -115.731131780524

CARTESIAN COORDINATES (ANGSTROEM)
---------------------------------
  C      3.694090    0.378957   -6.877183
  O      2.913124   -0.000757   -5.751815
  H      1.927826   -0.047381   -5.934338
  H      3.797572   -0.408838   -7.616210
  H      3.427840    1.291935   -7.408147
  H      4.631567    0.640459   -6.494055
  C     -0.695942   -1.118168   -4.644641
  O     -0.689851    0.124149   -5.212528
  H     -0.049258    0.673570   -4.677234
  H     -0.102550   -1.842898   -5.168804
  H     -0.440777   -1.019185   -3.624721
  H     -1.700991   -1.589887   -4.669325

 Multiplicity           Mult            ....    1
 Number of Electrons    NEL             ....   18
 Basis Dimension        Dim             ....  172

ORBITAL ENERGIES
----------------

  NO   OCC          E(Eh)            E(eV)
   0   2.0000     -19.234309      -523.3921
   1   2.0000     -10.303388      -280.3695
   2   2.0000      -1.147338       -31.2206
   3   2.0000      -0.792193       -21.5567
   4   2.0000      -0.618204       -16.8222
   5   2.0000      -0.553682       -15.0665
   6   2.0000      -0.533012       -14.5040
   7   2.0000      -0.428272       -11.6539
   8   2.0000      -0.370140       -10.0720
   9   0.0000       0.084010         2.2860
  10   0.0000       0.112825         3.0701
  11   0.0000       0.154156         4.1948
  12   0.0000       0.178737         4.8637
  13   0.0000       0.197720         5.3802

MULLIKEN ATOMIC CHARGES
-----------------------
   0 C :    0.000988
   1 O :    0.000939
   2 H :   -0.010329
   3 H :   -0.000043
   4 H :   -0.000168
   5 H :    0.000007
   6 C :   -0.161632
   7 O :   -0.458732
   8 H :    0.322497
   9 H :    0.098686
  10 H :    0.100677
  11 H :    0.107110
Sum of atomic charges:    0.0000000

LOEWDIN ATOMIC CHARGES
----------------------
   0 C :   -0.000085
   1 O :   -0.000710
   2 H :   -0.008460
   3 H :   -0.000001
   4 H :   -0.000012
   5 H :   -0.000001
   6 C :   -0.425577
   7 O :   -0.051005
   8 H :    0.199202
   9 H :    0.090076
  10 H :    0.089011
  11 H :    0.107560

  Mayer bond orders larger than 0.1
B(  6-C ,  7-O ) :   1.0184 B(  6-C ,  9-H ) :   0.9765 B(  6-C , 10-H ) :   0.9944
B(  6-C , 11-H ) :   0.9753 B(  7-O ,  8-H ) :   0.8911

Dispersion correction           -0.000222022
FINAL SINGLE POINT ENERGY      -115.729485701463

DIPOLE MOMENT
-------------
                                X             Y             Z
Electronic contribution:     -0.00855       1.64424      -0.85446
Nuclear contribution   :      0.39042      -1.74956       1.41929
                        -----------------------------------------
Total Dipole Moment    :      0.38187      -0.10533       0.56483
                        -----------------------------------------
Magnitude (a.u.)       :      0.68990
Magnitude (Debye)      :      1.75358

Rotational constants in cm-1:     4.365142     0.881627     0.843496
Rotational constants in MHz : 130863.672544 26430.520499 25287.372563

                             ****ORCA TERMINATED NORMALLY****
TOTAL RUN TIME: 0 days 0 hours 1 minutes 6 seconds 609 msec
