                         Program Version 4.1.2  - RELEASE  -
|  1> #Run DFT-D3 single point of the dimer
|  2> ! wB97X-D3 def2-TZVP TIGHTSCF CHELPG PMODEL PAL8
|  3>
|  4> %base "10-51_DFT_AB"
|  5>
|  6> %scf
|  7> MaxIter 1000
|  8> end
|  9>
| 10> * xyz 0 1
| 11>   C                      6.640702             1.118679             1.001048
| 12>   O                      7.266035             -0.143782            1.123999
| 13>   H                      7.994274             -0.063849            0.473445
| 14>   H                      5.730766             1.058960             0.469523
| 15>   H                      6.333335             1.429739             2.003741
| 16>   H                      7.222567             1.942048             0.618447
| 17>   C                      7.606595             4.414576             2.850258
| 18>   O                      8.584680             3.451447             2.526812
| 19>   H                      9.147853             3.817140             1.872228
| 20>   H                      6.850071             3.910598             3.460632
| 21>   H                      8.080558             5.189829             3.457271
| 22>   H                      7.230457             4.795250             1.917637
| 23> *
| 24>
| 25> #Run DFT-D3 single point of the molecule with dimer basis set
| 26> $new_job
| 27> %base "10-51_DFT_A"
| 28> ! wB97X-D3 def2-TZVP TIGHTSCF CHELPG PMODEL
| 29>
| 30> %scf
| 31> MaxIter 1000
| 32> end
| 33>
| 34> * xyz 0 1
| 35>   C                      6.640702             1.118679             1.001048
| 36>   O                      7.266035             -0.143782            1.123999
| 37>   H                      7.994274             -0.063849            0.473445
| 38>   H                      5.730766             1.058960             0.469523
| 39>   H                      6.333335             1.429739             2.003741
| 40>   H                      7.222567             1.942048             0.618447
| 41>   C                    : 7.606595             4.414576             2.850258
| 42>   O                    : 8.584680             3.451447             2.526812
| 43>   H                    : 9.147853             3.817140             1.872228
| 44>   H                    : 6.850071             3.910598             3.460632
| 45>   H                    : 8.080558             5.189829             3.457271
| 46>   H                    : 7.230457             4.795250             1.917637
| 47> *
| 48>
| 49> #Run DFT-D3 single point of the particle with dimer basis set
| 50> $new_job
| 51> %base "10-51_DFT_B"
| 52> ! wB97X-D3 def2-TZVP TIGHTSCF CHELPG PMODEL
| 53>
| 54> %scf
| 55> MaxIter 1000
| 56> end
| 57>
| 58> * xyz 0 1
| 59>   C                    : 6.640702             1.118679             1.001048
| 60>   O                    : 7.266035             -0.143782            1.123999
| 61>   H                    : 7.994274             -0.063849            0.473445
| 62>   H                    : 5.730766             1.058960             0.469523
| 63>   H                    : 6.333335             1.429739             2.003741
| 64>   H                    : 7.222567             1.942048             0.618447
| 65>   C                      7.606595             4.414576             2.850258
| 66>   O                      8.584680             3.451447             2.526812
| 67>   H                      9.147853             3.817140             1.872228
| 68>   H                      6.850071             3.910598             3.460632
| 69>   H                      8.080558             5.189829             3.457271
| 70>   H                      7.230457             4.795250             1.917637
| 71> *
| 72>
| 73>                          ****END OF INPUT****
 Total Charge           Charge          ....    0
 Multiplicity           Mult            ....    1
 Number of Electrons    NEL             ....   36
Dispersion correction           -0.001841640
FINAL SINGLE POINT ENERGY      -231.466857471638
Dispersion correction           -0.000239590
FINAL SINGLE POINT ENERGY      -115.731289889780

CARTESIAN COORDINATES (ANGSTROEM)
---------------------------------
  C      6.640702    1.118679    1.001048
  O      7.266035   -0.143782    1.123999
  H      7.994274   -0.063849    0.473445
  H      5.730766    1.058960    0.469523
  H      6.333335    1.429739    2.003741
  H      7.222567    1.942048    0.618447
  C      7.606595    4.414576    2.850258
  O      8.584680    3.451447    2.526812
  H      9.147853    3.817140    1.872228
  H      6.850071    3.910598    3.460632
  H      8.080558    5.189829    3.457271
  H      7.230457    4.795250    1.917637

 Multiplicity           Mult            ....    1
 Number of Electrons    NEL             ....   18
 Basis Dimension        Dim             ....  172

ORBITAL ENERGIES
----------------

  NO   OCC          E(Eh)            E(eV)
   0   2.0000     -19.223080      -523.0866
   1   2.0000     -10.310849      -280.5725
   2   2.0000      -1.140551       -31.0360
   3   2.0000      -0.796367       -21.6702
   4   2.0000      -0.611400       -16.6371
   5   2.0000      -0.550096       -14.9689
   6   2.0000      -0.528783       -14.3889
   7   2.0000      -0.433279       -11.7901
   8   2.0000      -0.371158       -10.0997
   9   0.0000       0.093578         2.5464
  10   0.0000       0.126846         3.4517
  11   0.0000       0.154546         4.2054
  12   0.0000       0.184201         5.0124
  13   0.0000       0.186142         5.0652

MULLIKEN ATOMIC CHARGES
-----------------------
   0 C :    0.013757
   1 O :   -0.000594
   2 H :   -0.000240
   3 H :   -0.000556
   4 H :   -0.003259
   5 H :   -0.016380
   6 C :   -0.151814
   7 O :   -0.475492
   8 H :    0.307637
   9 H :    0.120493
  10 H :    0.104369
  11 H :    0.102079
Sum of atomic charges:   -0.0000000

LOEWDIN ATOMIC CHARGES
----------------------
   0 C :   -0.008669
   1 O :   -0.000030
   2 H :   -0.000100
   3 H :   -0.000100
   4 H :   -0.001721
   5 H :   -0.007310
   6 C :   -0.376059
   7 O :   -0.058130
   8 H :    0.152171
   9 H :    0.110848
  10 H :    0.096195
  11 H :    0.092906

  Mayer bond orders larger than 0.1
B(  6-C ,  7-O ) :   0.9783 B(  6-C ,  9-H ) :   0.9755 B(  6-C , 10-H ) :   0.9753
B(  6-C , 11-H ) :   0.9864 B(  7-O ,  8-H ) :   0.9058

Dispersion correction           -0.000209428
FINAL SINGLE POINT ENERGY      -115.734963916703

DIPOLE MOMENT
-------------
                                X             Y             Z
Electronic contribution:      1.07255      -1.21773      -0.31653
Nuclear contribution   :     -1.10208       1.84224       0.03543
                        -----------------------------------------
Total Dipole Moment    :     -0.02952       0.62451      -0.28110
                        -----------------------------------------
Magnitude (a.u.)       :      0.68549
Magnitude (Debye)      :      1.74239

Rotational constants in cm-1:     4.229168     0.852486     0.821061
Rotational constants in MHz : 126787.267487 25556.874616 24614.802124

                             ****ORCA TERMINATED NORMALLY****
TOTAL RUN TIME: 0 days 0 hours 1 minutes 6 seconds 545 msec
