                         Program Version 4.1.2  - RELEASE  -
|  1> #Run DFT-D3 single point of the dimer
|  2> ! wB97X-D3 def2-TZVP TIGHTSCF CHELPG PMODEL PAL8
|  3>
|  4> %base "9-161_DFT_AB"
|  5>
|  6> %scf
|  7> MaxIter 1000
|  8> end
|  9>
| 10> * xyz 0 1
| 11>   C                      -3.437521            1.743393             9.429279
| 12>   O                      -2.392920            2.601094             8.968135
| 13>   H                      -2.789431            3.445956             8.752653
| 14>   H                      -3.842162            2.153886             10.347907
| 15>   H                      -4.226505            1.590673             8.576255
| 16>   H                      -3.060894            0.726974             9.753936
| 17>   C                      -3.634617            5.482813             6.223014
| 18>   O                      -3.845451            4.558936             7.253444
| 19>   H                      -3.837731            5.120619             8.113329
| 20>   H                      -2.854401            6.247456             6.538076
| 21>   H                      -3.288832            4.977465             5.315011
| 22>   H                      -4.539207            5.985702             5.839303
| 23> *
| 24>
| 25> #Run DFT-D3 single point of the molecule with dimer basis set
| 26> $new_job
| 27> %base "9-161_DFT_A"
| 28> ! wB97X-D3 def2-TZVP TIGHTSCF CHELPG PMODEL
| 29>
| 30> %scf
| 31> MaxIter 1000
| 32> end
| 33>
| 34> * xyz 0 1
| 35>   C                      -3.437521            1.743393             9.429279
| 36>   O                      -2.392920            2.601094             8.968135
| 37>   H                      -2.789431            3.445956             8.752653
| 38>   H                      -3.842162            2.153886             10.347907
| 39>   H                      -4.226505            1.590673             8.576255
| 40>   H                      -3.060894            0.726974             9.753936
| 41>   C                    : -3.634617            5.482813             6.223014
| 42>   O                    : -3.845451            4.558936             7.253444
| 43>   H                    : -3.837731            5.120619             8.113329
| 44>   H                    : -2.854401            6.247456             6.538076
| 45>   H                    : -3.288832            4.977465             5.315011
| 46>   H                    : -4.539207            5.985702             5.839303
| 47> *
| 48>
| 49> #Run DFT-D3 single point of the particle with dimer basis set
| 50> $new_job
| 51> %base "9-161_DFT_B"
| 52> ! wB97X-D3 def2-TZVP TIGHTSCF CHELPG PMODEL
| 53>
| 54> %scf
| 55> MaxIter 1000
| 56> end
| 57>
| 58> * xyz 0 1
| 59>   C                    : -3.437521            1.743393             9.429279
| 60>   O                    : -2.392920            2.601094             8.968135
| 61>   H                    : -2.789431            3.445956             8.752653
| 62>   H                    : -3.842162            2.153886             10.347907
| 63>   H                    : -4.226505            1.590673             8.576255
| 64>   H                    : -3.060894            0.726974             9.753936
| 65>   C                      -3.634617            5.482813             6.223014
| 66>   O                      -3.845451            4.558936             7.253444
| 67>   H                      -3.837731            5.120619             8.113329
| 68>   H                      -2.854401            6.247456             6.538076
| 69>   H                      -3.288832            4.977465             5.315011
| 70>   H                      -4.539207            5.985702             5.839303
| 71> *
| 72>
| 73>                          ****END OF INPUT****
 Total Charge           Charge          ....    0
 Multiplicity           Mult            ....    1
 Number of Electrons    NEL             ....   36
Dispersion correction           -0.001581576
FINAL SINGLE POINT ENERGY      -231.461966132083
Dispersion correction           -0.000254101
FINAL SINGLE POINT ENERGY      -115.730973728714

CARTESIAN COORDINATES (ANGSTROEM)
---------------------------------
  C     -3.437521    1.743393    9.429279
  O     -2.392920    2.601094    8.968135
  H     -2.789431    3.445956    8.752653
  H     -3.842162    2.153886   10.347907
  H     -4.226505    1.590673    8.576255
  H     -3.060894    0.726974    9.753936
  C     -3.634617    5.482813    6.223014
  O     -3.845451    4.558936    7.253444
  H     -3.837731    5.120619    8.113329
  H     -2.854401    6.247456    6.538076
  H     -3.288832    4.977465    5.315011
  H     -4.539207    5.985702    5.839303

 Multiplicity           Mult            ....    1
 Number of Electrons    NEL             ....   18
 Basis Dimension        Dim             ....  172

ORBITAL ENERGIES
----------------

  NO   OCC          E(Eh)            E(eV)
   0   2.0000     -19.240777      -523.5682
   1   2.0000     -10.317265      -280.7471
   2   2.0000      -1.133545       -30.8453
   3   2.0000      -0.785899       -21.3854
   4   2.0000      -0.604289       -16.4436
   5   2.0000      -0.543268       -14.7831
   6   2.0000      -0.526427       -14.3248
   7   2.0000      -0.431716       -11.7476
   8   2.0000      -0.372460       -10.1351
   9   0.0000       0.090341         2.4583
  10   0.0000       0.118404         3.2219
  11   0.0000       0.151386         4.1194
  12   0.0000       0.194158         5.2833
  13   0.0000       0.194947         5.3048

MULLIKEN ATOMIC CHARGES
-----------------------
   0 C :    0.003464
   1 O :    0.005732
   2 H :   -0.023894
   3 H :   -0.000273
   4 H :   -0.002389
   5 H :   -0.000046
   6 C :   -0.174172
   7 O :   -0.445506
   8 H :    0.322146
   9 H :    0.098554
  10 H :    0.117911
  11 H :    0.098473
Sum of atomic charges:    0.0000000

LOEWDIN ATOMIC CHARGES
----------------------
   0 C :   -0.003101
   1 O :   -0.004551
   2 H :   -0.026589
   3 H :   -0.000046
   4 H :   -0.001433
   5 H :   -0.000028
   6 C :   -0.415569
   7 O :   -0.065938
   8 H :    0.214605
   9 H :    0.102200
  10 H :    0.105936
  11 H :    0.094515

  Mayer bond orders larger than 0.1
B(  6-C ,  7-O ) :   1.0113 B(  6-C ,  9-H ) :   0.9821 B(  6-C , 10-H ) :   0.9775
B(  6-C , 11-H ) :   0.9642 B(  7-O ,  8-H ) :   0.8872

Dispersion correction           -0.000250581
FINAL SINGLE POINT ENERGY      -115.729960282155

DIPOLE MOMENT
-------------
                                X             Y             Z
Electronic contribution:     -0.32840      -1.37577       1.28248
Nuclear contribution   :      0.40849       2.05215      -1.17428
                        -----------------------------------------
Total Dipole Moment    :      0.08009       0.67638       0.10820
                        -----------------------------------------
Magnitude (a.u.)       :      0.68964
Magnitude (Debye)      :      1.75294

Rotational constants in cm-1:     4.105093     0.840087     0.800853
Rotational constants in MHz : 123067.577509 25185.174065 24008.963662

                             ****ORCA TERMINATED NORMALLY****
TOTAL RUN TIME: 0 days 0 hours 0 minutes 45 seconds 361 msec
