                         Program Version 4.1.2  - RELEASE  -
|  1> #Run DFT-D3 single point of the dimer
|  2> ! wB97X-D3 def2-TZVP TIGHTSCF CHELPG PMODEL PAL8
|  3>
|  4> %base "6-45_DFT_AB"
|  5>
|  6> %scf
|  7> MaxIter 1000
|  8> end
|  9>
| 10> * xyz 0 1
| 11>   C                      -8.806139            -3.804200            -0.537785
| 12>   O                      -9.024071            -2.496550            -1.017201
| 13>   H                      -9.353899            -2.559543            -1.944128
| 14>   H                      -8.922862            -3.712289            0.568426
| 15>   H                      -9.480058            -4.616308            -0.979368
| 16>   H                      -7.833328            -4.174835            -0.732438
| 17>   C                      -10.357683           -0.084677            -0.253793
| 18>   O                      -9.776782            -0.685714            0.902436
| 19>   H                      -9.322493            -1.494436            0.622660
| 20>   H                      -10.958135           0.874211             0.006161
| 21>   H                      -9.623629            -0.086504            -1.114253
| 22>   H                      -11.087415           -0.760737            -0.628077
| 23> *
| 24>
| 25> #Run DFT-D3 single point of the molecule with dimer basis set
| 26> $new_job
| 27> %base "6-45_DFT_A"
| 28> ! wB97X-D3 def2-TZVP TIGHTSCF CHELPG PMODEL
| 29>
| 30> %scf
| 31> MaxIter 1000
| 32> end
| 33>
| 34> * xyz 0 1
| 35>   C                      -8.806139            -3.804200            -0.537785
| 36>   O                      -9.024071            -2.496550            -1.017201
| 37>   H                      -9.353899            -2.559543            -1.944128
| 38>   H                      -8.922862            -3.712289            0.568426
| 39>   H                      -9.480058            -4.616308            -0.979368
| 40>   H                      -7.833328            -4.174835            -0.732438
| 41>   C                    : -10.357683           -0.084677            -0.253793
| 42>   O                    : -9.776782            -0.685714            0.902436
| 43>   H                    : -9.322493            -1.494436            0.622660
| 44>   H                    : -10.958135           0.874211             0.006161
| 45>   H                    : -9.623629            -0.086504            -1.114253
| 46>   H                    : -11.087415           -0.760737            -0.628077
| 47> *
| 48>
| 49> #Run DFT-D3 single point of the particle with dimer basis set
| 50> $new_job
| 51> %base "6-45_DFT_B"
| 52> ! wB97X-D3 def2-TZVP TIGHTSCF CHELPG PMODEL
| 53>
| 54> %scf
| 55> MaxIter 1000
| 56> end
| 57>
| 58> * xyz 0 1
| 59>   C                    : -8.806139            -3.804200            -0.537785
| 60>   O                    : -9.024071            -2.496550            -1.017201
| 61>   H                    : -9.353899            -2.559543            -1.944128
| 62>   H                    : -8.922862            -3.712289            0.568426
| 63>   H                    : -9.480058            -4.616308            -0.979368
| 64>   H                    : -7.833328            -4.174835            -0.732438
| 65>   C                      -10.357683           -0.084677            -0.253793
| 66>   O                      -9.776782            -0.685714            0.902436
| 67>   H                      -9.322493            -1.494436            0.622660
| 68>   H                      -10.958135           0.874211             0.006161
| 69>   H                      -9.623629            -0.086504            -1.114253
| 70>   H                      -11.087415           -0.760737            -0.628077
| 71> *
| 72>
| 73>                          ****END OF INPUT****
 Total Charge           Charge          ....    0
 Multiplicity           Mult            ....    1
 Number of Electrons    NEL             ....   36
Dispersion correction           -0.002118662
FINAL SINGLE POINT ENERGY      -231.461142370401
Dispersion correction           -0.000258192
FINAL SINGLE POINT ENERGY      -115.732179699658

CARTESIAN COORDINATES (ANGSTROEM)
---------------------------------
  C     -8.806139   -3.804200   -0.537785
  O     -9.024071   -2.496550   -1.017201
  H     -9.353899   -2.559543   -1.944128
  H     -8.922862   -3.712289    0.568426
  H     -9.480058   -4.616308   -0.979368
  H     -7.833328   -4.174835   -0.732438
  C    -10.357683   -0.084677   -0.253793
  O     -9.776782   -0.685714    0.902436
  H     -9.322493   -1.494436    0.622660
  H    -10.958135    0.874211    0.006161
  H     -9.623629   -0.086504   -1.114253
  H    -11.087415   -0.760737   -0.628077

 Multiplicity           Mult            ....    1
 Number of Electrons    NEL             ....   18
 Basis Dimension        Dim             ....  172

ORBITAL ENERGIES
----------------

  NO   OCC          E(Eh)            E(eV)
   0   2.0000     -19.230397      -523.2857
   1   2.0000     -10.322253      -280.8828
   2   2.0000      -1.131122       -30.7794
   3   2.0000      -0.790528       -21.5114
   4   2.0000      -0.610950       -16.6248
   5   2.0000      -0.535793       -14.5797
   6   2.0000      -0.519226       -14.1289
   7   2.0000      -0.437281       -11.8990
   8   2.0000      -0.367440        -9.9985
   9   0.0000       0.068213         1.8562
  10   0.0000       0.130892         3.5618
  11   0.0000       0.144394         3.9292
  12   0.0000       0.176821         4.8115
  13   0.0000       0.183987         5.0065

MULLIKEN ATOMIC CHARGES
-----------------------
   0 C :   -0.001274
   1 O :   -0.006218
   2 H :   -0.000494
   3 H :   -0.002135
   4 H :    0.000126
   5 H :   -0.000024
   6 C :   -0.182114
   7 O :   -0.477847
   8 H :    0.321094
   9 H :    0.134529
  10 H :    0.102304
  11 H :    0.112052
Sum of atomic charges:    0.0000000

LOEWDIN ATOMIC CHARGES
----------------------
   0 C :   -0.007360
   1 O :   -0.025980
   2 H :   -0.002316
   3 H :   -0.002880
   4 H :   -0.000082
   5 H :   -0.000126
   6 C :   -0.381481
   7 O :   -0.081075
   8 H :    0.182617
   9 H :    0.125748
  10 H :    0.104674
  11 H :    0.088261

  Mayer bond orders larger than 0.1
B(  6-C ,  7-O ) :   0.9815 B(  6-C ,  9-H ) :   0.9643 B(  6-C , 10-H ) :   0.9804
B(  6-C , 11-H ) :   0.9819 B(  7-O ,  8-H ) :   0.9003

Dispersion correction           -0.000238867
FINAL SINGLE POINT ENERGY      -115.725783956204

DIPOLE MOMENT
-------------
                                X             Y             Z
Electronic contribution:      0.73360      -0.49851       1.59706
Nuclear contribution   :     -0.72430       0.19657      -2.23856
                        -----------------------------------------
Total Dipole Moment    :      0.00930      -0.30195      -0.64149
                        -----------------------------------------
Magnitude (a.u.)       :      0.70906
Magnitude (Debye)      :      1.80230

Rotational constants in cm-1:     4.105494     0.829015     0.776293
Rotational constants in MHz : 123079.622772 24853.242165 23272.665485

                             ****ORCA TERMINATED NORMALLY****
TOTAL RUN TIME: 0 days 0 hours 1 minutes 1 seconds 715 msec
