                         Program Version 4.1.2  - RELEASE  -
|  1> #Run DFT-D3 single point of the dimer
|  2> ! wB97X-D3 def2-TZVP TIGHTSCF CHELPG PMODEL PAL8
|  3>
|  4> %base "17-70_DFT_AB"
|  5>
|  6> %scf
|  7> MaxIter 1000
|  8> end
|  9>
| 10> * xyz 0 1
| 11>   C                      3.428928             8.666497             5.285069
| 12>   O                      4.762131             8.230754             5.347500
| 13>   H                      4.851017             7.570642             4.577961
| 14>   H                      3.003292             8.738284             4.342669
| 15>   H                      2.793504             7.932422             5.811546
| 16>   H                      3.320919             9.639837             5.807513
| 17>   C                      6.870929             10.309849            3.730294
| 18>   O                      7.320224             9.500413             4.881106
| 19>   H                      6.573655             9.197473             5.436691
| 20>   H                      7.741335             10.524060            3.041591
| 21>   H                      6.106281             9.767797             3.153660
| 22>   H                      6.432871             11.222993            3.982551
| 23> *
| 24>
| 25> #Run DFT-D3 single point of the molecule with dimer basis set
| 26> $new_job
| 27> %base "17-70_DFT_A"
| 28> ! wB97X-D3 def2-TZVP TIGHTSCF CHELPG PMODEL
| 29>
| 30> %scf
| 31> MaxIter 1000
| 32> end
| 33>
| 34> * xyz 0 1
| 35>   C                      3.428928             8.666497             5.285069
| 36>   O                      4.762131             8.230754             5.347500
| 37>   H                      4.851017             7.570642             4.577961
| 38>   H                      3.003292             8.738284             4.342669
| 39>   H                      2.793504             7.932422             5.811546
| 40>   H                      3.320919             9.639837             5.807513
| 41>   C                    : 6.870929             10.309849            3.730294
| 42>   O                    : 7.320224             9.500413             4.881106
| 43>   H                    : 6.573655             9.197473             5.436691
| 44>   H                    : 7.741335             10.524060            3.041591
| 45>   H                    : 6.106281             9.767797             3.153660
| 46>   H                    : 6.432871             11.222993            3.982551
| 47> *
| 48>
| 49> #Run DFT-D3 single point of the particle with dimer basis set
| 50> $new_job
| 51> %base "17-70_DFT_B"
| 52> ! wB97X-D3 def2-TZVP TIGHTSCF CHELPG PMODEL
| 53>
| 54> %scf
| 55> MaxIter 1000
| 56> end
| 57>
| 58> * xyz 0 1
| 59>   C                    : 3.428928             8.666497             5.285069
| 60>   O                    : 4.762131             8.230754             5.347500
| 61>   H                    : 4.851017             7.570642             4.577961
| 62>   H                    : 3.003292             8.738284             4.342669
| 63>   H                    : 2.793504             7.932422             5.811546
| 64>   H                    : 3.320919             9.639837             5.807513
| 65>   C                      6.870929             10.309849            3.730294
| 66>   O                      7.320224             9.500413             4.881106
| 67>   H                      6.573655             9.197473             5.436691
| 68>   H                      7.741335             10.524060            3.041591
| 69>   H                      6.106281             9.767797             3.153660
| 70>   H                      6.432871             11.222993            3.982551
| 71> *
| 72>
| 73>                          ****END OF INPUT****
 Total Charge           Charge          ....    0
 Multiplicity           Mult            ....    1
 Number of Electrons    NEL             ....   36
Dispersion correction           -0.002010461
FINAL SINGLE POINT ENERGY      -231.467215116642
Dispersion correction           -0.000231716
FINAL SINGLE POINT ENERGY      -115.729935529405

CARTESIAN COORDINATES (ANGSTROEM)
---------------------------------
  C      3.428928    8.666497    5.285069
  O      4.762131    8.230754    5.347500
  H      4.851017    7.570642    4.577961
  H      3.003292    8.738284    4.342669
  H      2.793504    7.932422    5.811546
  H      3.320919    9.639837    5.807513
  C      6.870929   10.309849    3.730294
  O      7.320224    9.500413    4.881106
  H      6.573655    9.197473    5.436691
  H      7.741335   10.524060    3.041591
  H      6.106281    9.767797    3.153660
  H      6.432871   11.222993    3.982551

 Multiplicity           Mult            ....    1
 Number of Electrons    NEL             ....   18
 Basis Dimension        Dim             ....  172

ORBITAL ENERGIES
----------------

  NO   OCC          E(Eh)            E(eV)
   0   2.0000     -19.231473      -523.3150
   1   2.0000     -10.318873      -280.7908
   2   2.0000      -1.112031       -30.2599
   3   2.0000      -0.800413       -21.7804
   4   2.0000      -0.601685       -16.3727
   5   2.0000      -0.534856       -14.5542
   6   2.0000      -0.518029       -14.0963
   7   2.0000      -0.432648       -11.7729
   8   2.0000      -0.375974       -10.2308
   9   0.0000       0.069198         1.8830
  10   0.0000       0.131365         3.5746
  11   0.0000       0.143760         3.9119
  12   0.0000       0.159873         4.3504
  13   0.0000       0.192447         5.2368

MULLIKEN ATOMIC CHARGES
-----------------------
   0 C :   -0.000171
   1 O :   -0.006599
   2 H :   -0.001279
   3 H :   -0.000291
   4 H :    0.000033
   5 H :   -0.000219
   6 C :   -0.171503
   7 O :   -0.491873
   8 H :    0.318309
   9 H :    0.129007
  10 H :    0.108946
  11 H :    0.115641
Sum of atomic charges:    0.0000000

LOEWDIN ATOMIC CHARGES
----------------------
   0 C :   -0.002618
   1 O :   -0.017789
   2 H :   -0.002580
   3 H :   -0.000151
   4 H :   -0.000048
   5 H :   -0.000178
   6 C :   -0.337628
   7 O :   -0.119069
   8 H :    0.178823
   9 H :    0.119157
  10 H :    0.098337
  11 H :    0.083745

  Mayer bond orders larger than 0.1
B(  6-C ,  7-O ) :   0.9877 B(  6-C ,  9-H ) :   0.9724 B(  6-C , 10-H ) :   0.9769
B(  6-C , 11-H ) :   0.9720 B(  7-O ,  8-H ) :   0.8970

Dispersion correction           -0.000284292
FINAL SINGLE POINT ENERGY      -115.730464100683

DIPOLE MOMENT
-------------
                                X             Y             Z
Electronic contribution:      0.68236      -0.89863       1.42320
Nuclear contribution   :     -1.35459       1.07869      -1.57956
                        -----------------------------------------
Total Dipole Moment    :     -0.67222       0.18006      -0.15636
                        -----------------------------------------
Magnitude (a.u.)       :      0.71327
Magnitude (Debye)      :      1.81299

Rotational constants in cm-1:     4.372679     0.767256     0.735839
Rotational constants in MHz : 131089.609413 23001.755186 22059.902006

                             ****ORCA TERMINATED NORMALLY****
TOTAL RUN TIME: 0 days 0 hours 1 minutes 11 seconds 943 msec
