                         Program Version 4.1.2  - RELEASE  -
|  1> #Run DFT-D3 single point of the dimer
|  2> ! wB97X-D3 def2-TZVP TIGHTSCF CHELPG PMODEL PAL8
|  3>
|  4> %base "10-202_DFT_AB"
|  5>
|  6> %scf
|  7> MaxIter 1000
|  8> end
|  9>
| 10> * xyz 0 1
| 11>   C                      -3.872528            2.001226             10.864595
| 12>   O                      -3.736998            1.696973             9.499086
| 13>   H                      -3.554987            0.750151             9.587223
| 14>   H                      -4.390555            1.165372             11.388547
| 15>   H                      -3.011502            2.207887             11.433390
| 16>   H                      -4.542137            2.906519             11.106688
| 17>   C                      0.385960             1.349603             7.814121
| 18>   O                      -0.814555            1.056607             8.403355
| 19>   H                      -1.465594            1.256166             7.692833
| 20>   H                      1.205564             1.115922             8.515013
| 21>   H                      0.511018             0.734252             6.885752
| 22>   H                      0.507898             2.408019             7.581483
| 23> *
| 24>
| 25> #Run DFT-D3 single point of the molecule with dimer basis set
| 26> $new_job
| 27> %base "10-202_DFT_A"
| 28> ! wB97X-D3 def2-TZVP TIGHTSCF CHELPG PMODEL
| 29>
| 30> %scf
| 31> MaxIter 1000
| 32> end
| 33>
| 34> * xyz 0 1
| 35>   C                      -3.872528            2.001226             10.864595
| 36>   O                      -3.736998            1.696973             9.499086
| 37>   H                      -3.554987            0.750151             9.587223
| 38>   H                      -4.390555            1.165372             11.388547
| 39>   H                      -3.011502            2.207887             11.433390
| 40>   H                      -4.542137            2.906519             11.106688
| 41>   C                    : 0.385960             1.349603             7.814121
| 42>   O                    : -0.814555            1.056607             8.403355
| 43>   H                    : -1.465594            1.256166             7.692833
| 44>   H                    : 1.205564             1.115922             8.515013
| 45>   H                    : 0.511018             0.734252             6.885752
| 46>   H                    : 0.507898             2.408019             7.581483
| 47> *
| 48>
| 49> #Run DFT-D3 single point of the particle with dimer basis set
| 50> $new_job
| 51> %base "10-202_DFT_B"
| 52> ! wB97X-D3 def2-TZVP TIGHTSCF CHELPG PMODEL
| 53>
| 54> %scf
| 55> MaxIter 1000
| 56> end
| 57>
| 58> * xyz 0 1
| 59>   C                    : -3.872528            2.001226             10.864595
| 60>   O                    : -3.736998            1.696973             9.499086
| 61>   H                    : -3.554987            0.750151             9.587223
| 62>   H                    : -4.390555            1.165372             11.388547
| 63>   H                    : -3.011502            2.207887             11.433390
| 64>   H                    : -4.542137            2.906519             11.106688
| 65>   C                      0.385960             1.349603             7.814121
| 66>   O                      -0.814555            1.056607             8.403355
| 67>   H                      -1.465594            1.256166             7.692833
| 68>   H                      1.205564             1.115922             8.515013
| 69>   H                      0.511018             0.734252             6.885752
| 70>   H                      0.507898             2.408019             7.581483
| 71> *
| 72>
| 73>                          ****END OF INPUT****
 Total Charge           Charge          ....    0
 Multiplicity           Mult            ....    1
 Number of Electrons    NEL             ....   36
Dispersion correction           -0.001288102
FINAL SINGLE POINT ENERGY      -231.462375056256
Dispersion correction           -0.000239851
FINAL SINGLE POINT ENERGY      -115.726575372207

CARTESIAN COORDINATES (ANGSTROEM)
---------------------------------
  C     -3.872528    2.001226   10.864595
  O     -3.736998    1.696973    9.499086
  H     -3.554987    0.750151    9.587223
  H     -4.390555    1.165372   11.388547
  H     -3.011502    2.207887   11.433390
  H     -4.542137    2.906519   11.106688
  C      0.385960    1.349603    7.814121
  O     -0.814555    1.056607    8.403355
  H     -1.465594    1.256166    7.692833
  H      1.205564    1.115922    8.515013
  H      0.511018    0.734252    6.885752
  H      0.507898    2.408019    7.581483

 Multiplicity           Mult            ....    1
 Number of Electrons    NEL             ....   18
 Basis Dimension        Dim             ....  172

ORBITAL ENERGIES
----------------

  NO   OCC          E(Eh)            E(eV)
   0   2.0000     -19.234738      -523.4038
   1   2.0000     -10.311985      -280.6034
   2   2.0000      -1.151400       -31.3312
   3   2.0000      -0.786378       -21.3984
   4   2.0000      -0.615295       -16.7430
   5   2.0000      -0.549812       -14.9611
   6   2.0000      -0.530874       -14.4458
   7   2.0000      -0.432372       -11.7654
   8   2.0000      -0.371755       -10.1160
   9   0.0000       0.091876         2.5001
  10   0.0000       0.116644         3.1741
  11   0.0000       0.153253         4.1702
  12   0.0000       0.190318         5.1788
  13   0.0000       0.199429         5.4267

MULLIKEN ATOMIC CHARGES
-----------------------
   0 C :   -0.001794
   1 O :    0.000235
   2 H :   -0.001241
   3 H :    0.000016
   4 H :   -0.000669
   5 H :   -0.000007
   6 C :   -0.164138
   7 O :   -0.451415
   8 H :    0.318946
   9 H :    0.113590
  10 H :    0.091343
  11 H :    0.095135
Sum of atomic charges:    0.0000000

LOEWDIN ATOMIC CHARGES
----------------------
   0 C :   -0.001654
   1 O :   -0.002869
   2 H :   -0.002477
   3 H :   -0.000019
   4 H :   -0.000365
   5 H :   -0.000016
   6 C :   -0.431317
   7 O :   -0.049123
   8 H :    0.191508
   9 H :    0.109568
  10 H :    0.096822
  11 H :    0.089942

  Mayer bond orders larger than 0.1
B(  6-C ,  7-O ) :   1.0075 B(  6-C ,  9-H ) :   0.9735 B(  6-C , 10-H ) :   0.9817
B(  6-C , 11-H ) :   0.9723 B(  7-O ,  8-H ) :   0.8936

Dispersion correction           -0.000211844
FINAL SINGLE POINT ENERGY      -115.733768230225

DIPOLE MOMENT
-------------
                                X             Y             Z
Electronic contribution:     -1.55698      -0.41149       0.94218
Nuclear contribution   :      1.59721       0.64188      -1.57628
                        -----------------------------------------
Total Dipole Moment    :      0.04024       0.23039      -0.63410
                        -----------------------------------------
Magnitude (a.u.)       :      0.67585
Magnitude (Debye)      :      1.71788

Rotational constants in cm-1:     4.141636     0.880183     0.845086
Rotational constants in MHz : 124163.134596 26387.211984 25335.043829

                             ****ORCA TERMINATED NORMALLY****
TOTAL RUN TIME: 0 days 0 hours 1 minutes 5 seconds 872 msec
