                         Program Version 4.1.2  - RELEASE  -
|  1> #Run DFT-D3 single point of the dimer
|  2> ! wB97X-D3 def2-TZVP TIGHTSCF CHELPG PMODEL PAL8
|  3>
|  4> %base "19-99_DFT_AB"
|  5>
|  6> %scf
|  7> MaxIter 1000
|  8> end
|  9>
| 10> * xyz 0 1
| 11>   C                      6.919625             2.237632             2.945838
| 12>   O                      7.105568             3.614791             3.004067
| 13>   H                      7.927648             3.903414             2.617584
| 14>   H                      7.422164             1.719098             3.729250
| 15>   H                      5.841692             1.966989             3.041488
| 16>   H                      7.318918             1.785904             1.953686
| 17>   C                      4.295671             3.733466             0.817341
| 18>   O                      2.897017             3.811469             0.464852
| 19>   H                      2.560319             3.075837             0.969836
| 20>   H                      4.950979             4.390941             0.274118
| 21>   H                      4.439813             4.079853             1.906679
| 22>   H                      4.730280             2.730398             0.723484
| 23> *
| 24>
| 25> #Run DFT-D3 single point of the molecule with dimer basis set
| 26> $new_job
| 27> %base "19-99_DFT_A"
| 28> ! wB97X-D3 def2-TZVP TIGHTSCF CHELPG PMODEL
| 29>
| 30> %scf
| 31> MaxIter 1000
| 32> end
| 33>
| 34> * xyz 0 1
| 35>   C                      6.919625             2.237632             2.945838
| 36>   O                      7.105568             3.614791             3.004067
| 37>   H                      7.927648             3.903414             2.617584
| 38>   H                      7.422164             1.719098             3.729250
| 39>   H                      5.841692             1.966989             3.041488
| 40>   H                      7.318918             1.785904             1.953686
| 41>   C                    : 4.295671             3.733466             0.817341
| 42>   O                    : 2.897017             3.811469             0.464852
| 43>   H                    : 2.560319             3.075837             0.969836
| 44>   H                    : 4.950979             4.390941             0.274118
| 45>   H                    : 4.439813             4.079853             1.906679
| 46>   H                    : 4.730280             2.730398             0.723484
| 47> *
| 48>
| 49> #Run DFT-D3 single point of the particle with dimer basis set
| 50> $new_job
| 51> %base "19-99_DFT_B"
| 52> ! wB97X-D3 def2-TZVP TIGHTSCF CHELPG PMODEL
| 53>
| 54> %scf
| 55> MaxIter 1000
| 56> end
| 57>
| 58> * xyz 0 1
| 59>   C                    : 6.919625             2.237632             2.945838
| 60>   O                    : 7.105568             3.614791             3.004067
| 61>   H                    : 7.927648             3.903414             2.617584
| 62>   H                    : 7.422164             1.719098             3.729250
| 63>   H                    : 5.841692             1.966989             3.041488
| 64>   H                    : 7.318918             1.785904             1.953686
| 65>   C                      4.295671             3.733466             0.817341
| 66>   O                      2.897017             3.811469             0.464852
| 67>   H                      2.560319             3.075837             0.969836
| 68>   H                      4.950979             4.390941             0.274118
| 69>   H                      4.439813             4.079853             1.906679
| 70>   H                      4.730280             2.730398             0.723484
| 71> *
| 72>
| 73>                          ****END OF INPUT****
 Total Charge           Charge          ....    0
 Multiplicity           Mult            ....    1
 Number of Electrons    NEL             ....   36
Dispersion correction           -0.001923427
FINAL SINGLE POINT ENERGY      -231.465206348408
Dispersion correction           -0.000256335
FINAL SINGLE POINT ENERGY      -115.732938045391

CARTESIAN COORDINATES (ANGSTROEM)
---------------------------------
  C      6.919625    2.237632    2.945838
  O      7.105568    3.614791    3.004067
  H      7.927648    3.903414    2.617584
  H      7.422164    1.719098    3.729250
  H      5.841692    1.966989    3.041488
  H      7.318918    1.785904    1.953686
  C      4.295671    3.733466    0.817341
  O      2.897017    3.811469    0.464852
  H      2.560319    3.075837    0.969836
  H      4.950979    4.390941    0.274118
  H      4.439813    4.079853    1.906679
  H      4.730280    2.730398    0.723484

 Multiplicity           Mult            ....    1
 Number of Electrons    NEL             ....   18
 Basis Dimension        Dim             ....  172

ORBITAL ENERGIES
----------------

  NO   OCC          E(Eh)            E(eV)
   0   2.0000     -19.235980      -523.4376
   1   2.0000     -10.321378      -280.8590
   2   2.0000      -1.135882       -30.9089
   3   2.0000      -0.793816       -21.6008
   4   2.0000      -0.604466       -16.4484
   5   2.0000      -0.533143       -14.5076
   6   2.0000      -0.529250       -14.4016
   7   2.0000      -0.444111       -12.0849
   8   2.0000      -0.375656       -10.2221
   9   0.0000       0.078127         2.1259
  10   0.0000       0.115322         3.1381
  11   0.0000       0.152729         4.1560
  12   0.0000       0.163531         4.4499
  13   0.0000       0.176262         4.7963

MULLIKEN ATOMIC CHARGES
-----------------------
   0 C :   -0.002906
   1 O :    0.000472
   2 H :   -0.000009
   3 H :   -0.000221
   4 H :   -0.000794
   5 H :    0.000049
   6 C :   -0.190540
   7 O :   -0.458395
   8 H :    0.315642
   9 H :    0.124855
  10 H :    0.099998
  11 H :    0.111849
Sum of atomic charges:    0.0000000

LOEWDIN ATOMIC CHARGES
----------------------
   0 C :   -0.006644
   1 O :   -0.001702
   2 H :   -0.000126
   3 H :   -0.000062
   4 H :   -0.002824
   5 H :   -0.000564
   6 C :   -0.375769
   7 O :   -0.089086
   8 H :    0.168203
   9 H :    0.102691
  10 H :    0.107329
  11 H :    0.098553

  Mayer bond orders larger than 0.1
B(  6-C ,  7-O ) :   1.0015 B(  6-C ,  9-H ) :   0.9707 B(  6-C , 10-H ) :   0.9766
B(  6-C , 11-H ) :   0.9723 B(  7-O ,  8-H ) :   0.9040

Dispersion correction           -0.000250691
FINAL SINGLE POINT ENERGY      -115.730586796503

DIPOLE MOMENT
-------------
                                X             Y             Z
Electronic contribution:     -1.84617       0.20742      -0.73413
Nuclear contribution   :      2.19952      -0.68396       1.15356
                        -----------------------------------------
Total Dipole Moment    :      0.35335      -0.47654       0.41943
                        -----------------------------------------
Magnitude (a.u.)       :      0.72655
Magnitude (Debye)      :      1.84674

Rotational constants in cm-1:     4.257105     0.796775     0.773613
Rotational constants in MHz : 127624.789402 23886.716620 23192.347661

                             ****ORCA TERMINATED NORMALLY****
TOTAL RUN TIME: 0 days 0 hours 0 minutes 34 seconds 730 msec
