                         Program Version 4.1.2  - RELEASE  -
|  1> #Run DFT-D3 single point of the dimer
|  2> ! wB97X-D3 def2-TZVP TIGHTSCF CHELPG PMODEL PAL8
|  3>
|  4> %base "5-168_DFT_AB"
|  5>
|  6> %scf
|  7> MaxIter 1000
|  8> end
|  9>
| 10> * xyz 0 1
| 11>   C                      1.407148             4.682785             -1.985167
| 12>   O                      0.389347             3.689952             -1.839461
| 13>   H                      0.932256             2.871912             -1.913617
| 14>   H                      2.081969             4.400590             -2.813521
| 15>   H                      0.881962             5.514447             -2.269096
| 16>   H                      1.978033             4.889483             -1.053356
| 17>   C                      -3.990557            2.539850             -3.509310
| 18>   O                      -2.734901            3.263843             -3.827585
| 19>   H                      -2.021103            2.943012             -3.267228
| 20>   H                      -4.692561            2.625681             -4.328184
| 21>   H                      -3.867786            1.490067             -3.387130
| 22>   H                      -4.497912            2.792353             -2.572181
| 23> *
| 24>
| 25> #Run DFT-D3 single point of the molecule with dimer basis set
| 26> $new_job
| 27> %base "5-168_DFT_A"
| 28> ! wB97X-D3 def2-TZVP TIGHTSCF CHELPG PMODEL
| 29>
| 30> %scf
| 31> MaxIter 1000
| 32> end
| 33>
| 34> * xyz 0 1
| 35>   C                      1.407148             4.682785             -1.985167
| 36>   O                      0.389347             3.689952             -1.839461
| 37>   H                      0.932256             2.871912             -1.913617
| 38>   H                      2.081969             4.400590             -2.813521
| 39>   H                      0.881962             5.514447             -2.269096
| 40>   H                      1.978033             4.889483             -1.053356
| 41>   C                    : -3.990557            2.539850             -3.509310
| 42>   O                    : -2.734901            3.263843             -3.827585
| 43>   H                    : -2.021103            2.943012             -3.267228
| 44>   H                    : -4.692561            2.625681             -4.328184
| 45>   H                    : -3.867786            1.490067             -3.387130
| 46>   H                    : -4.497912            2.792353             -2.572181
| 47> *
| 48>
| 49> #Run DFT-D3 single point of the particle with dimer basis set
| 50> $new_job
| 51> %base "5-168_DFT_B"
| 52> ! wB97X-D3 def2-TZVP TIGHTSCF CHELPG PMODEL
| 53>
| 54> %scf
| 55> MaxIter 1000
| 56> end
| 57>
| 58> * xyz 0 1
| 59>   C                    : 1.407148             4.682785             -1.985167
| 60>   O                    : 0.389347             3.689952             -1.839461
| 61>   H                    : 0.932256             2.871912             -1.913617
| 62>   H                    : 2.081969             4.400590             -2.813521
| 63>   H                    : 0.881962             5.514447             -2.269096
| 64>   H                    : 1.978033             4.889483             -1.053356
| 65>   C                      -3.990557            2.539850             -3.509310
| 66>   O                      -2.734901            3.263843             -3.827585
| 67>   H                      -2.021103            2.943012             -3.267228
| 68>   H                      -4.692561            2.625681             -4.328184
| 69>   H                      -3.867786            1.490067             -3.387130
| 70>   H                      -4.497912            2.792353             -2.572181
| 71> *
| 72>
| 73>                          ****END OF INPUT****
 Total Charge           Charge          ....    0
 Multiplicity           Mult            ....    1
 Number of Electrons    NEL             ....   36
Dispersion correction           -0.001056567
FINAL SINGLE POINT ENERGY      -231.462366466798
Dispersion correction           -0.000223118
FINAL SINGLE POINT ENERGY      -115.730250153926

CARTESIAN COORDINATES (ANGSTROEM)
---------------------------------
  C      1.407148    4.682785   -1.985167
  O      0.389347    3.689952   -1.839461
  H      0.932256    2.871912   -1.913617
  H      2.081969    4.400590   -2.813521
  H      0.881962    5.514447   -2.269096
  H      1.978033    4.889483   -1.053356
  C     -3.990557    2.539850   -3.509310
  O     -2.734901    3.263843   -3.827585
  H     -2.021103    2.943012   -3.267228
  H     -4.692561    2.625681   -4.328184
  H     -3.867786    1.490067   -3.387130
  H     -4.497912    2.792353   -2.572181

 Multiplicity           Mult            ....    1
 Number of Electrons    NEL             ....   18
 Basis Dimension        Dim             ....  172

ORBITAL ENERGIES
----------------

  NO   OCC          E(Eh)            E(eV)
   0   2.0000     -19.233594      -523.3727
   1   2.0000     -10.315662      -280.7034
   2   2.0000      -1.115901       -30.3652
   3   2.0000      -0.805906       -21.9298
   4   2.0000      -0.605694       -16.4818
   5   2.0000      -0.528803       -14.3895
   6   2.0000      -0.518703       -14.1146
   7   2.0000      -0.440707       -11.9923
   8   2.0000      -0.377952       -10.2846
   9   0.0000       0.078087         2.1249
  10   0.0000       0.120690         3.2841
  11   0.0000       0.142647         3.8816
  12   0.0000       0.173620         4.7244
  13   0.0000       0.196769         5.3544

MULLIKEN ATOMIC CHARGES
-----------------------
   0 C :   -0.000153
   1 O :   -0.000310
   2 H :   -0.000086
   3 H :    0.000005
   4 H :   -0.000085
   5 H :    0.000003
   6 C :   -0.179926
   7 O :   -0.486111
   8 H :    0.314431
   9 H :    0.128968
  10 H :    0.115045
  11 H :    0.108219
Sum of atomic charges:    0.0000000

LOEWDIN ATOMIC CHARGES
----------------------
   0 C :   -0.000178
   1 O :   -0.001328
   2 H :   -0.000245
   3 H :   -0.000003
   4 H :   -0.000045
   5 H :   -0.000003
   6 C :   -0.338570
   7 O :   -0.120262
   8 H :    0.164178
   9 H :    0.107712
  10 H :    0.091292
  11 H :    0.097451

  Mayer bond orders larger than 0.1
B(  6-C ,  7-O ) :   0.9966 B(  6-C ,  9-H ) :   0.9763 B(  6-C , 10-H ) :   0.9758
B(  6-C , 11-H ) :   0.9676 B(  7-O ,  8-H ) :   0.9007

Dispersion correction           -0.000296156
FINAL SINGLE POINT ENERGY      -115.729426307824

DIPOLE MOMENT
-------------
                                X             Y             Z
Electronic contribution:      1.52961       1.04729      -0.49982
Nuclear contribution   :     -1.61987      -1.60393       0.98952
                        -----------------------------------------
Total Dipole Moment    :     -0.09026      -0.55664       0.48969
                        -----------------------------------------
Magnitude (a.u.)       :      0.74685
Magnitude (Debye)      :      1.89835

Rotational constants in cm-1:     4.560771     0.757101     0.729758
Rotational constants in MHz : 136728.483849 22697.325033 21877.607229

                             ****ORCA TERMINATED NORMALLY****
TOTAL RUN TIME: 0 days 0 hours 0 minutes 51 seconds 310 msec
