                         Program Version 4.1.2  - RELEASE  -
|  1> #Run DFT-D3 single point of the dimer
|  2> ! wB97X-D3 def2-TZVP TIGHTSCF CHELPG PMODEL PAL8
|  3>
|  4> %base "4-5_DFT_AB"
|  5>
|  6> %scf
|  7> MaxIter 1000
|  8> end
|  9>
| 10> * xyz 0 1
| 11>   C                      9.510002             3.753170             -5.325528
| 12>   O                      9.876401             4.225670             -4.068210
| 13>   H                      10.364098            5.018810             -4.265636
| 14>   H                      8.978419             2.857762             -5.197583
| 15>   H                      8.779346             4.325251             -5.874902
| 16>   H                      10.363160            3.582555             -6.031037
| 17>   C                      7.161267             6.953844             -6.328759
| 18>   O                      6.565770             8.249048             -6.450163
| 19>   H                      5.623843             8.067112             -6.211825
| 20>   H                      8.046157             6.925746             -6.902645
| 21>   H                      7.507824             6.780331             -5.271938
| 22>   H                      6.447298             6.227622             -6.655698
| 23> *
| 24>
| 25> #Run DFT-D3 single point of the molecule with dimer basis set
| 26> $new_job
| 27> %base "4-5_DFT_A"
| 28> ! wB97X-D3 def2-TZVP TIGHTSCF CHELPG PMODEL
| 29>
| 30> %scf
| 31> MaxIter 1000
| 32> end
| 33>
| 34> * xyz 0 1
| 35>   C                      9.510002             3.753170             -5.325528
| 36>   O                      9.876401             4.225670             -4.068210
| 37>   H                      10.364098            5.018810             -4.265636
| 38>   H                      8.978419             2.857762             -5.197583
| 39>   H                      8.779346             4.325251             -5.874902
| 40>   H                      10.363160            3.582555             -6.031037
| 41>   C                    : 7.161267             6.953844             -6.328759
| 42>   O                    : 6.565770             8.249048             -6.450163
| 43>   H                    : 5.623843             8.067112             -6.211825
| 44>   H                    : 8.046157             6.925746             -6.902645
| 45>   H                    : 7.507824             6.780331             -5.271938
| 46>   H                    : 6.447298             6.227622             -6.655698
| 47> *
| 48>
| 49> #Run DFT-D3 single point of the particle with dimer basis set
| 50> $new_job
| 51> %base "4-5_DFT_B"
| 52> ! wB97X-D3 def2-TZVP TIGHTSCF CHELPG PMODEL
| 53>
| 54> %scf
| 55> MaxIter 1000
| 56> end
| 57>
| 58> * xyz 0 1
| 59>   C                    : 9.510002             3.753170             -5.325528
| 60>   O                    : 9.876401             4.225670             -4.068210
| 61>   H                    : 10.364098            5.018810             -4.265636
| 62>   H                    : 8.978419             2.857762             -5.197583
| 63>   H                    : 8.779346             4.325251             -5.874902
| 64>   H                    : 10.363160            3.582555             -6.031037
| 65>   C                      7.161267             6.953844             -6.328759
| 66>   O                      6.565770             8.249048             -6.450163
| 67>   H                      5.623843             8.067112             -6.211825
| 68>   H                      8.046157             6.925746             -6.902645
| 69>   H                      7.507824             6.780331             -5.271938
| 70>   H                      6.447298             6.227622             -6.655698
| 71> *
| 72>
| 73>                          ****END OF INPUT****
 Total Charge           Charge          ....    0
 Multiplicity           Mult            ....    1
 Number of Electrons    NEL             ....   36
Dispersion correction           -0.001368319
FINAL SINGLE POINT ENERGY      -231.465278510566
Dispersion correction           -0.000233802
FINAL SINGLE POINT ENERGY      -115.732298952564

CARTESIAN COORDINATES (ANGSTROEM)
---------------------------------
  C      9.510002    3.753170   -5.325528
  O      9.876401    4.225670   -4.068210
  H     10.364098    5.018810   -4.265636
  H      8.978419    2.857762   -5.197583
  H      8.779346    4.325251   -5.874902
  H     10.363160    3.582555   -6.031037
  C      7.161267    6.953844   -6.328759
  O      6.565770    8.249048   -6.450163
  H      5.623843    8.067112   -6.211825
  H      8.046157    6.925746   -6.902645
  H      7.507824    6.780331   -5.271938
  H      6.447298    6.227622   -6.655698

 Multiplicity           Mult            ....    1
 Number of Electrons    NEL             ....   18
 Basis Dimension        Dim             ....  172

ORBITAL ENERGIES
----------------

  NO   OCC          E(Eh)            E(eV)
   0   2.0000     -19.231576      -523.3178
   1   2.0000     -10.310497      -280.5629
   2   2.0000      -1.128802       -30.7163
   3   2.0000      -0.793158       -21.5829
   4   2.0000      -0.604614       -16.4524
   5   2.0000      -0.540329       -14.7031
   6   2.0000      -0.527767       -14.3613
   7   2.0000      -0.441484       -12.0134
   8   2.0000      -0.371195       -10.1007
   9   0.0000       0.082058         2.2329
  10   0.0000       0.110873         3.0170
  11   0.0000       0.155743         4.2380
  12   0.0000       0.160194         4.3591
  13   0.0000       0.185560         5.0493

MULLIKEN ATOMIC CHARGES
-----------------------
   0 C :   -0.002002
   1 O :    0.000180
   2 H :   -0.000032
   3 H :    0.000060
   4 H :    0.002264
   5 H :    0.000035
   6 C :   -0.174517
   7 O :   -0.470705
   8 H :    0.313824
   9 H :    0.123594
  10 H :    0.098288
  11 H :    0.109012
Sum of atomic charges:    0.0000000

LOEWDIN ATOMIC CHARGES
----------------------
   0 C :   -0.001314
   1 O :   -0.000100
   2 H :   -0.000208
   3 H :   -0.000006
   4 H :   -0.001702
   5 H :   -0.000008
   6 C :   -0.372975
   7 O :   -0.102580
   8 H :    0.185908
   9 H :    0.098104
  10 H :    0.102033
  11 H :    0.092848

  Mayer bond orders larger than 0.1
B(  6-C ,  7-O ) :   1.0071 B(  6-C ,  9-H ) :   0.9752 B(  6-C , 10-H ) :   0.9731
B(  6-C , 11-H ) :   0.9832 B(  7-O ,  8-H ) :   0.9015

Dispersion correction           -0.000226292
FINAL SINGLE POINT ENERGY      -115.732073366599

DIPOLE MOMENT
-------------
                                X             Y             Z
Electronic contribution:     -0.60771       1.63850      -0.28663
Nuclear contribution   :      0.27541      -2.26534       0.45029
                        -----------------------------------------
Total Dipole Moment    :     -0.33230      -0.62684       0.16367
                        -----------------------------------------
Magnitude (a.u.)       :      0.72810
Magnitude (Debye)      :      1.85069

Rotational constants in cm-1:     4.188743     0.829574     0.797735
Rotational constants in MHz : 125575.351752 24870.014101 23915.504362

                             ****ORCA TERMINATED NORMALLY****
TOTAL RUN TIME: 0 days 0 hours 1 minutes 24 seconds 972 msec
