                         Program Version 4.1.2  - RELEASE  -
|  1> #Run DFT-D3 single point of the dimer
|  2> ! wB97X-D3 def2-TZVP TIGHTSCF CHELPG PMODEL PAL8
|  3>
|  4> %base "13-87_DFT_AB"
|  5>
|  6> %scf
|  7> MaxIter 1000
|  8> end
|  9>
| 10> * xyz 0 1
| 11>   C                      -2.473489            2.754382             -3.587635
| 12>   O                      -2.443331            4.137999             -3.468418
| 13>   H                      -2.406738            4.647574             -4.288539
| 14>   H                      -1.822514            2.438176             -4.417710
| 15>   H                      -2.095098            2.370439             -2.644488
| 16>   H                      -3.458589            2.327411             -3.868728
| 17>   C                      -0.823305            0.756648             0.372796
| 18>   O                      -1.029271            -0.427082            1.079613
| 19>   H                      -0.643484            -1.120501            0.491262
| 20>   H                      -1.596986            0.832621             -0.419823
| 21>   H                      -0.919272            1.620018             1.035924
| 22>   H                      0.173242             0.883099             0.019278
| 23> *
| 24>
| 25> #Run DFT-D3 single point of the molecule with dimer basis set
| 26> $new_job
| 27> %base "13-87_DFT_A"
| 28> ! wB97X-D3 def2-TZVP TIGHTSCF CHELPG PMODEL
| 29>
| 30> %scf
| 31> MaxIter 1000
| 32> end
| 33>
| 34> * xyz 0 1
| 35>   C                      -2.473489            2.754382             -3.587635
| 36>   O                      -2.443331            4.137999             -3.468418
| 37>   H                      -2.406738            4.647574             -4.288539
| 38>   H                      -1.822514            2.438176             -4.417710
| 39>   H                      -2.095098            2.370439             -2.644488
| 40>   H                      -3.458589            2.327411             -3.868728
| 41>   C                    : -0.823305            0.756648             0.372796
| 42>   O                    : -1.029271            -0.427082            1.079613
| 43>   H                    : -0.643484            -1.120501            0.491262
| 44>   H                    : -1.596986            0.832621             -0.419823
| 45>   H                    : -0.919272            1.620018             1.035924
| 46>   H                    : 0.173242             0.883099             0.019278
| 47> *
| 48>
| 49> #Run DFT-D3 single point of the particle with dimer basis set
| 50> $new_job
| 51> %base "13-87_DFT_B"
| 52> ! wB97X-D3 def2-TZVP TIGHTSCF CHELPG PMODEL
| 53>
| 54> %scf
| 55> MaxIter 1000
| 56> end
| 57>
| 58> * xyz 0 1
| 59>   C                    : -2.473489            2.754382             -3.587635
| 60>   O                    : -2.443331            4.137999             -3.468418
| 61>   H                    : -2.406738            4.647574             -4.288539
| 62>   H                    : -1.822514            2.438176             -4.417710
| 63>   H                    : -2.095098            2.370439             -2.644488
| 64>   H                    : -3.458589            2.327411             -3.868728
| 65>   C                      -0.823305            0.756648             0.372796
| 66>   O                      -1.029271            -0.427082            1.079613
| 67>   H                      -0.643484            -1.120501            0.491262
| 68>   H                      -1.596986            0.832621             -0.419823
| 69>   H                      -0.919272            1.620018             1.035924
| 70>   H                      0.173242             0.883099             0.019278
| 71> *
| 72>
| 73>                          ****END OF INPUT****
 Total Charge           Charge          ....    0
 Multiplicity           Mult            ....    1
 Number of Electrons    NEL             ....   36
Dispersion correction           -0.000928844
FINAL SINGLE POINT ENERGY      -231.466439476953
Dispersion correction           -0.000251151
FINAL SINGLE POINT ENERGY      -115.733392477953

CARTESIAN COORDINATES (ANGSTROEM)
---------------------------------
  C     -2.473489    2.754382   -3.587635
  O     -2.443331    4.137999   -3.468418
  H     -2.406738    4.647574   -4.288539
  H     -1.822514    2.438176   -4.417710
  H     -2.095098    2.370439   -2.644488
  H     -3.458589    2.327411   -3.868728
  C     -0.823305    0.756648    0.372796
  O     -1.029271   -0.427082    1.079613
  H     -0.643484   -1.120501    0.491262
  H     -1.596986    0.832621   -0.419823
  H     -0.919272    1.620018    1.035924
  H      0.173242    0.883099    0.019278

 Multiplicity           Mult            ....    1
 Number of Electrons    NEL             ....   18
 Basis Dimension        Dim             ....  172

ORBITAL ENERGIES
----------------

  NO   OCC          E(Eh)            E(eV)
   0   2.0000     -19.233193      -523.3618
   1   2.0000     -10.308916      -280.5199
   2   2.0000      -1.140232       -31.0273
   3   2.0000      -0.791821       -21.5466
   4   2.0000      -0.609148       -16.5758
   5   2.0000      -0.552686       -15.0393
   6   2.0000      -0.525481       -14.2991
   7   2.0000      -0.430631       -11.7181
   8   2.0000      -0.374004       -10.1772
   9   0.0000       0.084708         2.3050
  10   0.0000       0.113515         3.0889
  11   0.0000       0.144658         3.9363
  12   0.0000       0.170855         4.6492
  13   0.0000       0.191865         5.2209

MULLIKEN ATOMIC CHARGES
-----------------------
   0 C :    0.001810
   1 O :   -0.000038
   2 H :   -0.000002
   3 H :   -0.000113
   4 H :   -0.003813
   5 H :   -0.000069
   6 C :   -0.157522
   7 O :   -0.467415
   8 H :    0.316409
   9 H :    0.098535
  10 H :    0.109822
  11 H :    0.102394
Sum of atomic charges:   -0.0000000

LOEWDIN ATOMIC CHARGES
----------------------
   0 C :   -0.000608
   1 O :   -0.000009
   2 H :   -0.000000
   3 H :   -0.000006
   4 H :   -0.002644
   5 H :   -0.000008
   6 C :   -0.407592
   7 O :   -0.074217
   8 H :    0.189382
   9 H :    0.099255
  10 H :    0.107571
  11 H :    0.088878

  Mayer bond orders larger than 0.1
B(  6-C ,  7-O ) :   1.0028 B(  6-C ,  9-H ) :   0.9845 B(  6-C , 10-H ) :   0.9697
B(  6-C , 11-H ) :   0.9768 B(  7-O ,  8-H ) :   0.8974

Dispersion correction           -0.000222200
FINAL SINGLE POINT ENERGY      -115.732688436936

DIPOLE MOMENT
-------------
                                X             Y             Z
Electronic contribution:     -0.29198      -1.51327       1.01304
Nuclear contribution   :      0.63581       1.54425      -1.61798
                        -----------------------------------------
Total Dipole Moment    :      0.34383       0.03098      -0.60495
                        -----------------------------------------
Magnitude (a.u.)       :      0.69652
Magnitude (Debye)      :      1.77041

Rotational constants in cm-1:     4.247462     0.849992     0.827844
Rotational constants in MHz : 127335.708615 25482.129804 24818.124766

                             ****ORCA TERMINATED NORMALLY****
TOTAL RUN TIME: 0 days 0 hours 0 minutes 57 seconds 528 msec
