                         Program Version 4.1.2  - RELEASE  -
|  1> #Run DFT-D3 single point of the dimer
|  2> ! wB97X-D3 def2-TZVP TIGHTSCF CHELPG PMODEL PAL8
|  3>
|  4> %base "19-94_DFT_AB"
|  5>
|  6> %scf
|  7> MaxIter 1000
|  8> end
|  9>
| 10> * xyz 0 1
| 11>   C                      6.919625             2.237632             2.945838
| 12>   O                      7.105568             3.614791             3.004067
| 13>   H                      7.927648             3.903414             2.617584
| 14>   H                      7.422164             1.719098             3.729250
| 15>   H                      5.841692             1.966989             3.041488
| 16>   H                      7.318918             1.785904             1.953686
| 17>   C                      6.381632             -1.870875            3.659416
| 18>   O                      6.865294             -2.428046            2.462627
| 19>   H                      7.177478             -3.339419            2.607261
| 20>   H                      5.847585             -2.577557            4.305369
| 21>   H                      7.275320             -1.535234            4.225810
| 22>   H                      5.685898             -1.053315            3.452593
| 23> *
| 24>
| 25> #Run DFT-D3 single point of the molecule with dimer basis set
| 26> $new_job
| 27> %base "19-94_DFT_A"
| 28> ! wB97X-D3 def2-TZVP TIGHTSCF CHELPG PMODEL
| 29>
| 30> %scf
| 31> MaxIter 1000
| 32> end
| 33>
| 34> * xyz 0 1
| 35>   C                      6.919625             2.237632             2.945838
| 36>   O                      7.105568             3.614791             3.004067
| 37>   H                      7.927648             3.903414             2.617584
| 38>   H                      7.422164             1.719098             3.729250
| 39>   H                      5.841692             1.966989             3.041488
| 40>   H                      7.318918             1.785904             1.953686
| 41>   C                    : 6.381632             -1.870875            3.659416
| 42>   O                    : 6.865294             -2.428046            2.462627
| 43>   H                    : 7.177478             -3.339419            2.607261
| 44>   H                    : 5.847585             -2.577557            4.305369
| 45>   H                    : 7.275320             -1.535234            4.225810
| 46>   H                    : 5.685898             -1.053315            3.452593
| 47> *
| 48>
| 49> #Run DFT-D3 single point of the particle with dimer basis set
| 50> $new_job
| 51> %base "19-94_DFT_B"
| 52> ! wB97X-D3 def2-TZVP TIGHTSCF CHELPG PMODEL
| 53>
| 54> %scf
| 55> MaxIter 1000
| 56> end
| 57>
| 58> * xyz 0 1
| 59>   C                    : 6.919625             2.237632             2.945838
| 60>   O                    : 7.105568             3.614791             3.004067
| 61>   H                    : 7.927648             3.903414             2.617584
| 62>   H                    : 7.422164             1.719098             3.729250
| 63>   H                    : 5.841692             1.966989             3.041488
| 64>   H                    : 7.318918             1.785904             1.953686
| 65>   C                      6.381632             -1.870875            3.659416
| 66>   O                      6.865294             -2.428046            2.462627
| 67>   H                      7.177478             -3.339419            2.607261
| 68>   H                      5.847585             -2.577557            4.305369
| 69>   H                      7.275320             -1.535234            4.225810
| 70>   H                      5.685898             -1.053315            3.452593
| 71> *
| 72>
| 73>                          ****END OF INPUT****
 Total Charge           Charge          ....    0
 Multiplicity           Mult            ....    1
 Number of Electrons    NEL             ....   36
Dispersion correction           -0.001255477
FINAL SINGLE POINT ENERGY      -231.468319137166
Dispersion correction           -0.000256335
FINAL SINGLE POINT ENERGY      -115.732668377952

CARTESIAN COORDINATES (ANGSTROEM)
---------------------------------
  C      6.919625    2.237632    2.945838
  O      7.105568    3.614791    3.004067
  H      7.927648    3.903414    2.617584
  H      7.422164    1.719098    3.729250
  H      5.841692    1.966989    3.041488
  H      7.318918    1.785904    1.953686
  C      6.381632   -1.870875    3.659416
  O      6.865294   -2.428046    2.462627
  H      7.177478   -3.339419    2.607261
  H      5.847585   -2.577557    4.305369
  H      7.275320   -1.535234    4.225810
  H      5.685898   -1.053315    3.452593

 Multiplicity           Mult            ....    1
 Number of Electrons    NEL             ....   18
 Basis Dimension        Dim             ....  172

ORBITAL ENERGIES
----------------

  NO   OCC          E(Eh)            E(eV)
   0   2.0000     -19.228668      -523.2387
   1   2.0000     -10.313821      -280.6533
   2   2.0000      -1.133648       -30.8481
   3   2.0000      -0.792914       -21.5763
   4   2.0000      -0.611212       -16.6319
   5   2.0000      -0.544325       -14.8118
   6   2.0000      -0.523544       -14.2464
   7   2.0000      -0.430552       -11.7159
   8   2.0000      -0.369477       -10.0540
   9   0.0000       0.087946         2.3931
  10   0.0000       0.115179         3.1342
  11   0.0000       0.147194         4.0053
  12   0.0000       0.174617         4.7516
  13   0.0000       0.188720         5.1353

MULLIKEN ATOMIC CHARGES
-----------------------
   0 C :    0.000800
   1 O :    0.000010
   2 H :    0.000001
   3 H :   -0.000506
   4 H :   -0.000369
   5 H :   -0.000117
   6 C :   -0.164027
   7 O :   -0.481454
   8 H :    0.318418
   9 H :    0.104440
  10 H :    0.100361
  11 H :    0.122443
Sum of atomic charges:    0.0000000

LOEWDIN ATOMIC CHARGES
----------------------
   0 C :   -0.001196
   1 O :   -0.000006
   2 H :   -0.000002
   3 H :   -0.000608
   4 H :   -0.000645
   5 H :   -0.000089
   6 C :   -0.392987
   7 O :   -0.081838
   8 H :    0.176869
   9 H :    0.093321
  10 H :    0.099249
  11 H :    0.107931

  Mayer bond orders larger than 0.1
B(  6-C ,  7-O ) :   0.9958 B(  6-C ,  9-H ) :   0.9730 B(  6-C , 10-H ) :   0.9824
B(  6-C , 11-H ) :   0.9694 B(  7-O ,  8-H ) :   0.8933

Dispersion correction           -0.000241501
FINAL SINGLE POINT ENERGY      -115.734681266881

DIPOLE MOMENT
-------------
                                X             Y             Z
Electronic contribution:      0.51532      -0.57826      -1.63102
Nuclear contribution   :     -0.52585       0.20218       2.19543
                        -----------------------------------------
Total Dipole Moment    :     -0.01053      -0.37608       0.56441
                        -----------------------------------------
Magnitude (a.u.)       :      0.67831
Magnitude (Debye)      :      1.72412

Rotational constants in cm-1:     4.251382     0.835038     0.806517
Rotational constants in MHz : 127453.221838 25033.803385 24178.771112

                             ****ORCA TERMINATED NORMALLY****
TOTAL RUN TIME: 0 days 0 hours 0 minutes 51 seconds 918 msec
