                         Program Version 4.1.2  - RELEASE  -
|  1> #Run DFT-D3 single point of the dimer
|  2> ! wB97X-D3 def2-TZVP TIGHTSCF CHELPG PMODEL PAL8
|  3>
|  4> %base "18-66_DFT_AB"
|  5>
|  6> %scf
|  7> MaxIter 1000
|  8> end
|  9>
| 10> * xyz 0 1
| 11>   C                      -9.376882            2.477543             -4.713638
| 12>   O                      -8.879101            1.249759             -4.251672
| 13>   H                      -8.504587            1.328272             -3.362079
| 14>   H                      -8.510873            3.150077             -4.795730
| 15>   H                      -9.919677            2.295343             -5.655822
| 16>   H                      -10.081456           2.950234             -3.991283
| 17>   C                      -6.192142            3.316149             -6.809267
| 18>   O                      -7.336972            3.537002             -7.548146
| 19>   H                      -7.789556            2.702504             -7.730848
| 20>   H                      -5.550803            2.508840             -7.203394
| 21>   H                      -5.617500            4.249866             -6.681300
| 22>   H                      -6.487296            3.059654             -5.826811
| 23> *
| 24>
| 25> #Run DFT-D3 single point of the molecule with dimer basis set
| 26> $new_job
| 27> %base "18-66_DFT_A"
| 28> ! wB97X-D3 def2-TZVP TIGHTSCF CHELPG PMODEL
| 29>
| 30> %scf
| 31> MaxIter 1000
| 32> end
| 33>
| 34> * xyz 0 1
| 35>   C                      -9.376882            2.477543             -4.713638
| 36>   O                      -8.879101            1.249759             -4.251672
| 37>   H                      -8.504587            1.328272             -3.362079
| 38>   H                      -8.510873            3.150077             -4.795730
| 39>   H                      -9.919677            2.295343             -5.655822
| 40>   H                      -10.081456           2.950234             -3.991283
| 41>   C                    : -6.192142            3.316149             -6.809267
| 42>   O                    : -7.336972            3.537002             -7.548146
| 43>   H                    : -7.789556            2.702504             -7.730848
| 44>   H                    : -5.550803            2.508840             -7.203394
| 45>   H                    : -5.617500            4.249866             -6.681300
| 46>   H                    : -6.487296            3.059654             -5.826811
| 47> *
| 48>
| 49> #Run DFT-D3 single point of the particle with dimer basis set
| 50> $new_job
| 51> %base "18-66_DFT_B"
| 52> ! wB97X-D3 def2-TZVP TIGHTSCF CHELPG PMODEL
| 53>
| 54> %scf
| 55> MaxIter 1000
| 56> end
| 57>
| 58> * xyz 0 1
| 59>   C                    : -9.376882            2.477543             -4.713638
| 60>   O                    : -8.879101            1.249759             -4.251672
| 61>   H                    : -8.504587            1.328272             -3.362079
| 62>   H                    : -8.510873            3.150077             -4.795730
| 63>   H                    : -9.919677            2.295343             -5.655822
| 64>   H                    : -10.081456           2.950234             -3.991283
| 65>   C                      -6.192142            3.316149             -6.809267
| 66>   O                      -7.336972            3.537002             -7.548146
| 67>   H                      -7.789556            2.702504             -7.730848
| 68>   H                      -5.550803            2.508840             -7.203394
| 69>   H                      -5.617500            4.249866             -6.681300
| 70>   H                      -6.487296            3.059654             -5.826811
| 71> *
| 72>
| 73>                          ****END OF INPUT****
 Total Charge           Charge          ....    0
 Multiplicity           Mult            ....    1
 Number of Electrons    NEL             ....   36
Dispersion correction           -0.001844337
FINAL SINGLE POINT ENERGY      -231.470831136851
Dispersion correction           -0.000233081
FINAL SINGLE POINT ENERGY      -115.734863770856

CARTESIAN COORDINATES (ANGSTROEM)
---------------------------------
  C     -9.376882    2.477543   -4.713638
  O     -8.879101    1.249759   -4.251672
  H     -8.504587    1.328272   -3.362079
  H     -8.510873    3.150077   -4.795730
  H     -9.919677    2.295343   -5.655822
  H    -10.081456    2.950234   -3.991283
  C     -6.192142    3.316149   -6.809267
  O     -7.336972    3.537002   -7.548146
  H     -7.789556    2.702504   -7.730848
  H     -5.550803    2.508840   -7.203394
  H     -5.617500    4.249866   -6.681300
  H     -6.487296    3.059654   -5.826811

 Multiplicity           Mult            ....    1
 Number of Electrons    NEL             ....   18
 Basis Dimension        Dim             ....  172

ORBITAL ENERGIES
----------------

  NO   OCC          E(Eh)            E(eV)
   0   2.0000     -19.229232      -523.2540
   1   2.0000     -10.307954      -280.4937
   2   2.0000      -1.144223       -31.1359
   3   2.0000      -0.796054       -21.6617
   4   2.0000      -0.616826       -16.7847
   5   2.0000      -0.547572       -14.9002
   6   2.0000      -0.532703       -14.4956
   7   2.0000      -0.428689       -11.6652
   8   2.0000      -0.370089       -10.0706
   9   0.0000       0.082711         2.2507
  10   0.0000       0.126464         3.4413
  11   0.0000       0.150008         4.0819
  12   0.0000       0.174687         4.7535
  13   0.0000       0.197186         5.3657

MULLIKEN ATOMIC CHARGES
-----------------------
   0 C :   -0.005822
   1 O :    0.000079
   2 H :   -0.000090
   3 H :    0.004455
   4 H :   -0.000569
   5 H :   -0.000242
   6 C :   -0.155220
   7 O :   -0.473480
   8 H :    0.318317
   9 H :    0.103776
  10 H :    0.117710
  11 H :    0.091086
Sum of atomic charges:    0.0000000

LOEWDIN ATOMIC CHARGES
----------------------
   0 C :   -0.006244
   1 O :   -0.000184
   2 H :   -0.000078
   3 H :   -0.004379
   4 H :   -0.001118
   5 H :   -0.000058
   6 C :   -0.405667
   7 O :   -0.051897
   8 H :    0.175392
   9 H :    0.095950
  10 H :    0.112289
  11 H :    0.085993

  Mayer bond orders larger than 0.1
B(  6-C ,  7-O ) :   1.0042 B(  6-C ,  9-H ) :   0.9821 B(  6-C , 10-H ) :   0.9726
B(  6-C , 11-H ) :   0.9806 B(  7-O ,  8-H ) :   0.8935

Dispersion correction           -0.000224915
FINAL SINGLE POINT ENERGY      -115.734075077572

DIPOLE MOMENT
-------------
                                X             Y             Z
Electronic contribution:     -1.43641       0.41055      -1.03584
Nuclear contribution   :      1.58211      -1.02180       1.21076
                        -----------------------------------------
Total Dipole Moment    :      0.14570      -0.61124       0.17492
                        -----------------------------------------
Magnitude (a.u.)       :      0.65226
Magnitude (Debye)      :      1.65792

Rotational constants in cm-1:     4.368029     0.865111     0.827909
Rotational constants in MHz : 130950.212411 25935.365954 24820.081954

                             ****ORCA TERMINATED NORMALLY****
TOTAL RUN TIME: 0 days 0 hours 1 minutes 4 seconds 644 msec
