                         Program Version 4.1.2  - RELEASE  -
|  1> #Run DFT-D3 single point of the dimer
|  2> ! wB97X-D3 def2-TZVP TIGHTSCF CHELPG PMODEL PAL8
|  3>
|  4> %base "12-118_DFT_AB"
|  5>
|  6> %scf
|  7> MaxIter 1000
|  8> end
|  9>
| 10> * xyz 0 1
| 11>   C                      0.458656             -0.930274            -4.011846
| 12>   O                      1.515919             -0.989407            -3.097757
| 13>   H                      2.343066             -1.128490            -3.561394
| 14>   H                      0.659038             -0.054227            -4.714166
| 15>   H                      0.496070             -1.799020            -4.676867
| 16>   H                      -0.554769            -0.926448            -3.628725
| 17>   C                      -3.023013            -3.629306            -2.563117
| 18>   O                      -2.579390            -2.375114            -1.974566
| 19>   H                      -2.783467            -1.640467            -2.546963
| 20>   H                      -2.217217            -4.132309            -3.100872
| 21>   H                      -3.460692            -4.337143            -1.858071
| 22>   H                      -3.910047            -3.564153            -3.228729
| 23> *
| 24>
| 25> #Run DFT-D3 single point of the molecule with dimer basis set
| 26> $new_job
| 27> %base "12-118_DFT_A"
| 28> ! wB97X-D3 def2-TZVP TIGHTSCF CHELPG PMODEL
| 29>
| 30> %scf
| 31> MaxIter 1000
| 32> end
| 33>
| 34> * xyz 0 1
| 35>   C                      0.458656             -0.930274            -4.011846
| 36>   O                      1.515919             -0.989407            -3.097757
| 37>   H                      2.343066             -1.128490            -3.561394
| 38>   H                      0.659038             -0.054227            -4.714166
| 39>   H                      0.496070             -1.799020            -4.676867
| 40>   H                      -0.554769            -0.926448            -3.628725
| 41>   C                    : -3.023013            -3.629306            -2.563117
| 42>   O                    : -2.579390            -2.375114            -1.974566
| 43>   H                    : -2.783467            -1.640467            -2.546963
| 44>   H                    : -2.217217            -4.132309            -3.100872
| 45>   H                    : -3.460692            -4.337143            -1.858071
| 46>   H                    : -3.910047            -3.564153            -3.228729
| 47> *
| 48>
| 49> #Run DFT-D3 single point of the particle with dimer basis set
| 50> $new_job
| 51> %base "12-118_DFT_B"
| 52> ! wB97X-D3 def2-TZVP TIGHTSCF CHELPG PMODEL
| 53>
| 54> %scf
| 55> MaxIter 1000
| 56> end
| 57>
| 58> * xyz 0 1
| 59>   C                    : 0.458656             -0.930274            -4.011846
| 60>   O                    : 1.515919             -0.989407            -3.097757
| 61>   H                    : 2.343066             -1.128490            -3.561394
| 62>   H                    : 0.659038             -0.054227            -4.714166
| 63>   H                    : 0.496070             -1.799020            -4.676867
| 64>   H                    : -0.554769            -0.926448            -3.628725
| 65>   C                      -3.023013            -3.629306            -2.563117
| 66>   O                      -2.579390            -2.375114            -1.974566
| 67>   H                      -2.783467            -1.640467            -2.546963
| 68>   H                      -2.217217            -4.132309            -3.100872
| 69>   H                      -3.460692            -4.337143            -1.858071
| 70>   H                      -3.910047            -3.564153            -3.228729
| 71> *
| 72>
| 73>                          ****END OF INPUT****
 Total Charge           Charge          ....    0
 Multiplicity           Mult            ....    1
 Number of Electrons    NEL             ....   36
Dispersion correction           -0.001309486
FINAL SINGLE POINT ENERGY      -231.460606710806
Dispersion correction           -0.000231921
FINAL SINGLE POINT ENERGY      -115.730439788751

CARTESIAN COORDINATES (ANGSTROEM)
---------------------------------
  C      0.458656   -0.930274   -4.011846
  O      1.515919   -0.989407   -3.097757
  H      2.343066   -1.128490   -3.561394
  H      0.659038   -0.054227   -4.714166
  H      0.496070   -1.799020   -4.676867
  H     -0.554769   -0.926448   -3.628725
  C     -3.023013   -3.629306   -2.563117
  O     -2.579390   -2.375114   -1.974566
  H     -2.783467   -1.640467   -2.546963
  H     -2.217217   -4.132309   -3.100872
  H     -3.460692   -4.337143   -1.858071
  H     -3.910047   -3.564153   -3.228729

 Multiplicity           Mult            ....    1
 Number of Electrons    NEL             ....   18
 Basis Dimension        Dim             ....  172

ORBITAL ENERGIES
----------------

  NO   OCC          E(Eh)            E(eV)
   0   2.0000     -19.233720      -523.3761
   1   2.0000     -10.318869      -280.7907
   2   2.0000      -1.125717       -30.6323
   3   2.0000      -0.801775       -21.8174
   4   2.0000      -0.608232       -16.5508
   5   2.0000      -0.541985       -14.7482
   6   2.0000      -0.517652       -14.0860
   7   2.0000      -0.428012       -11.6468
   8   2.0000      -0.380729       -10.3602
   9   0.0000       0.085678         2.3314
  10   0.0000       0.121705         3.3118
  11   0.0000       0.143180         3.8961
  12   0.0000       0.174192         4.7400
  13   0.0000       0.184293         5.0149

MULLIKEN ATOMIC CHARGES
-----------------------
   0 C :    0.006814
   1 O :    0.000032
   2 H :    0.000022
   3 H :   -0.000347
   4 H :   -0.000261
   5 H :   -0.015547
   6 C :   -0.184383
   7 O :   -0.474124
   8 H :    0.319572
   9 H :    0.116419
  10 H :    0.122835
  11 H :    0.108968
Sum of atomic charges:   -0.0000000

LOEWDIN ATOMIC CHARGES
----------------------
   0 C :   -0.002324
   1 O :   -0.000018
   2 H :   -0.000003
   3 H :   -0.000040
   4 H :   -0.000061
   5 H :   -0.005672
   6 C :   -0.365812
   7 O :   -0.093956
   8 H :    0.162099
   9 H :    0.098076
  10 H :    0.106350
  11 H :    0.101360

  Mayer bond orders larger than 0.1
B(  6-C ,  7-O ) :   1.0064 B(  6-C ,  9-H ) :   0.9737 B(  6-C , 10-H ) :   0.9704
B(  6-C , 11-H ) :   0.9765 B(  7-O ,  8-H ) :   0.8969

Dispersion correction           -0.000292471
FINAL SINGLE POINT ENERGY      -115.730583180212

DIPOLE MOMENT
-------------
                                X             Y             Z
Electronic contribution:      0.69306       1.58163       0.88600
Nuclear contribution   :     -1.05695      -1.64969      -1.49367
                        -----------------------------------------
Total Dipole Moment    :     -0.36390      -0.06807      -0.60767
                        -----------------------------------------
Magnitude (a.u.)       :      0.71156
Magnitude (Debye)      :      1.80863

Rotational constants in cm-1:     4.487376     0.771069     0.756285
Rotational constants in MHz : 134528.150905 23116.081671 22672.843916

                             ****ORCA TERMINATED NORMALLY****
TOTAL RUN TIME: 0 days 0 hours 1 minutes 10 seconds 549 msec
