                         Program Version 4.1.2  - RELEASE  -
|  1> #Run DFT-D3 single point of the dimer
|  2> ! wB97X-D3 def2-TZVP TIGHTSCF CHELPG PMODEL PAL8
|  3>
|  4> %base "22-26_DFT_AB"
|  5>
|  6> %scf
|  7> MaxIter 1000
|  8> end
|  9>
| 10> * xyz 0 1
| 11>   C                      -0.754698            -4.429643            3.939378
| 12>   O                      -1.196798            -4.428082            5.254249
| 13>   H                      -0.395699            -4.752719            5.779728
| 14>   H                      -0.383757            -5.340087            3.635676
| 15>   H                      -1.507620            -4.118996            3.190048
| 16>   H                      0.031200             -3.762485            3.769299
| 17>   C                      1.290066             -7.410364            4.128499
| 18>   O                      2.493319             -6.689525            4.556099
| 19>   H                      3.045168             -7.275594            5.105146
| 20>   H                      1.490086             -8.446307            4.137986
| 21>   H                      0.552805             -7.292973            4.896232
| 22>   H                      0.879620             -7.148192            3.076627
| 23> *
| 24>
| 25> #Run DFT-D3 single point of the molecule with dimer basis set
| 26> $new_job
| 27> %base "22-26_DFT_A"
| 28> ! wB97X-D3 def2-TZVP TIGHTSCF CHELPG PMODEL
| 29>
| 30> %scf
| 31> MaxIter 1000
| 32> end
| 33>
| 34> * xyz 0 1
| 35>   C                      -0.754698            -4.429643            3.939378
| 36>   O                      -1.196798            -4.428082            5.254249
| 37>   H                      -0.395699            -4.752719            5.779728
| 38>   H                      -0.383757            -5.340087            3.635676
| 39>   H                      -1.507620            -4.118996            3.190048
| 40>   H                      0.031200             -3.762485            3.769299
| 41>   C                    : 1.290066             -7.410364            4.128499
| 42>   O                    : 2.493319             -6.689525            4.556099
| 43>   H                    : 3.045168             -7.275594            5.105146
| 44>   H                    : 1.490086             -8.446307            4.137986
| 45>   H                    : 0.552805             -7.292973            4.896232
| 46>   H                    : 0.879620             -7.148192            3.076627
| 47> *
| 48>
| 49> #Run DFT-D3 single point of the particle with dimer basis set
| 50> $new_job
| 51> %base "22-26_DFT_B"
| 52> ! wB97X-D3 def2-TZVP TIGHTSCF CHELPG PMODEL
| 53>
| 54> %scf
| 55> MaxIter 1000
| 56> end
| 57>
| 58> * xyz 0 1
| 59>   C                    : -0.754698            -4.429643            3.939378
| 60>   O                    : -1.196798            -4.428082            5.254249
| 61>   H                    : -0.395699            -4.752719            5.779728
| 62>   H                    : -0.383757            -5.340087            3.635676
| 63>   H                    : -1.507620            -4.118996            3.190048
| 64>   H                    : 0.031200             -3.762485            3.769299
| 65>   C                      1.290066             -7.410364            4.128499
| 66>   O                      2.493319             -6.689525            4.556099
| 67>   H                      3.045168             -7.275594            5.105146
| 68>   H                      1.490086             -8.446307            4.137986
| 69>   H                      0.552805             -7.292973            4.896232
| 70>   H                      0.879620             -7.148192            3.076627
| 71> *
| 72>
| 73>                          ****END OF INPUT****
 Total Charge           Charge          ....    0
 Multiplicity           Mult            ....    1
 Number of Electrons    NEL             ....   36
Dispersion correction           -0.001862290
FINAL SINGLE POINT ENERGY      -231.454739215528
Dispersion correction           -0.000214268
FINAL SINGLE POINT ENERGY      -115.726492326255

CARTESIAN COORDINATES (ANGSTROEM)
---------------------------------
  C     -0.754698   -4.429643    3.939378
  O     -1.196798   -4.428082    5.254249
  H     -0.395699   -4.752719    5.779728
  H     -0.383757   -5.340087    3.635676
  H     -1.507620   -4.118996    3.190048
  H      0.031200   -3.762485    3.769299
  C      1.290066   -7.410364    4.128499
  O      2.493319   -6.689525    4.556099
  H      3.045168   -7.275594    5.105146
  H      1.490086   -8.446307    4.137986
  H      0.552805   -7.292973    4.896232
  H      0.879620   -7.148192    3.076627

 Multiplicity           Mult            ....    1
 Number of Electrons    NEL             ....   18
 Basis Dimension        Dim             ....  172

ORBITAL ENERGIES
----------------

  NO   OCC          E(Eh)            E(eV)
   0   2.0000     -19.229348      -523.2572
   1   2.0000     -10.318617      -280.7838
   2   2.0000      -1.116867       -30.3915
   3   2.0000      -0.797687       -21.7062
   4   2.0000      -0.602531       -16.3957
   5   2.0000      -0.537289       -14.6204
   6   2.0000      -0.519582       -14.1385
   7   2.0000      -0.431818       -11.7504
   8   2.0000      -0.373727       -10.1696
   9   0.0000       0.093041         2.5318
  10   0.0000       0.118135         3.2146
  11   0.0000       0.149299         4.0626
  12   0.0000       0.163552         4.4505
  13   0.0000       0.191662         5.2154

MULLIKEN ATOMIC CHARGES
-----------------------
   0 C :    0.004795
   1 O :   -0.000361
   2 H :    0.000005
   3 H :   -0.004614
   4 H :    0.000075
   5 H :   -0.000627
   6 C :   -0.187513
   7 O :   -0.488115
   8 H :    0.315436
   9 H :    0.125060
  10 H :    0.113858
  11 H :    0.122001
Sum of atomic charges:    0.0000000

LOEWDIN ATOMIC CHARGES
----------------------
   0 C :   -0.004467
   1 O :   -0.000174
   2 H :   -0.000781
   3 H :   -0.008647
   4 H :   -0.000013
   5 H :   -0.000147
   6 C :   -0.344005
   7 O :   -0.123113
   8 H :    0.173032
   9 H :    0.089010
  10 H :    0.095263
  11 H :    0.124042

  Mayer bond orders larger than 0.1
B(  6-C ,  7-O ) :   0.9941 B(  6-C ,  9-H ) :   0.9768 B(  6-C , 10-H ) :   0.9782
B(  6-C , 11-H ) :   0.9656 B(  7-O ,  8-H ) :   0.8967

Dispersion correction           -0.000262692
FINAL SINGLE POINT ENERGY      -115.726603229998

DIPOLE MOMENT
-------------
                                X             Y             Z
Electronic contribution:      1.42713       1.04532       0.40192
Nuclear contribution   :     -1.58391      -1.77289      -0.22267
                        -----------------------------------------
Total Dipole Moment    :     -0.15678      -0.72757       0.17926
                        -----------------------------------------
Magnitude (a.u.)       :      0.76556
Magnitude (Debye)      :      1.94589

Rotational constants in cm-1:     4.319787     0.779848     0.750167
Rotational constants in MHz : 129503.953884 23379.258602 22489.432807

                             ****ORCA TERMINATED NORMALLY****
TOTAL RUN TIME: 0 days 0 hours 0 minutes 59 seconds 223 msec
