                         Program Version 4.1.2  - RELEASE  -
|  1> #Run DFT-D3 single point of the dimer
|  2> ! wB97X-D3 def2-TZVP TIGHTSCF CHELPG PMODEL PAL8
|  3>
|  4> %base "17-197_DFT_AB"
|  5>
|  6> %scf
|  7> MaxIter 1000
|  8> end
|  9>
| 10> * xyz 0 1
| 11>   C                      -5.611025            -4.715949            -7.451382
| 12>   O                      -5.543660            -5.230908            -6.116349
| 13>   H                      -6.192667            -4.679153            -5.690467
| 14>   H                      -4.662600            -5.000865            -8.036909
| 15>   H                      -6.562087            -4.983999            -7.957618
| 16>   H                      -5.580742            -3.587623            -7.504509
| 17>   C                      -2.539012            -5.629873            -4.086639
| 18>   O                      -3.392645            -6.306400            -4.953503
| 19>   H                      -4.115533            -5.702665            -5.142074
| 20>   H                      -2.657348            -5.959694            -3.101321
| 21>   H                      -1.519630            -5.902938            -4.379619
| 22>   H                      -2.561372            -4.506593            -4.167548
| 23> *
| 24>
| 25> #Run DFT-D3 single point of the molecule with dimer basis set
| 26> $new_job
| 27> %base "17-197_DFT_A"
| 28> ! wB97X-D3 def2-TZVP TIGHTSCF CHELPG PMODEL
| 29>
| 30> %scf
| 31> MaxIter 1000
| 32> end
| 33>
| 34> * xyz 0 1
| 35>   C                      -5.611025            -4.715949            -7.451382
| 36>   O                      -5.543660            -5.230908            -6.116349
| 37>   H                      -6.192667            -4.679153            -5.690467
| 38>   H                      -4.662600            -5.000865            -8.036909
| 39>   H                      -6.562087            -4.983999            -7.957618
| 40>   H                      -5.580742            -3.587623            -7.504509
| 41>   C                    : -2.539012            -5.629873            -4.086639
| 42>   O                    : -3.392645            -6.306400            -4.953503
| 43>   H                    : -4.115533            -5.702665            -5.142074
| 44>   H                    : -2.657348            -5.959694            -3.101321
| 45>   H                    : -1.519630            -5.902938            -4.379619
| 46>   H                    : -2.561372            -4.506593            -4.167548
| 47> *
| 48>
| 49> #Run DFT-D3 single point of the particle with dimer basis set
| 50> $new_job
| 51> %base "17-197_DFT_B"
| 52> ! wB97X-D3 def2-TZVP TIGHTSCF CHELPG PMODEL
| 53>
| 54> %scf
| 55> MaxIter 1000
| 56> end
| 57>
| 58> * xyz 0 1
| 59>   C                    : -5.611025            -4.715949            -7.451382
| 60>   O                    : -5.543660            -5.230908            -6.116349
| 61>   H                    : -6.192667            -4.679153            -5.690467
| 62>   H                    : -4.662600            -5.000865            -8.036909
| 63>   H                    : -6.562087            -4.983999            -7.957618
| 64>   H                    : -5.580742            -3.587623            -7.504509
| 65>   C                      -2.539012            -5.629873            -4.086639
| 66>   O                      -3.392645            -6.306400            -4.953503
| 67>   H                      -4.115533            -5.702665            -5.142074
| 68>   H                      -2.657348            -5.959694            -3.101321
| 69>   H                      -1.519630            -5.902938            -4.379619
| 70>   H                      -2.561372            -4.506593            -4.167548
| 71> *
| 72>
| 73>                          ****END OF INPUT****
 Total Charge           Charge          ....    0
 Multiplicity           Mult            ....    1
 Number of Electrons    NEL             ....   36
Dispersion correction           -0.001566968
FINAL SINGLE POINT ENERGY      -231.468373736585
Dispersion correction           -0.000249577
FINAL SINGLE POINT ENERGY      -115.730524984235

CARTESIAN COORDINATES (ANGSTROEM)
---------------------------------
  C     -5.611025   -4.715949   -7.451382
  O     -5.543660   -5.230908   -6.116349
  H     -6.192667   -4.679153   -5.690467
  H     -4.662600   -5.000865   -8.036909
  H     -6.562087   -4.983999   -7.957618
  H     -5.580742   -3.587623   -7.504509
  C     -2.539012   -5.629873   -4.086639
  O     -3.392645   -6.306400   -4.953503
  H     -4.115533   -5.702665   -5.142074
  H     -2.657348   -5.959694   -3.101321
  H     -1.519630   -5.902938   -4.379619
  H     -2.561372   -4.506593   -4.167548

 Multiplicity           Mult            ....    1
 Number of Electrons    NEL             ....   18
 Basis Dimension        Dim             ....  172

ORBITAL ENERGIES
----------------

  NO   OCC          E(Eh)            E(eV)
   0   2.0000     -19.231100      -523.3048
   1   2.0000     -10.308639      -280.5123
   2   2.0000      -1.144669       -31.1480
   3   2.0000      -0.795919       -21.6581
   4   2.0000      -0.613615       -16.6973
   5   2.0000      -0.551421       -15.0049
   6   2.0000      -0.525919       -14.3110
   7   2.0000      -0.433037       -11.7835
   8   2.0000      -0.374031       -10.1779
   9   0.0000       0.071943         1.9577
  10   0.0000       0.130483         3.5506
  11   0.0000       0.154103         4.1934
  12   0.0000       0.173302         4.7158
  13   0.0000       0.190935         5.1956

MULLIKEN ATOMIC CHARGES
-----------------------
   0 C :   -0.001131
   1 O :   -0.002025
   2 H :   -0.000183
   3 H :   -0.000982
   4 H :   -0.000125
   5 H :    0.000133
   6 C :   -0.166096
   7 O :   -0.455734
   8 H :    0.309922
   9 H :    0.109054
  10 H :    0.105744
  11 H :    0.101423
Sum of atomic charges:   -0.0000000

LOEWDIN ATOMIC CHARGES
----------------------
   0 C :   -0.004134
   1 O :   -0.029797
   2 H :   -0.001950
   3 H :   -0.000864
   4 H :   -0.000102
   5 H :   -0.000051
   6 C :   -0.401209
   7 O :   -0.043329
   8 H :    0.187449
   9 H :    0.085605
  10 H :    0.105264
  11 H :    0.103117

  Mayer bond orders larger than 0.1
B(  6-C ,  7-O ) :   1.0035 B(  6-C ,  9-H ) :   0.9785 B(  6-C , 10-H ) :   0.9795
B(  6-C , 11-H ) :   0.9788 B(  7-O ,  8-H ) :   0.9045

Dispersion correction           -0.000235542
FINAL SINGLE POINT ENERGY      -115.732875550762

DIPOLE MOMENT
-------------
                                X             Y             Z
Electronic contribution:     -1.14108      -0.99598      -1.04530
Nuclear contribution   :      1.02121       1.62953       1.25396
                        -----------------------------------------
Total Dipole Moment    :     -0.11987       0.63355       0.20866
                        -----------------------------------------
Magnitude (a.u.)       :      0.67771
Magnitude (Debye)      :      1.72260

Rotational constants in cm-1:     4.322081     0.857113     0.822124
Rotational constants in MHz : 129572.727246 25695.587958 24646.671183

                             ****ORCA TERMINATED NORMALLY****
TOTAL RUN TIME: 0 days 0 hours 1 minutes 11 seconds 599 msec
