                         Program Version 4.1.2  - RELEASE  -
|  1> #Run DFT-D3 single point of the dimer
|  2> ! wB97X-D3 def2-TZVP TIGHTSCF CHELPG PMODEL PAL8
|  3>
|  4> %base "14-146_DFT_AB"
|  5>
|  6> %scf
|  7> MaxIter 1000
|  8> end
|  9>
| 10> * xyz 0 1
| 11>   C                      3.000813             -5.041228            10.565533
| 12>   O                      2.407379             -6.339526            10.869800
| 13>   H                      2.625145             -6.452515            11.794935
| 14>   H                      2.971662             -4.819013            9.434081
| 15>   H                      2.508815             -4.257876            11.166867
| 16>   H                      4.081495             -5.035408            10.772645
| 17>   C                      0.607011             -7.194764            7.583531
| 18>   O                      -0.015900            -7.070037            8.815631
| 19>   H                      0.676511             -6.625302            9.362851
| 20>   H                      1.573130             -7.713759            7.717677
| 21>   H                      -0.049744            -7.504817            6.721387
| 22>   H                      0.908719             -6.242453            7.211065
| 23> *
| 24>
| 25> #Run DFT-D3 single point of the molecule with dimer basis set
| 26> $new_job
| 27> %base "14-146_DFT_A"
| 28> ! wB97X-D3 def2-TZVP TIGHTSCF CHELPG PMODEL
| 29>
| 30> %scf
| 31> MaxIter 1000
| 32> end
| 33>
| 34> * xyz 0 1
| 35>   C                      3.000813             -5.041228            10.565533
| 36>   O                      2.407379             -6.339526            10.869800
| 37>   H                      2.625145             -6.452515            11.794935
| 38>   H                      2.971662             -4.819013            9.434081
| 39>   H                      2.508815             -4.257876            11.166867
| 40>   H                      4.081495             -5.035408            10.772645
| 41>   C                    : 0.607011             -7.194764            7.583531
| 42>   O                    : -0.015900            -7.070037            8.815631
| 43>   H                    : 0.676511             -6.625302            9.362851
| 44>   H                    : 1.573130             -7.713759            7.717677
| 45>   H                    : -0.049744            -7.504817            6.721387
| 46>   H                    : 0.908719             -6.242453            7.211065
| 47> *
| 48>
| 49> #Run DFT-D3 single point of the particle with dimer basis set
| 50> $new_job
| 51> %base "14-146_DFT_B"
| 52> ! wB97X-D3 def2-TZVP TIGHTSCF CHELPG PMODEL
| 53>
| 54> %scf
| 55> MaxIter 1000
| 56> end
| 57>
| 58> * xyz 0 1
| 59>   C                    : 3.000813             -5.041228            10.565533
| 60>   O                    : 2.407379             -6.339526            10.869800
| 61>   H                    : 2.625145             -6.452515            11.794935
| 62>   H                    : 2.971662             -4.819013            9.434081
| 63>   H                    : 2.508815             -4.257876            11.166867
| 64>   H                    : 4.081495             -5.035408            10.772645
| 65>   C                      0.607011             -7.194764            7.583531
| 66>   O                      -0.015900            -7.070037            8.815631
| 67>   H                      0.676511             -6.625302            9.362851
| 68>   H                      1.573130             -7.713759            7.717677
| 69>   H                      -0.049744            -7.504817            6.721387
| 70>   H                      0.908719             -6.242453            7.211065
| 71> *
| 72>
| 73>                          ****END OF INPUT****
 Total Charge           Charge          ....    0
 Multiplicity           Mult            ....    1
 Number of Electrons    NEL             ....   36
Dispersion correction           -0.001684213
FINAL SINGLE POINT ENERGY      -231.463959969527
Dispersion correction           -0.000252660
FINAL SINGLE POINT ENERGY      -115.731735052230

CARTESIAN COORDINATES (ANGSTROEM)
---------------------------------
  C      3.000813   -5.041228   10.565533
  O      2.407379   -6.339526   10.869800
  H      2.625145   -6.452515   11.794935
  H      2.971662   -4.819013    9.434081
  H      2.508815   -4.257876   11.166867
  H      4.081495   -5.035408   10.772645
  C      0.607011   -7.194764    7.583531
  O     -0.015900   -7.070037    8.815631
  H      0.676511   -6.625302    9.362851
  H      1.573130   -7.713759    7.717677
  H     -0.049744   -7.504817    6.721387
  H      0.908719   -6.242453    7.211065

 Multiplicity           Mult            ....    1
 Number of Electrons    NEL             ....   18
 Basis Dimension        Dim             ....  172

ORBITAL ENERGIES
----------------

  NO   OCC          E(Eh)            E(eV)
   0   2.0000     -19.234865      -523.4073
   1   2.0000     -10.312571      -280.6193
   2   2.0000      -1.144907       -31.1545
   3   2.0000      -0.789759       -21.4904
   4   2.0000      -0.615649       -16.7527
   5   2.0000      -0.551726       -15.0132
   6   2.0000      -0.522210       -14.2101
   7   2.0000      -0.435588       -11.8530
   8   2.0000      -0.368013       -10.0141
   9   0.0000       0.064801         1.7633
  10   0.0000       0.127417         3.4672
  11   0.0000       0.144429         3.9301
  12   0.0000       0.163434         4.4473
  13   0.0000       0.189496         5.1565

MULLIKEN ATOMIC CHARGES
-----------------------
   0 C :   -0.002332
   1 O :   -0.000720
   2 H :   -0.000105
   3 H :    0.000151
   4 H :    0.000156
   5 H :   -0.000039
   6 C :   -0.176512
   7 O :   -0.457216
   8 H :    0.316126
   9 H :    0.099715
  10 H :    0.123763
  11 H :    0.097012
Sum of atomic charges:   -0.0000000

LOEWDIN ATOMIC CHARGES
----------------------
   0 C :   -0.002887
   1 O :   -0.007324
   2 H :   -0.000365
   3 H :   -0.000444
   4 H :   -0.000053
   5 H :   -0.000064
   6 C :   -0.422026
   7 O :   -0.063434
   8 H :    0.195400
   9 H :    0.097362
  10 H :    0.117937
  11 H :    0.085898

  Mayer bond orders larger than 0.1
B(  6-C ,  7-O ) :   0.9918 B(  6-C ,  9-H ) :   0.9810 B(  6-C , 10-H ) :   0.9676
B(  6-C , 11-H ) :   0.9799 B(  7-O ,  8-H ) :   0.9025

Dispersion correction           -0.000211582
FINAL SINGLE POINT ENERGY      -115.725690312122

DIPOLE MOMENT
-------------
                                X             Y             Z
Electronic contribution:     -1.07030      -0.06041       1.60408
Nuclear contribution   :      1.72042       0.33501      -1.74313
                        -----------------------------------------
Total Dipole Moment    :      0.65012       0.27460      -0.13904
                        -----------------------------------------
Magnitude (a.u.)       :      0.71930
Magnitude (Debye)      :      1.82832

Rotational constants in cm-1:     4.240240     0.866172     0.817705
Rotational constants in MHz : 127119.195286 25967.172471 24514.193636

                             ****ORCA TERMINATED NORMALLY****
TOTAL RUN TIME: 0 days 0 hours 1 minutes 8 seconds 404 msec
