                         Program Version 4.1.2  - RELEASE  -
|  1> #Run DFT-D3 single point of the dimer
|  2> ! wB97X-D3 def2-TZVP TIGHTSCF CHELPG PMODEL PAL8
|  3>
|  4> %base "17-57_DFT_AB"
|  5>
|  6> %scf
|  7> MaxIter 1000
|  8> end
|  9>
| 10> * xyz 0 1
| 11>   C                      -8.719428            -0.806688            2.256153
| 12>   O                      -10.041191           -1.234781            2.494380
| 13>   H                      -10.144787           -1.521010            3.361301
| 14>   H                      -8.220031            -0.383521            3.209562
| 15>   H                      -8.128405            -1.587988            1.732554
| 16>   H                      -8.726105            0.059084             1.528395
| 17>   C                      -5.938019            1.396045             -1.010357
| 18>   O                      -5.780449            2.649759             -0.478520
| 19>   H                      -5.146989            3.115646             -1.048343
| 20>   H                      -5.745337            1.479658             -2.080329
| 21>   H                      -5.070851            0.715713             -0.818665
| 22>   H                      -6.876233            0.889256             -0.793456
| 23> *
| 24>
| 25> #Run DFT-D3 single point of the molecule with dimer basis set
| 26> $new_job
| 27> %base "17-57_DFT_A"
| 28> ! wB97X-D3 def2-TZVP TIGHTSCF CHELPG PMODEL
| 29>
| 30> %scf
| 31> MaxIter 1000
| 32> end
| 33>
| 34> * xyz 0 1
| 35>   C                      -8.719428            -0.806688            2.256153
| 36>   O                      -10.041191           -1.234781            2.494380
| 37>   H                      -10.144787           -1.521010            3.361301
| 38>   H                      -8.220031            -0.383521            3.209562
| 39>   H                      -8.128405            -1.587988            1.732554
| 40>   H                      -8.726105            0.059084             1.528395
| 41>   C                    : -5.938019            1.396045             -1.010357
| 42>   O                    : -5.780449            2.649759             -0.478520
| 43>   H                    : -5.146989            3.115646             -1.048343
| 44>   H                    : -5.745337            1.479658             -2.080329
| 45>   H                    : -5.070851            0.715713             -0.818665
| 46>   H                    : -6.876233            0.889256             -0.793456
| 47> *
| 48>
| 49> #Run DFT-D3 single point of the particle with dimer basis set
| 50> $new_job
| 51> %base "17-57_DFT_B"
| 52> ! wB97X-D3 def2-TZVP TIGHTSCF CHELPG PMODEL
| 53>
| 54> %scf
| 55> MaxIter 1000
| 56> end
| 57>
| 58> * xyz 0 1
| 59>   C                    : -8.719428            -0.806688            2.256153
| 60>   O                    : -10.041191           -1.234781            2.494380
| 61>   H                    : -10.144787           -1.521010            3.361301
| 62>   H                    : -8.220031            -0.383521            3.209562
| 63>   H                    : -8.128405            -1.587988            1.732554
| 64>   H                    : -8.726105            0.059084             1.528395
| 65>   C                      -5.938019            1.396045             -1.010357
| 66>   O                      -5.780449            2.649759             -0.478520
| 67>   H                      -5.146989            3.115646             -1.048343
| 68>   H                      -5.745337            1.479658             -2.080329
| 69>   H                      -5.070851            0.715713             -0.818665
| 70>   H                      -6.876233            0.889256             -0.793456
| 71> *
| 72>
| 73>                          ****END OF INPUT****
 Total Charge           Charge          ....    0
 Multiplicity           Mult            ....    1
 Number of Electrons    NEL             ....   36
Dispersion correction           -0.000885527
FINAL SINGLE POINT ENERGY      -231.457578825131
Dispersion correction           -0.000267392
FINAL SINGLE POINT ENERGY      -115.730450829281

CARTESIAN COORDINATES (ANGSTROEM)
---------------------------------
  C     -8.719428   -0.806688    2.256153
  O    -10.041191   -1.234781    2.494380
  H    -10.144787   -1.521010    3.361301
  H     -8.220031   -0.383521    3.209562
  H     -8.128405   -1.587988    1.732554
  H     -8.726105    0.059084    1.528395
  C     -5.938019    1.396045   -1.010357
  O     -5.780449    2.649759   -0.478520
  H     -5.146989    3.115646   -1.048343
  H     -5.745337    1.479658   -2.080329
  H     -5.070851    0.715713   -0.818665
  H     -6.876233    0.889256   -0.793456

 Multiplicity           Mult            ....    1
 Number of Electrons    NEL             ....   18
 Basis Dimension        Dim             ....  172

ORBITAL ENERGIES
----------------

  NO   OCC          E(Eh)            E(eV)
   0   2.0000     -19.232489      -523.3426
   1   2.0000     -10.311799      -280.5983
   2   2.0000      -1.150905       -31.3177
   3   2.0000      -0.791755       -21.5447
   4   2.0000      -0.625796       -17.0288
   5   2.0000      -0.544526       -14.8173
   6   2.0000      -0.530305       -14.4303
   7   2.0000      -0.436045       -11.8654
   8   2.0000      -0.363514        -9.8917
   9   0.0000       0.087868         2.3910
  10   0.0000       0.109122         2.9694
  11   0.0000       0.147546         4.0149
  12   0.0000       0.171209         4.6588
  13   0.0000       0.193048         5.2531

MULLIKEN ATOMIC CHARGES
-----------------------
   0 C :   -0.000347
   1 O :    0.000013
   2 H :    0.000001
   3 H :   -0.000009
   4 H :   -0.000024
   5 H :    0.000560
   6 C :   -0.175812
   7 O :   -0.458280
   8 H :    0.320259
   9 H :    0.098370
  10 H :    0.087655
  11 H :    0.127612
Sum of atomic charges:    0.0000000

LOEWDIN ATOMIC CHARGES
----------------------
   0 C :   -0.000295
   1 O :   -0.000003
   2 H :   -0.000000
   3 H :   -0.000003
   4 H :   -0.000053
   5 H :   -0.000454
   6 C :   -0.428403
   7 O :   -0.049787
   8 H :    0.183658
   9 H :    0.094202
  10 H :    0.095364
  11 H :    0.105775

  Mayer bond orders larger than 0.1
B(  6-C ,  7-O ) :   1.0085 B(  6-C ,  9-H ) :   0.9958 B(  6-C , 10-H ) :   0.9694
B(  6-C , 11-H ) :   0.9679 B(  7-O ,  8-H ) :   0.8949

Dispersion correction           -0.000218295
FINAL SINGLE POINT ENERGY      -115.726608199701

DIPOLE MOMENT
-------------
                                X             Y             Z
Electronic contribution:     -0.11477       1.68783       0.98227
Nuclear contribution   :      0.45399      -1.83491      -1.56584
                        -----------------------------------------
Total Dipole Moment    :      0.33922      -0.14709      -0.58357
                        -----------------------------------------
Magnitude (a.u.)       :      0.69084
Magnitude (Debye)      :      1.75597

Rotational constants in cm-1:     4.319980     0.878563     0.828366
Rotational constants in MHz : 129509.740771 26338.664179 24833.791624

                             ****ORCA TERMINATED NORMALLY****
TOTAL RUN TIME: 0 days 0 hours 1 minutes 10 seconds 446 msec
