                         Program Version 4.1.2  - RELEASE  -
|  1> #Run DFT-D3 single point of the dimer
|  2> ! wB97X-D3 def2-TZVP TIGHTSCF CHELPG PMODEL PAL8
|  3>
|  4> %base "14-54_DFT_AB"
|  5>
|  6> %scf
|  7> MaxIter 1000
|  8> end
|  9>
| 10> * xyz 0 1
| 11>   C                      -3.823675            4.289136             -8.766144
| 12>   O                      -4.377185            5.267155             -9.559197
| 13>   H                      -4.576584            6.000657             -8.961619
| 14>   H                      -2.831440            4.544331             -8.466993
| 15>   H                      -4.245802            4.234392             -7.782589
| 16>   H                      -3.906820            3.308003             -9.284825
| 17>   C                      -1.453790            3.205992             -5.926784
| 18>   O                      -1.457875            2.228123             -6.998101
| 19>   H                      -0.703341            1.666101             -6.898070
| 20>   H                      -1.332936            2.770356             -4.893537
| 21>   H                      -0.664551            4.000581             -6.041633
| 22>   H                      -2.377194            3.697130             -5.930275
| 23> *
| 24>
| 25> #Run DFT-D3 single point of the molecule with dimer basis set
| 26> $new_job
| 27> %base "14-54_DFT_A"
| 28> ! wB97X-D3 def2-TZVP TIGHTSCF CHELPG PMODEL
| 29>
| 30> %scf
| 31> MaxIter 1000
| 32> end
| 33>
| 34> * xyz 0 1
| 35>   C                      -3.823675            4.289136             -8.766144
| 36>   O                      -4.377185            5.267155             -9.559197
| 37>   H                      -4.576584            6.000657             -8.961619
| 38>   H                      -2.831440            4.544331             -8.466993
| 39>   H                      -4.245802            4.234392             -7.782589
| 40>   H                      -3.906820            3.308003             -9.284825
| 41>   C                    : -1.453790            3.205992             -5.926784
| 42>   O                    : -1.457875            2.228123             -6.998101
| 43>   H                    : -0.703341            1.666101             -6.898070
| 44>   H                    : -1.332936            2.770356             -4.893537
| 45>   H                    : -0.664551            4.000581             -6.041633
| 46>   H                    : -2.377194            3.697130             -5.930275
| 47> *
| 48>
| 49> #Run DFT-D3 single point of the particle with dimer basis set
| 50> $new_job
| 51> %base "14-54_DFT_B"
| 52> ! wB97X-D3 def2-TZVP TIGHTSCF CHELPG PMODEL
| 53>
| 54> %scf
| 55> MaxIter 1000
| 56> end
| 57>
| 58> * xyz 0 1
| 59>   C                    : -3.823675            4.289136             -8.766144
| 60>   O                    : -4.377185            5.267155             -9.559197
| 61>   H                    : -4.576584            6.000657             -8.961619
| 62>   H                    : -2.831440            4.544331             -8.466993
| 63>   H                    : -4.245802            4.234392             -7.782589
| 64>   H                    : -3.906820            3.308003             -9.284825
| 65>   C                      -1.453790            3.205992             -5.926784
| 66>   O                      -1.457875            2.228123             -6.998101
| 67>   H                      -0.703341            1.666101             -6.898070
| 68>   H                      -1.332936            2.770356             -4.893537
| 69>   H                      -0.664551            4.000581             -6.041633
| 70>   H                      -2.377194            3.697130             -5.930275
| 71> *
| 72>
| 73>                          ****END OF INPUT****
 Total Charge           Charge          ....    0
 Multiplicity           Mult            ....    1
 Number of Electrons    NEL             ....   36
Dispersion correction           -0.001708577
FINAL SINGLE POINT ENERGY      -231.464773606655
Dispersion correction           -0.000209828
FINAL SINGLE POINT ENERGY      -115.730074942640

CARTESIAN COORDINATES (ANGSTROEM)
---------------------------------
  C     -3.823675    4.289136   -8.766144
  O     -4.377185    5.267155   -9.559197
  H     -4.576584    6.000657   -8.961619
  H     -2.831440    4.544331   -8.466993
  H     -4.245802    4.234392   -7.782589
  H     -3.906820    3.308003   -9.284825
  C     -1.453790    3.205992   -5.926784
  O     -1.457875    2.228123   -6.998101
  H     -0.703341    1.666101   -6.898070
  H     -1.332936    2.770356   -4.893537
  H     -0.664551    4.000581   -6.041633
  H     -2.377194    3.697130   -5.930275

 Multiplicity           Mult            ....    1
 Number of Electrons    NEL             ....   18
 Basis Dimension        Dim             ....  172

ORBITAL ENERGIES
----------------

  NO   OCC          E(Eh)            E(eV)
   0   2.0000     -19.231953      -523.3280
   1   2.0000     -10.318255      -280.7740
   2   2.0000      -1.129032       -30.7225
   3   2.0000      -0.799690       -21.7607
   4   2.0000      -0.606191       -16.4953
   5   2.0000      -0.531217       -14.4551
   6   2.0000      -0.526409       -14.3243
   7   2.0000      -0.439370       -11.9559
   8   2.0000      -0.376781       -10.2527
   9   0.0000       0.093584         2.5466
  10   0.0000       0.123298         3.3551
  11   0.0000       0.148939         4.0528
  12   0.0000       0.179429         4.8825
  13   0.0000       0.194357         5.2887

MULLIKEN ATOMIC CHARGES
-----------------------
   0 C :    0.000588
   1 O :    0.000014
   2 H :    0.000022
   3 H :    0.000232
   4 H :   -0.000811
   5 H :   -0.000985
   6 C :   -0.184036
   7 O :   -0.470372
   8 H :    0.309819
   9 H :    0.109096
  10 H :    0.104368
  11 H :    0.132065
Sum of atomic charges:    0.0000000

LOEWDIN ATOMIC CHARGES
----------------------
   0 C :   -0.004642
   1 O :   -0.000023
   2 H :   -0.000008
   3 H :   -0.002046
   4 H :   -0.001197
   5 H :   -0.000638
   6 C :   -0.361447
   7 O :   -0.087159
   8 H :    0.155946
   9 H :    0.102533
  10 H :    0.101000
  11 H :    0.097680

  Mayer bond orders larger than 0.1
B(  6-C ,  7-O ) :   1.0004 B(  6-C ,  9-H ) :   0.9709 B(  6-C , 10-H ) :   0.9729
B(  6-C , 11-H ) :   0.9764 B(  7-O ,  8-H ) :   0.9040

Dispersion correction           -0.000278673
FINAL SINGLE POINT ENERGY      -115.733581585926

DIPOLE MOMENT
-------------
                                X             Y             Z
Electronic contribution:     -0.15364      -1.21671      -1.44500
Nuclear contribution   :      0.61182       1.25967       1.95326
                        -----------------------------------------
Total Dipole Moment    :      0.45819       0.04296       0.50827
                        -----------------------------------------
Magnitude (a.u.)       :      0.68565
Magnitude (Debye)      :      1.74278

Rotational constants in cm-1:     4.350811     0.786730     0.765921
Rotational constants in MHz : 130434.042241 23585.559563 22961.740696

                             ****ORCA TERMINATED NORMALLY****
TOTAL RUN TIME: 0 days 0 hours 1 minutes 2 seconds 181 msec
