                         Program Version 4.1.2  - RELEASE  -
|  1> #Run DFT-D3 single point of the dimer
|  2> ! wB97X-D3 def2-TZVP TIGHTSCF  CHELPG PAL8
|  3>
|  4> %base "39_charges"
|  5>
|  6> %scf
|  7> MaxIter 1000
|  8> end
|  9> %output
| 10>   Print[ P_Mayer ] 1
| 11>   Print[ P_NatPop ] 1
| 12>   Print[ P_Hirshfeld ] 1
| 13>   Print[ P_Mulliken ] 1
| 14>   Print [ P_Loewdin ] 1
| 15> end
| 16>
| 17> * xyz 0 1
| 18>   C                      2.423546             4.429680             -11.388803
| 19>   O                      3.783548             4.060196             -11.070517
| 20>   H                      4.287586             3.897044             -11.841828
| 21>   H                      2.061311             4.948973             -10.503470
| 22>   H                      2.311559             5.098194             -12.221833
| 23>   H                      1.884603             3.455783             -11.475382
| 24> *
| 25>
| 26>                          ****END OF INPUT****

CARTESIAN COORDINATES (ANGSTROEM)
---------------------------------
  C      2.423546    4.429680  -11.388803
  O      3.783548    4.060196  -11.070517
  H      4.287586    3.897044  -11.841828
  H      2.061311    4.948973  -10.503470
  H      2.311559    5.098194  -12.221833
  H      1.884603    3.455783  -11.475382

 Total Charge           Charge          ....    0
 Multiplicity           Mult            ....    1
 Number of Electrons    NEL             ....   18
 Basis Dimension        Dim             ....   86

ORBITAL ENERGIES
----------------

  NO   OCC          E(Eh)            E(eV)
   0   2.0000     -19.222172      -523.0619
   1   2.0000     -10.314871      -280.6819
   2   2.0000      -1.127468       -30.6800
   3   2.0000      -0.799387       -21.7524
   4   2.0000      -0.606635       -16.5074
   5   2.0000      -0.543169       -14.7804
   6   2.0000      -0.519501       -14.1364
   7   2.0000      -0.432547       -11.7702
   8   2.0000      -0.371960       -10.1215
   9   0.0000       0.119390         3.2488
  10   0.0000       0.156622         4.2619
  11   0.0000       0.196062         5.3351
  12   0.0000       0.204002         5.5512
  13   0.0000       0.225927         6.1478

MULLIKEN ATOMIC CHARGES
-----------------------
   0 C :   -0.161279
   1 O :   -0.486960
   2 H :    0.307914
   3 H :    0.121368
   4 H :    0.111196
   5 H :    0.107761
Sum of atomic charges:   -0.0000000

LOEWDIN ATOMIC CHARGES
----------------------
   0 C :   -0.356691
   1 O :   -0.093206
   2 H :    0.145431
   3 H :    0.108514
   4 H :    0.091567
   5 H :    0.104385

  Mayer bond orders larger than 0.1
B(  0-C ,  1-O ) :   0.9884 B(  0-C ,  3-H ) :   0.9753 B(  0-C ,  4-H ) :   0.9691
B(  0-C ,  5-H ) :   0.9820 B(  1-O ,  2-H ) :   0.9063

Dispersion correction           -0.000252605
FINAL SINGLE POINT ENERGY      -115.732774406211

DIPOLE MOMENT
-------------
                                X             Y             Z
Electronic contribution:      1.59856      -0.35424       0.36010
Nuclear contribution   :     -1.84084       0.42835      -0.99346
                        -----------------------------------------
Total Dipole Moment    :     -0.24228       0.07411      -0.63336
                        -----------------------------------------
Magnitude (a.u.)       :      0.68215
Magnitude (Debye)      :      1.73390

Rotational constants in cm-1:     4.284702     0.804277     0.786151
Rotational constants in MHz : 128452.147659 24111.608494 23568.203480

                             ****ORCA TERMINATED NORMALLY****
TOTAL RUN TIME: 0 days 0 hours 0 minutes 41 seconds 938 msec
