                         Program Version 4.1.2  - RELEASE  -
|  1> #Run DFT-D3 single point of the dimer
|  2> ! wB97X-D3 def2-TZVP TIGHTSCF CHELPG PMODEL PAL8
|  3>
|  4> %base "20-155_DFT_AB"
|  5>
|  6> %scf
|  7> MaxIter 1000
|  8> end
|  9>
| 10> * xyz 0 1
| 11>   C                      9.852805             2.536986             6.346321
| 12>   O                      10.621081            3.442054             7.096839
| 13>   H                      11.562770            3.264983             7.108243
| 14>   H                      10.217700            2.501247             5.300806
| 15>   H                      9.950374             1.489941             6.691329
| 16>   H                      8.787887             2.747556             6.456401
| 17>   C                      10.919950            5.229899             4.053784
| 18>   O                      11.224414            5.982413             5.237065
| 19>   H                      11.046507            5.502677             6.047237
| 20>   H                      10.228900            4.416066             4.252768
| 21>   H                      10.352604            5.947194             3.401604
| 22>   H                      11.862323            4.890610             3.525476
| 23> *
| 24>
| 25> #Run DFT-D3 single point of the molecule with dimer basis set
| 26> $new_job
| 27> %base "20-155_DFT_A"
| 28> ! wB97X-D3 def2-TZVP TIGHTSCF CHELPG PMODEL
| 29>
| 30> %scf
| 31> MaxIter 1000
| 32> end
| 33>
| 34> * xyz 0 1
| 35>   C                      9.852805             2.536986             6.346321
| 36>   O                      10.621081            3.442054             7.096839
| 37>   H                      11.562770            3.264983             7.108243
| 38>   H                      10.217700            2.501247             5.300806
| 39>   H                      9.950374             1.489941             6.691329
| 40>   H                      8.787887             2.747556             6.456401
| 41>   C                    : 10.919950            5.229899             4.053784
| 42>   O                    : 11.224414            5.982413             5.237065
| 43>   H                    : 11.046507            5.502677             6.047237
| 44>   H                    : 10.228900            4.416066             4.252768
| 45>   H                    : 10.352604            5.947194             3.401604
| 46>   H                    : 11.862323            4.890610             3.525476
| 47> *
| 48>
| 49> #Run DFT-D3 single point of the particle with dimer basis set
| 50> $new_job
| 51> %base "20-155_DFT_B"
| 52> ! wB97X-D3 def2-TZVP TIGHTSCF CHELPG PMODEL
| 53>
| 54> %scf
| 55> MaxIter 1000
| 56> end
| 57>
| 58> * xyz 0 1
| 59>   C                    : 9.852805             2.536986             6.346321
| 60>   O                    : 10.621081            3.442054             7.096839
| 61>   H                    : 11.562770            3.264983             7.108243
| 62>   H                    : 10.217700            2.501247             5.300806
| 63>   H                    : 9.950374             1.489941             6.691329
| 64>   H                    : 8.787887             2.747556             6.456401
| 65>   C                      10.919950            5.229899             4.053784
| 66>   O                      11.224414            5.982413             5.237065
| 67>   H                      11.046507            5.502677             6.047237
| 68>   H                      10.228900            4.416066             4.252768
| 69>   H                      10.352604            5.947194             3.401604
| 70>   H                      11.862323            4.890610             3.525476
| 71> *
| 72>
| 73>                          ****END OF INPUT****
 Total Charge           Charge          ....    0
 Multiplicity           Mult            ....    1
 Number of Electrons    NEL             ....   36
Dispersion correction           -0.002219538
FINAL SINGLE POINT ENERGY      -231.473258657316
Dispersion correction           -0.000254709
FINAL SINGLE POINT ENERGY      -115.734376053741

CARTESIAN COORDINATES (ANGSTROEM)
---------------------------------
  C      9.852805    2.536986    6.346321
  O     10.621081    3.442054    7.096839
  H     11.562770    3.264983    7.108243
  H     10.217700    2.501247    5.300806
  H      9.950374    1.489941    6.691329
  H      8.787887    2.747556    6.456401
  C     10.919950    5.229899    4.053784
  O     11.224414    5.982413    5.237065
  H     11.046507    5.502677    6.047237
  H     10.228900    4.416066    4.252768
  H     10.352604    5.947194    3.401604
  H     11.862323    4.890610    3.525476

 Multiplicity           Mult            ....    1
 Number of Electrons    NEL             ....   18
 Basis Dimension        Dim             ....  172

ORBITAL ENERGIES
----------------

  NO   OCC          E(Eh)            E(eV)
   0   2.0000     -19.226925      -523.1912
   1   2.0000     -10.321830      -280.8713
   2   2.0000      -1.126448       -30.6522
   3   2.0000      -0.793408       -21.5897
   4   2.0000      -0.608305       -16.5528
   5   2.0000      -0.537770       -14.6335
   6   2.0000      -0.519073       -14.1247
   7   2.0000      -0.428752       -11.6669
   8   2.0000      -0.372370       -10.1327
   9   0.0000       0.071362         1.9418
  10   0.0000       0.132183         3.5969
  11   0.0000       0.147990         4.0270
  12   0.0000       0.164005         4.4628
  13   0.0000       0.194135         5.2827

MULLIKEN ATOMIC CHARGES
-----------------------
   0 C :    0.000255
   1 O :   -0.002129
   2 H :   -0.001341
   3 H :   -0.000532
   4 H :    0.000078
   5 H :   -0.000280
   6 C :   -0.159687
   7 O :   -0.485815
   8 H :    0.315135
   9 H :    0.108553
  10 H :    0.117014
  11 H :    0.108750
Sum of atomic charges:   -0.0000000

LOEWDIN ATOMIC CHARGES
----------------------
   0 C :   -0.008380
   1 O :   -0.007089
   2 H :   -0.002168
   3 H :   -0.006004
   4 H :   -0.000052
   5 H :   -0.000224
   6 C :   -0.366842
   7 O :   -0.090016
   8 H :    0.163585
   9 H :    0.099731
  10 H :    0.110970
  11 H :    0.106489

  Mayer bond orders larger than 0.1
B(  6-C ,  7-O ) :   0.9884 B(  6-C ,  9-H ) :   0.9740 B(  6-C , 10-H ) :   0.9774
B(  6-C , 11-H ) :   0.9713 B(  7-O ,  8-H ) :   0.9044

Dispersion correction           -0.000269662
FINAL SINGLE POINT ENERGY      -115.733196326330

DIPOLE MOMENT
-------------
                                X             Y             Z
Electronic contribution:      0.45087       0.91154       1.43162
Nuclear contribution   :     -0.72354      -1.53811      -1.37899
                        -----------------------------------------
Total Dipole Moment    :     -0.27267      -0.62657       0.05263
                        -----------------------------------------
Magnitude (a.u.)       :      0.68535
Magnitude (Debye)      :      1.74203

Rotational constants in cm-1:     4.178434     0.802463     0.782943
Rotational constants in MHz : 125266.300418 24057.221817 23472.035323

                             ****ORCA TERMINATED NORMALLY****
TOTAL RUN TIME: 0 days 0 hours 1 minutes 8 seconds 563 msec
