                         Program Version 4.1.2  - RELEASE  -
|  1> #Run DFT-D3 single point of the dimer
|  2> ! wB97X-D3 def2-TZVP TIGHTSCF CHELPG PMODEL PAL8
|  3>
|  4> %base "17-30_DFT_AB"
|  5>
|  6> %scf
|  7> MaxIter 1000
|  8> end
|  9>
| 10> * xyz 0 1
| 11>   C                      -1.552654            -0.347999            4.263472
| 12>   O                      -0.675985            -0.786314            3.238730
| 13>   H                      -1.311521            -0.903148            2.507645
| 14>   H                      -1.893925            0.644904             3.934240
| 15>   H                      -2.420135            -0.936720            4.503697
| 16>   H                      -1.047543            -0.169033            5.200596
| 17>   C                      -0.553660            0.821241             9.795528
| 18>   O                      0.118719             -0.429037            9.661285
| 19>   H                      1.089943             -0.350548            9.540765
| 20>   H                      -1.549963            0.685756             10.157904
| 21>   H                      -0.102725            1.589450             10.454278
| 22>   H                      -0.618877            1.299944             8.856339
| 23> *
| 24>
| 25> #Run DFT-D3 single point of the molecule with dimer basis set
| 26> $new_job
| 27> %base "17-30_DFT_A"
| 28> ! wB97X-D3 def2-TZVP TIGHTSCF CHELPG PMODEL
| 29>
| 30> %scf
| 31> MaxIter 1000
| 32> end
| 33>
| 34> * xyz 0 1
| 35>   C                      -1.552654            -0.347999            4.263472
| 36>   O                      -0.675985            -0.786314            3.238730
| 37>   H                      -1.311521            -0.903148            2.507645
| 38>   H                      -1.893925            0.644904             3.934240
| 39>   H                      -2.420135            -0.936720            4.503697
| 40>   H                      -1.047543            -0.169033            5.200596
| 41>   C                    : -0.553660            0.821241             9.795528
| 42>   O                    : 0.118719             -0.429037            9.661285
| 43>   H                    : 1.089943             -0.350548            9.540765
| 44>   H                    : -1.549963            0.685756             10.157904
| 45>   H                    : -0.102725            1.589450             10.454278
| 46>   H                    : -0.618877            1.299944             8.856339
| 47> *
| 48>
| 49> #Run DFT-D3 single point of the particle with dimer basis set
| 50> $new_job
| 51> %base "17-30_DFT_B"
| 52> ! wB97X-D3 def2-TZVP TIGHTSCF CHELPG PMODEL
| 53>
| 54> %scf
| 55> MaxIter 1000
| 56> end
| 57>
| 58> * xyz 0 1
| 59>   C                    : -1.552654            -0.347999            4.263472
| 60>   O                    : -0.675985            -0.786314            3.238730
| 61>   H                    : -1.311521            -0.903148            2.507645
| 62>   H                    : -1.893925            0.644904             3.934240
| 63>   H                    : -2.420135            -0.936720            4.503697
| 64>   H                    : -1.047543            -0.169033            5.200596
| 65>   C                      -0.553660            0.821241             9.795528
| 66>   O                      0.118719             -0.429037            9.661285
| 67>   H                      1.089943             -0.350548            9.540765
| 68>   H                      -1.549963            0.685756             10.157904
| 69>   H                      -0.102725            1.589450             10.454278
| 70>   H                      -0.618877            1.299944             8.856339
| 71> *
| 72>
| 73>                          ****END OF INPUT****
 Total Charge           Charge          ....    0
 Multiplicity           Mult            ....    1
 Number of Electrons    NEL             ....   36
Dispersion correction           -0.000657210
FINAL SINGLE POINT ENERGY      -231.463240421377
Dispersion correction           -0.000224197
FINAL SINGLE POINT ENERGY      -115.730800836072

CARTESIAN COORDINATES (ANGSTROEM)
---------------------------------
  C     -1.552654   -0.347999    4.263472
  O     -0.675985   -0.786314    3.238730
  H     -1.311521   -0.903148    2.507645
  H     -1.893925    0.644904    3.934240
  H     -2.420135   -0.936720    4.503697
  H     -1.047543   -0.169033    5.200596
  C     -0.553660    0.821241    9.795528
  O      0.118719   -0.429037    9.661285
  H      1.089943   -0.350548    9.540765
  H     -1.549963    0.685756   10.157904
  H     -0.102725    1.589450   10.454278
  H     -0.618877    1.299944    8.856339

 Multiplicity           Mult            ....    1
 Number of Electrons    NEL             ....   18
 Basis Dimension        Dim             ....  172

ORBITAL ENERGIES
----------------

  NO   OCC          E(Eh)            E(eV)
   0   2.0000     -19.230873      -523.2987
   1   2.0000     -10.308602      -280.5113
   2   2.0000      -1.124410       -30.5967
   3   2.0000      -0.802192       -21.8287
   4   2.0000      -0.610613       -16.6156
   5   2.0000      -0.539442       -14.6790
   6   2.0000      -0.524629       -14.2759
   7   2.0000      -0.429945       -11.6994
   8   2.0000      -0.372629       -10.1397
   9   0.0000       0.088287         2.4024
  10   0.0000       0.113959         3.1010
  11   0.0000       0.148556         4.0424
  12   0.0000       0.167634         4.5616
  13   0.0000       0.195884         5.3303

MULLIKEN ATOMIC CHARGES
-----------------------
   0 C :   -0.000028
   1 O :    0.000001
   2 H :    0.000000
   3 H :    0.000012
   4 H :   -0.000002
   5 H :   -0.000091
   6 C :   -0.160520
   7 O :   -0.491844
   8 H :    0.319476
   9 H :    0.123240
  10 H :    0.101337
  11 H :    0.108419
Sum of atomic charges:   -0.0000000

LOEWDIN ATOMIC CHARGES
----------------------
   0 C :   -0.000032
   1 O :   -0.000001
   2 H :   -0.000000
   3 H :   -0.000001
   4 H :   -0.000001
   5 H :   -0.000079
   6 C :   -0.373852
   7 O :   -0.095433
   8 H :    0.179442
   9 H :    0.104342
  10 H :    0.097738
  11 H :    0.087876

  Mayer bond orders larger than 0.1
B(  6-C ,  7-O ) :   0.9986 B(  6-C ,  9-H ) :   0.9733 B(  6-C , 10-H ) :   0.9727
B(  6-C , 11-H ) :   0.9794 B(  7-O ,  8-H ) :   0.8908

Dispersion correction           -0.000271893
FINAL SINGLE POINT ENERGY      -115.732139587678

DIPOLE MOMENT
-------------
                                X             Y             Z
Electronic contribution:      0.74501      -1.70775      -0.13670
Nuclear contribution   :     -0.40819       2.28401       0.10889
                        -----------------------------------------
Total Dipole Moment    :      0.33682       0.57625      -0.02782
                        -----------------------------------------
Magnitude (a.u.)       :      0.66805
Magnitude (Debye)      :      1.69804

Rotational constants in cm-1:     4.565646     0.806749     0.777136
Rotational constants in MHz : 136874.614040 24185.728903 23297.943898

                             ****ORCA TERMINATED NORMALLY****
TOTAL RUN TIME: 0 days 0 hours 1 minutes 4 seconds 985 msec
