                         Program Version 4.1.2  - RELEASE  -
|  1> #Run DFT-D3 single point of the dimer
|  2> ! wB97X-D3 def2-TZVP TIGHTSCF CHELPG PMODEL PAL8
|  3>
|  4> %base "3-161_DFT_AB"
|  5>
|  6> %scf
|  7> MaxIter 1000
|  8> end
|  9>
| 10> * xyz 0 1
| 11>   C                      5.111816             11.315297            -1.583076
| 12>   O                      4.924592             11.111814            -2.969516
| 13>   H                      4.468329             10.305470            -3.080474
| 14>   H                      5.285687             10.443004            -1.053035
| 15>   H                      5.970411             11.931998            -1.384776
| 16>   H                      4.228074             11.748586            -1.120460
| 17>   C                      8.783038             8.232855             -1.990655
| 18>   O                      7.959055             9.017466             -2.803580
| 19>   H                      7.222606             8.571981             -3.252120
| 20>   H                      8.243083             8.009872             -1.036419
| 21>   H                      9.057238             7.339805             -2.492352
| 22>   H                      9.702328             8.807065             -1.680581
| 23> *
| 24>
| 25> #Run DFT-D3 single point of the molecule with dimer basis set
| 26> $new_job
| 27> %base "3-161_DFT_A"
| 28> ! wB97X-D3 def2-TZVP TIGHTSCF CHELPG PMODEL
| 29>
| 30> %scf
| 31> MaxIter 1000
| 32> end
| 33>
| 34> * xyz 0 1
| 35>   C                      5.111816             11.315297            -1.583076
| 36>   O                      4.924592             11.111814            -2.969516
| 37>   H                      4.468329             10.305470            -3.080474
| 38>   H                      5.285687             10.443004            -1.053035
| 39>   H                      5.970411             11.931998            -1.384776
| 40>   H                      4.228074             11.748586            -1.120460
| 41>   C                    : 8.783038             8.232855             -1.990655
| 42>   O                    : 7.959055             9.017466             -2.803580
| 43>   H                    : 7.222606             8.571981             -3.252120
| 44>   H                    : 8.243083             8.009872             -1.036419
| 45>   H                    : 9.057238             7.339805             -2.492352
| 46>   H                    : 9.702328             8.807065             -1.680581
| 47> *
| 48>
| 49> #Run DFT-D3 single point of the particle with dimer basis set
| 50> $new_job
| 51> %base "3-161_DFT_B"
| 52> ! wB97X-D3 def2-TZVP TIGHTSCF CHELPG PMODEL
| 53>
| 54> %scf
| 55> MaxIter 1000
| 56> end
| 57>
| 58> * xyz 0 1
| 59>   C                    : 5.111816             11.315297            -1.583076
| 60>   O                    : 4.924592             11.111814            -2.969516
| 61>   H                    : 4.468329             10.305470            -3.080474
| 62>   H                    : 5.285687             10.443004            -1.053035
| 63>   H                    : 5.970411             11.931998            -1.384776
| 64>   H                    : 4.228074             11.748586            -1.120460
| 65>   C                      8.783038             8.232855             -1.990655
| 66>   O                      7.959055             9.017466             -2.803580
| 67>   H                      7.222606             8.571981             -3.252120
| 68>   H                      8.243083             8.009872             -1.036419
| 69>   H                      9.057238             7.339805             -2.492352
| 70>   H                      9.702328             8.807065             -1.680581
| 71> *
| 72>
| 73>                          ****END OF INPUT****
 Total Charge           Charge          ....    0
 Multiplicity           Mult            ....    1
 Number of Electrons    NEL             ....   36
Dispersion correction           -0.001366467
FINAL SINGLE POINT ENERGY      -231.465163441425
Dispersion correction           -0.000231786
FINAL SINGLE POINT ENERGY      -115.732890258308

CARTESIAN COORDINATES (ANGSTROEM)
---------------------------------
  C      5.111816   11.315297   -1.583076
  O      4.924592   11.111814   -2.969516
  H      4.468329   10.305470   -3.080474
  H      5.285687   10.443004   -1.053035
  H      5.970411   11.931998   -1.384776
  H      4.228074   11.748586   -1.120460
  C      8.783038    8.232855   -1.990655
  O      7.959055    9.017466   -2.803580
  H      7.222606    8.571981   -3.252120
  H      8.243083    8.009872   -1.036419
  H      9.057238    7.339805   -2.492352
  H      9.702328    8.807065   -1.680581

 Multiplicity           Mult            ....    1
 Number of Electrons    NEL             ....   18
 Basis Dimension        Dim             ....  172

ORBITAL ENERGIES
----------------

  NO   OCC          E(Eh)            E(eV)
   0   2.0000     -19.225838      -523.1616
   1   2.0000     -10.314430      -280.6699
   2   2.0000      -1.132583       -30.8192
   3   2.0000      -0.795357       -21.6428
   4   2.0000      -0.612685       -16.6720
   5   2.0000      -0.545265       -14.8374
   6   2.0000      -0.528100       -14.3703
   7   2.0000      -0.419269       -11.4089
   8   2.0000      -0.369288       -10.0488
   9   0.0000       0.085861         2.3364
  10   0.0000       0.126693         3.4475
  11   0.0000       0.147010         4.0003
  12   0.0000       0.176784         4.8105
  13   0.0000       0.191418         5.2088

MULLIKEN ATOMIC CHARGES
-----------------------
   0 C :    0.000461
   1 O :   -0.000312
   2 H :   -0.000533
   3 H :   -0.003445
   4 H :   -0.000469
   5 H :   -0.000358
   6 C :   -0.139290
   7 O :   -0.492068
   8 H :    0.322846
   9 H :    0.094450
  10 H :    0.102890
  11 H :    0.115829
Sum of atomic charges:    0.0000000

LOEWDIN ATOMIC CHARGES
----------------------
   0 C :   -0.004054
   1 O :   -0.000466
   2 H :   -0.000438
   3 H :   -0.001251
   4 H :   -0.000457
   5 H :   -0.000094
   6 C :   -0.393347
   7 O :   -0.074017
   8 H :    0.173883
   9 H :    0.097721
  10 H :    0.086690
  11 H :    0.115830

  Mayer bond orders larger than 0.1
B(  6-C ,  7-O ) :   0.9935 B(  6-C ,  9-H ) :   0.9798 B(  6-C , 10-H ) :   0.9789
B(  6-C , 11-H ) :   0.9689 B(  7-O ,  8-H ) :   0.8855

Dispersion correction           -0.000250284
FINAL SINGLE POINT ENERGY      -115.732533980100

DIPOLE MOMENT
-------------
                                X             Y             Z
Electronic contribution:     -0.92404       1.00136      -1.09031
Nuclear contribution   :      0.79451      -1.63052       1.10833
                        -----------------------------------------
Total Dipole Moment    :     -0.12953      -0.62916       0.01802
                        -----------------------------------------
Magnitude (a.u.)       :      0.64260
Magnitude (Debye)      :      1.63337

Rotational constants in cm-1:     4.323331     0.834385     0.808327
Rotational constants in MHz : 129610.188201 25014.230582 24233.027333

                             ****ORCA TERMINATED NORMALLY****
TOTAL RUN TIME: 0 days 0 hours 5 minutes 28 seconds 466 msec
