                         Program Version 4.1.2  - RELEASE  -
|  1> #Run DFT-D3 single point of the dimer
|  2> ! wB97X-D3 def2-TZVP TIGHTSCF CHELPG PMODEL PAL8
|  3>
|  4> %base "22-178_DFT_AB"
|  5>
|  6> %scf
|  7> MaxIter 1000
|  8> end
|  9>
| 10> * xyz 0 1
| 11>   C                      -8.408628            -6.077330            5.994400
| 12>   O                      -8.191129            -6.136432            7.414931
| 13>   H                      -8.526472            -6.979729            7.689551
| 14>   H                      -8.233246            -5.066164            5.609936
| 15>   H                      -7.815096            -6.825520            5.471362
| 16>   H                      -9.422987            -6.376404            5.755330
| 17>   C                      -9.672947            -4.246496            9.172626
| 18>   O                      -10.719910           -5.141355            9.271816
| 19>   H                      -10.478540           -5.783777            8.558270
| 20>   H                      -9.617715            -3.863327            8.110207
| 21>   H                      -9.811583            -3.381405            9.807814
| 22>   H                      -8.711346            -4.765124            9.443677
| 23> *
| 24>
| 25> #Run DFT-D3 single point of the molecule with dimer basis set
| 26> $new_job
| 27> %base "22-178_DFT_A"
| 28> ! wB97X-D3 def2-TZVP TIGHTSCF CHELPG PMODEL
| 29>
| 30> %scf
| 31> MaxIter 1000
| 32> end
| 33>
| 34> * xyz 0 1
| 35>   C                      -8.408628            -6.077330            5.994400
| 36>   O                      -8.191129            -6.136432            7.414931
| 37>   H                      -8.526472            -6.979729            7.689551
| 38>   H                      -8.233246            -5.066164            5.609936
| 39>   H                      -7.815096            -6.825520            5.471362
| 40>   H                      -9.422987            -6.376404            5.755330
| 41>   C                    : -9.672947            -4.246496            9.172626
| 42>   O                    : -10.719910           -5.141355            9.271816
| 43>   H                    : -10.478540           -5.783777            8.558270
| 44>   H                    : -9.617715            -3.863327            8.110207
| 45>   H                    : -9.811583            -3.381405            9.807814
| 46>   H                    : -8.711346            -4.765124            9.443677
| 47> *
| 48>
| 49> #Run DFT-D3 single point of the particle with dimer basis set
| 50> $new_job
| 51> %base "22-178_DFT_B"
| 52> ! wB97X-D3 def2-TZVP TIGHTSCF CHELPG PMODEL
| 53>
| 54> %scf
| 55> MaxIter 1000
| 56> end
| 57>
| 58> * xyz 0 1
| 59>   C                    : -8.408628            -6.077330            5.994400
| 60>   O                    : -8.191129            -6.136432            7.414931
| 61>   H                    : -8.526472            -6.979729            7.689551
| 62>   H                    : -8.233246            -5.066164            5.609936
| 63>   H                    : -7.815096            -6.825520            5.471362
| 64>   H                    : -9.422987            -6.376404            5.755330
| 65>   C                      -9.672947            -4.246496            9.172626
| 66>   O                      -10.719910           -5.141355            9.271816
| 67>   H                      -10.478540           -5.783777            8.558270
| 68>   H                      -9.617715            -3.863327            8.110207
| 69>   H                      -9.811583            -3.381405            9.807814
| 70>   H                      -8.711346            -4.765124            9.443677
| 71> *
| 72>
| 73>                          ****END OF INPUT****
 Total Charge           Charge          ....    0
 Multiplicity           Mult            ....    1
 Number of Electrons    NEL             ....   36
Dispersion correction           -0.002249776
FINAL SINGLE POINT ENERGY      -231.468301520437
Dispersion correction           -0.000234036
FINAL SINGLE POINT ENERGY      -115.735507061573

CARTESIAN COORDINATES (ANGSTROEM)
---------------------------------
  C     -8.408628   -6.077330    5.994400
  O     -8.191129   -6.136432    7.414931
  H     -8.526472   -6.979729    7.689551
  H     -8.233246   -5.066164    5.609936
  H     -7.815096   -6.825520    5.471362
  H     -9.422987   -6.376404    5.755330
  C     -9.672947   -4.246496    9.172626
  O    -10.719910   -5.141355    9.271816
  H    -10.478540   -5.783777    8.558270
  H     -9.617715   -3.863327    8.110207
  H     -9.811583   -3.381405    9.807814
  H     -8.711346   -4.765124    9.443677

 Multiplicity           Mult            ....    1
 Number of Electrons    NEL             ....   18
 Basis Dimension        Dim             ....  172

ORBITAL ENERGIES
----------------

  NO   OCC          E(Eh)            E(eV)
   0   2.0000     -19.234601      -523.4001
   1   2.0000     -10.316047      -280.7139
   2   2.0000      -1.147624       -31.2284
   3   2.0000      -0.783098       -21.3092
   4   2.0000      -0.609863       -16.5952
   5   2.0000      -0.545728       -14.8500
   6   2.0000      -0.533471       -14.5165
   7   2.0000      -0.435075       -11.8390
   8   2.0000      -0.369463       -10.0536
   9   0.0000       0.066266         1.8032
  10   0.0000       0.130651         3.5552
  11   0.0000       0.148484         4.0405
  12   0.0000       0.158135         4.3031
  13   0.0000       0.197369         5.3707

MULLIKEN ATOMIC CHARGES
-----------------------
   0 C :    0.001331
   1 O :   -0.000560
   2 H :   -0.000837
   3 H :   -0.000922
   4 H :   -0.000003
   5 H :   -0.000327
   6 C :   -0.186467
   7 O :   -0.449035
   8 H :    0.319027
   9 H :    0.095764
  10 H :    0.125799
  11 H :    0.096231
Sum of atomic charges:    0.0000000

LOEWDIN ATOMIC CHARGES
----------------------
   0 C :   -0.003487
   1 O :   -0.011007
   2 H :   -0.002335
   3 H :   -0.000649
   4 H :   -0.000031
   5 H :   -0.000325
   6 C :   -0.419427
   7 O :   -0.062056
   8 H :    0.194552
   9 H :    0.100677
  10 H :    0.103238
  11 H :    0.100851

  Mayer bond orders larger than 0.1
B(  6-C ,  7-O ) :   1.0076 B(  6-C ,  9-H ) :   0.9813 B(  6-C , 10-H ) :   0.9696
B(  6-C , 11-H ) :   0.9778 B(  7-O ,  8-H ) :   0.8992

Dispersion correction           -0.000207049
FINAL SINGLE POINT ENERGY      -115.731610797697

DIPOLE MOMENT
-------------
                                X             Y             Z
Electronic contribution:     -1.51429      -1.06069       0.36691
Nuclear contribution   :      2.01353       1.00815      -0.81670
                        -----------------------------------------
Total Dipole Moment    :      0.49924      -0.05254      -0.44979
                        -----------------------------------------
Magnitude (a.u.)       :      0.67403
Magnitude (Debye)      :      1.71325

Rotational constants in cm-1:     4.035201     0.870277     0.838736
Rotational constants in MHz : 120972.287212 26090.238950 25144.668241

                             ****ORCA TERMINATED NORMALLY****
TOTAL RUN TIME: 0 days 0 hours 1 minutes 8 seconds 889 msec
