                         Program Version 4.1.2  - RELEASE  -
|  1> #Run DFT-D3 single point of the dimer
|  2> ! wB97X-D3 def2-TZVP TIGHTSCF CHELPG PMODEL PAL8
|  3>
|  4> %base "7-213_DFT_AB"
|  5>
|  6> %scf
|  7> MaxIter 1000
|  8> end
|  9>
| 10> * xyz 0 1
| 11>   C                      -5.975192            -6.182444            -5.476440
| 12>   O                      -6.530866            -7.490303            -5.501899
| 13>   H                      -6.134978            -7.865174            -6.339371
| 14>   H                      -6.314522            -5.523298            -4.687969
| 15>   H                      -4.854872            -6.273809            -5.430052
| 16>   H                      -6.189006            -5.749936            -6.435882
| 17>   C                      -9.116662            -9.684875            -6.717395
| 18>   O                      -9.301360            -8.458801            -6.073613
| 19>   H                      -8.508389            -7.961222            -6.189133
| 20>   H                      -8.777370            -9.575831            -7.820313
| 21>   H                      -8.377189            -10.272308           -6.223018
| 22>   H                      -10.113711           -10.176753           -6.712861
| 23> *
| 24>
| 25> #Run DFT-D3 single point of the molecule with dimer basis set
| 26> $new_job
| 27> %base "7-213_DFT_A"
| 28> ! wB97X-D3 def2-TZVP TIGHTSCF CHELPG PMODEL
| 29>
| 30> %scf
| 31> MaxIter 1000
| 32> end
| 33>
| 34> * xyz 0 1
| 35>   C                      -5.975192            -6.182444            -5.476440
| 36>   O                      -6.530866            -7.490303            -5.501899
| 37>   H                      -6.134978            -7.865174            -6.339371
| 38>   H                      -6.314522            -5.523298            -4.687969
| 39>   H                      -4.854872            -6.273809            -5.430052
| 40>   H                      -6.189006            -5.749936            -6.435882
| 41>   C                    : -9.116662            -9.684875            -6.717395
| 42>   O                    : -9.301360            -8.458801            -6.073613
| 43>   H                    : -8.508389            -7.961222            -6.189133
| 44>   H                    : -8.777370            -9.575831            -7.820313
| 45>   H                    : -8.377189            -10.272308           -6.223018
| 46>   H                    : -10.113711           -10.176753           -6.712861
| 47> *
| 48>
| 49> #Run DFT-D3 single point of the particle with dimer basis set
| 50> $new_job
| 51> %base "7-213_DFT_B"
| 52> ! wB97X-D3 def2-TZVP TIGHTSCF CHELPG PMODEL
| 53>
| 54> %scf
| 55> MaxIter 1000
| 56> end
| 57>
| 58> * xyz 0 1
| 59>   C                    : -5.975192            -6.182444            -5.476440
| 60>   O                    : -6.530866            -7.490303            -5.501899
| 61>   H                    : -6.134978            -7.865174            -6.339371
| 62>   H                    : -6.314522            -5.523298            -4.687969
| 63>   H                    : -4.854872            -6.273809            -5.430052
| 64>   H                    : -6.189006            -5.749936            -6.435882
| 65>   C                      -9.116662            -9.684875            -6.717395
| 66>   O                      -9.301360            -8.458801            -6.073613
| 67>   H                      -8.508389            -7.961222            -6.189133
| 68>   H                      -8.777370            -9.575831            -7.820313
| 69>   H                      -8.377189            -10.272308           -6.223018
| 70>   H                      -10.113711           -10.176753           -6.712861
| 71> *
| 72>
| 73>                          ****END OF INPUT****
 Total Charge           Charge          ....    0
 Multiplicity           Mult            ....    1
 Number of Electrons    NEL             ....   36
Dispersion correction           -0.001611843
FINAL SINGLE POINT ENERGY      -231.468822406817
Dispersion correction           -0.000213263
FINAL SINGLE POINT ENERGY      -115.730238434075

CARTESIAN COORDINATES (ANGSTROEM)
---------------------------------
  C     -5.975192   -6.182444   -5.476440
  O     -6.530866   -7.490303   -5.501899
  H     -6.134978   -7.865174   -6.339371
  H     -6.314522   -5.523298   -4.687969
  H     -4.854872   -6.273809   -5.430052
  H     -6.189006   -5.749936   -6.435882
  C     -9.116662   -9.684875   -6.717395
  O     -9.301360   -8.458801   -6.073613
  H     -8.508389   -7.961222   -6.189133
  H     -8.777370   -9.575831   -7.820313
  H     -8.377189  -10.272308   -6.223018
  H    -10.113711  -10.176753   -6.712861

 Multiplicity           Mult            ....    1
 Number of Electrons    NEL             ....   18
 Basis Dimension        Dim             ....  172

ORBITAL ENERGIES
----------------

  NO   OCC          E(Eh)            E(eV)
   0   2.0000     -19.230095      -523.2775
   1   2.0000     -10.317345      -280.7492
   2   2.0000      -1.146631       -31.2014
   3   2.0000      -0.792074       -21.5534
   4   2.0000      -0.617117       -16.7926
   5   2.0000      -0.542869       -14.7722
   6   2.0000      -0.524409       -14.2699
   7   2.0000      -0.435446       -11.8491
   8   2.0000      -0.373568       -10.1653
   9   0.0000       0.069900         1.9021
  10   0.0000       0.125852         3.4246
  11   0.0000       0.155406         4.2288
  12   0.0000       0.173306         4.7159
  13   0.0000       0.186331         5.0703

MULLIKEN ATOMIC CHARGES
-----------------------
   0 C :   -0.001374
   1 O :   -0.003976
   2 H :   -0.000318
   3 H :    0.000071
   4 H :    0.000027
   5 H :   -0.000197
   6 C :   -0.167398
   7 O :   -0.460290
   8 H :    0.310354
   9 H :    0.092960
  10 H :    0.106888
  11 H :    0.123252
Sum of atomic charges:    0.0000000

LOEWDIN ATOMIC CHARGES
----------------------
   0 C :   -0.001876
   1 O :   -0.012679
   2 H :   -0.001992
   3 H :   -0.000042
   4 H :   -0.000036
   5 H :   -0.000173
   6 C :   -0.400988
   7 O :   -0.047447
   8 H :    0.161826
   9 H :    0.102369
  10 H :    0.086777
  11 H :    0.114262

  Mayer bond orders larger than 0.1
B(  6-C ,  7-O ) :   0.9952 B(  6-C ,  9-H ) :   0.9754 B(  6-C , 10-H ) :   0.9708
B(  6-C , 11-H ) :   0.9751 B(  7-O ,  8-H ) :   0.9087

Dispersion correction           -0.000233334
FINAL SINGLE POINT ENERGY      -115.734174521383

DIPOLE MOMENT
-------------
                                X             Y             Z
Electronic contribution:     -0.34653       1.51749       0.96897
Nuclear contribution   :      0.91027      -1.67079      -1.26362
                        -----------------------------------------
Total Dipole Moment    :      0.56374      -0.15331      -0.29465
                        -----------------------------------------
Magnitude (a.u.)       :      0.65431
Magnitude (Debye)      :      1.66313

Rotational constants in cm-1:     4.161817     0.851513     0.816749
Rotational constants in MHz : 124768.147288 25527.718478 24485.513399

                             ****ORCA TERMINATED NORMALLY****
TOTAL RUN TIME: 0 days 0 hours 1 minutes 0 seconds 480 msec
