                         Program Version 4.1.2  - RELEASE  -
|  1> #Run DFT-D3 single point of the dimer
|  2> ! wB97X-D3 def2-TZVP TIGHTSCF CHELPG PMODEL PAL8
|  3>
|  4> %base "6-49_DFT_AB"
|  5>
|  6> %scf
|  7> MaxIter 1000
|  8> end
|  9>
| 10> * xyz 0 1
| 11>   C                      -8.291909            -9.824663            -9.417989
| 12>   O                      -7.835395            -10.309451           -10.671300
| 13>   H                      -6.842935            -10.248512           -10.710201
| 14>   H                      -8.071282            -8.713678            -9.406191
| 15>   H                      -9.310220            -9.973369            -9.239578
| 16>   H                      -7.730536            -10.313792           -8.609002
| 17>   C                      -6.599554            -6.042447            -7.483774
| 18>   O                      -6.237968            -7.365187            -7.023287
| 19>   H                      -6.486182            -7.464170            -6.141548
| 20>   H                      -5.802286            -5.308373            -7.271396
| 21>   H                      -6.682115            -6.133184            -8.605517
| 22>   H                      -7.524278            -5.712223            -7.081601
| 23> *
| 24>
| 25> #Run DFT-D3 single point of the molecule with dimer basis set
| 26> $new_job
| 27> %base "6-49_DFT_A"
| 28> ! wB97X-D3 def2-TZVP TIGHTSCF CHELPG PMODEL
| 29>
| 30> %scf
| 31> MaxIter 1000
| 32> end
| 33>
| 34> * xyz 0 1
| 35>   C                      -8.291909            -9.824663            -9.417989
| 36>   O                      -7.835395            -10.309451           -10.671300
| 37>   H                      -6.842935            -10.248512           -10.710201
| 38>   H                      -8.071282            -8.713678            -9.406191
| 39>   H                      -9.310220            -9.973369            -9.239578
| 40>   H                      -7.730536            -10.313792           -8.609002
| 41>   C                    : -6.599554            -6.042447            -7.483774
| 42>   O                    : -6.237968            -7.365187            -7.023287
| 43>   H                    : -6.486182            -7.464170            -6.141548
| 44>   H                    : -5.802286            -5.308373            -7.271396
| 45>   H                    : -6.682115            -6.133184            -8.605517
| 46>   H                    : -7.524278            -5.712223            -7.081601
| 47> *
| 48>
| 49> #Run DFT-D3 single point of the particle with dimer basis set
| 50> $new_job
| 51> %base "6-49_DFT_B"
| 52> ! wB97X-D3 def2-TZVP TIGHTSCF CHELPG PMODEL
| 53>
| 54> %scf
| 55> MaxIter 1000
| 56> end
| 57>
| 58> * xyz 0 1
| 59>   C                    : -8.291909            -9.824663            -9.417989
| 60>   O                    : -7.835395            -10.309451           -10.671300
| 61>   H                    : -6.842935            -10.248512           -10.710201
| 62>   H                    : -8.071282            -8.713678            -9.406191
| 63>   H                    : -9.310220            -9.973369            -9.239578
| 64>   H                    : -7.730536            -10.313792           -8.609002
| 65>   C                      -6.599554            -6.042447            -7.483774
| 66>   O                      -6.237968            -7.365187            -7.023287
| 67>   H                      -6.486182            -7.464170            -6.141548
| 68>   H                      -5.802286            -5.308373            -7.271396
| 69>   H                      -6.682115            -6.133184            -8.605517
| 70>   H                      -7.524278            -5.712223            -7.081601
| 71> *
| 72>
| 73>                          ****END OF INPUT****
 Total Charge           Charge          ....    0
 Multiplicity           Mult            ....    1
 Number of Electrons    NEL             ....   36
Dispersion correction           -0.001250658
FINAL SINGLE POINT ENERGY      -231.466220837049
Dispersion correction           -0.000234114
FINAL SINGLE POINT ENERGY      -115.731251729342

CARTESIAN COORDINATES (ANGSTROEM)
---------------------------------
  C     -8.291909   -9.824663   -9.417989
  O     -7.835395  -10.309451  -10.671300
  H     -6.842935  -10.248512  -10.710201
  H     -8.071282   -8.713678   -9.406191
  H     -9.310220   -9.973369   -9.239578
  H     -7.730536  -10.313792   -8.609002
  C     -6.599554   -6.042447   -7.483774
  O     -6.237968   -7.365187   -7.023287
  H     -6.486182   -7.464170   -6.141548
  H     -5.802286   -5.308373   -7.271396
  H     -6.682115   -6.133184   -8.605517
  H     -7.524278   -5.712223   -7.081601

 Multiplicity           Mult            ....    1
 Number of Electrons    NEL             ....   18
 Basis Dimension        Dim             ....  172

ORBITAL ENERGIES
----------------

  NO   OCC          E(Eh)            E(eV)
   0   2.0000     -19.225227      -523.1450
   1   2.0000     -10.317521      -280.7540
   2   2.0000      -1.133340       -30.8398
   3   2.0000      -0.799564       -21.7572
   4   2.0000      -0.612105       -16.6562
   5   2.0000      -0.539954       -14.6929
   6   2.0000      -0.518593       -14.1116
   7   2.0000      -0.437481       -11.9045
   8   2.0000      -0.375766       -10.2251
   9   0.0000       0.094318         2.5665
  10   0.0000       0.123988         3.3739
  11   0.0000       0.151786         4.1303
  12   0.0000       0.172982         4.7071
  13   0.0000       0.188481         5.1288

MULLIKEN ATOMIC CHARGES
-----------------------
   0 C :   -0.001013
   1 O :   -0.000003
   2 H :   -0.000041
   3 H :   -0.000285
   4 H :   -0.000032
   5 H :   -0.001066
   6 C :   -0.166697
   7 O :   -0.474235
   8 H :    0.303923
   9 H :    0.110215
  10 H :    0.121355
  11 H :    0.107878
Sum of atomic charges:   -0.0000000

LOEWDIN ATOMIC CHARGES
----------------------
   0 C :   -0.002473
   1 O :   -0.000020
   2 H :   -0.000007
   3 H :   -0.001312
   4 H :   -0.000020
   5 H :   -0.000853
   6 C :   -0.356721
   7 O :   -0.079006
   8 H :    0.137292
   9 H :    0.098559
  10 H :    0.116603
  11 H :    0.087958

  Mayer bond orders larger than 0.1
B(  6-C ,  7-O ) :   0.9908 B(  6-C ,  9-H ) :   0.9712 B(  6-C , 10-H ) :   0.9776
B(  6-C , 11-H ) :   0.9764 B(  7-O ,  8-H ) :   0.9108

Dispersion correction           -0.000255492
FINAL SINGLE POINT ENERGY      -115.733552464541

DIPOLE MOMENT
-------------
                                X             Y             Z
Electronic contribution:      0.42316      -1.60734       0.56791
Nuclear contribution   :     -0.75407       2.10139      -0.17500
                        -----------------------------------------
Total Dipole Moment    :     -0.33091       0.49405       0.39292
                        -----------------------------------------
Magnitude (a.u.)       :      0.71272
Magnitude (Debye)      :      1.81159

Rotational constants in cm-1:     4.302602     0.803309     0.777092
Rotational constants in MHz : 128988.777827 24082.611632 23296.640853

                             ****ORCA TERMINATED NORMALLY****
TOTAL RUN TIME: 0 days 0 hours 0 minutes 53 seconds 702 msec
