                         Program Version 4.1.2  - RELEASE  -
|  1> #Run DFT-D3 single point of the dimer
|  2> ! wB97X-D3 def2-TZVP TIGHTSCF CHELPG PMODEL PAL8
|  3>
|  4> %base "9-23_DFT_AB"
|  5>
|  6> %scf
|  7> MaxIter 1000
|  8> end
|  9>
| 10> * xyz 0 1
| 11>   C                      1.487376             -0.428665            4.266690
| 12>   O                      2.630056             -0.194025            5.057445
| 13>   H                      2.762876             -0.876611            5.745413
| 14>   H                      1.308714             0.285588             3.519412
| 15>   H                      1.633911             -1.323911            3.744331
| 16>   H                      0.553844             -0.624710            4.835763
| 17>   C                      5.169951             -2.392256            4.426165
| 18>   O                      5.050276             -1.626652            5.567194
| 19>   H                      5.002982             -2.195026            6.310976
| 20>   H                      4.576403             -3.364558            4.442787
| 21>   H                      4.923934             -1.717072            3.609020
| 22>   H                      6.212556             -2.725092            4.253027
| 23> *
| 24>
| 25> #Run DFT-D3 single point of the molecule with dimer basis set
| 26> $new_job
| 27> %base "9-23_DFT_A"
| 28> ! wB97X-D3 def2-TZVP TIGHTSCF CHELPG PMODEL
| 29>
| 30> %scf
| 31> MaxIter 1000
| 32> end
| 33>
| 34> * xyz 0 1
| 35>   C                      1.487376             -0.428665            4.266690
| 36>   O                      2.630056             -0.194025            5.057445
| 37>   H                      2.762876             -0.876611            5.745413
| 38>   H                      1.308714             0.285588             3.519412
| 39>   H                      1.633911             -1.323911            3.744331
| 40>   H                      0.553844             -0.624710            4.835763
| 41>   C                    : 5.169951             -2.392256            4.426165
| 42>   O                    : 5.050276             -1.626652            5.567194
| 43>   H                    : 5.002982             -2.195026            6.310976
| 44>   H                    : 4.576403             -3.364558            4.442787
| 45>   H                    : 4.923934             -1.717072            3.609020
| 46>   H                    : 6.212556             -2.725092            4.253027
| 47> *
| 48>
| 49> #Run DFT-D3 single point of the particle with dimer basis set
| 50> $new_job
| 51> %base "9-23_DFT_B"
| 52> ! wB97X-D3 def2-TZVP TIGHTSCF CHELPG PMODEL
| 53>
| 54> %scf
| 55> MaxIter 1000
| 56> end
| 57>
| 58> * xyz 0 1
| 59>   C                    : 1.487376             -0.428665            4.266690
| 60>   O                    : 2.630056             -0.194025            5.057445
| 61>   H                    : 2.762876             -0.876611            5.745413
| 62>   H                    : 1.308714             0.285588             3.519412
| 63>   H                    : 1.633911             -1.323911            3.744331
| 64>   H                    : 0.553844             -0.624710            4.835763
| 65>   C                      5.169951             -2.392256            4.426165
| 66>   O                      5.050276             -1.626652            5.567194
| 67>   H                      5.002982             -2.195026            6.310976
| 68>   H                      4.576403             -3.364558            4.442787
| 69>   H                      4.923934             -1.717072            3.609020
| 70>   H                      6.212556             -2.725092            4.253027
| 71> *
| 72>
| 73>                          ****END OF INPUT****
 Total Charge           Charge          ....    0
 Multiplicity           Mult            ....    1
 Number of Electrons    NEL             ....   36
Dispersion correction           -0.001915299
FINAL SINGLE POINT ENERGY      -231.463111171311
Dispersion correction           -0.000243512
FINAL SINGLE POINT ENERGY      -115.730081102094

CARTESIAN COORDINATES (ANGSTROEM)
---------------------------------
  C      1.487376   -0.428665    4.266690
  O      2.630056   -0.194025    5.057445
  H      2.762876   -0.876611    5.745413
  H      1.308714    0.285588    3.519412
  H      1.633911   -1.323911    3.744331
  H      0.553844   -0.624710    4.835763
  C      5.169951   -2.392256    4.426165
  O      5.050276   -1.626652    5.567194
  H      5.002982   -2.195026    6.310976
  H      4.576403   -3.364558    4.442787
  H      4.923934   -1.717072    3.609020
  H      6.212556   -2.725092    4.253027

 Multiplicity           Mult            ....    1
 Number of Electrons    NEL             ....   18
 Basis Dimension        Dim             ....  172

ORBITAL ENERGIES
----------------

  NO   OCC          E(Eh)            E(eV)
   0   2.0000     -19.230223      -523.2810
   1   2.0000     -10.315794      -280.7070
   2   2.0000      -1.153207       -31.3804
   3   2.0000      -0.794110       -21.6088
   4   2.0000      -0.622776       -16.9466
   5   2.0000      -0.536201       -14.5908
   6   2.0000      -0.532357       -14.4862
   7   2.0000      -0.438181       -11.9235
   8   2.0000      -0.369618       -10.0578
   9   0.0000       0.091444         2.4883
  10   0.0000       0.122142         3.3237
  11   0.0000       0.154123         4.1939
  12   0.0000       0.183175         4.9845
  13   0.0000       0.196199         5.3389

MULLIKEN ATOMIC CHARGES
-----------------------
   0 C :    0.001237
   1 O :    0.004895
   2 H :   -0.014823
   3 H :   -0.000008
   4 H :    0.000087
   5 H :   -0.000066
   6 C :   -0.155695
   7 O :   -0.457735
   8 H :    0.311096
   9 H :    0.095388
  10 H :    0.121831
  11 H :    0.093792
Sum of atomic charges:    0.0000000

LOEWDIN ATOMIC CHARGES
----------------------
   0 C :   -0.000999
   1 O :   -0.008410
   2 H :   -0.017126
   3 H :   -0.000019
   4 H :   -0.000245
   5 H :   -0.000008
   6 C :   -0.415435
   7 O :   -0.018709
   8 H :    0.156591
   9 H :    0.101083
  10 H :    0.109399
  11 H :    0.093876

  Mayer bond orders larger than 0.1
B(  6-C ,  7-O ) :   0.9966 B(  6-C ,  9-H ) :   0.9755 B(  6-C , 10-H ) :   0.9782
B(  6-C , 11-H ) :   0.9696 B(  7-O ,  8-H ) :   0.9030

Dispersion correction           -0.000236864
FINAL SINGLE POINT ENERGY      -115.733548400136

DIPOLE MOMENT
-------------
                                X             Y             Z
Electronic contribution:     -0.22348       1.14090       1.44164
Nuclear contribution   :      0.25292      -1.78359      -1.38275
                        -----------------------------------------
Total Dipole Moment    :      0.02944      -0.64269       0.05889
                        -----------------------------------------
Magnitude (a.u.)       :      0.64605
Magnitude (Debye)      :      1.64213

Rotational constants in cm-1:     4.223145     0.868996     0.827108
Rotational constants in MHz : 126606.706400 26051.850895 24796.070069

                             ****ORCA TERMINATED NORMALLY****
TOTAL RUN TIME: 0 days 0 hours 0 minutes 43 seconds 826 msec
