                         Program Version 4.1.2  - RELEASE  -
|  1> #Run DFT-D3 single point of the dimer
|  2> ! wB97X-D3 def2-TZVP TIGHTSCF CHELPG PMODEL PAL8
|  3>
|  4> %base "16-142_DFT_AB"
|  5>
|  6> %scf
|  7> MaxIter 1000
|  8> end
|  9>
| 10> * xyz 0 1
| 11>   C                      -3.172253            6.115077             -9.430730
| 12>   O                      -2.258837            5.717845             -8.440253
| 13>   H                      -1.895937            4.816713             -8.604891
| 14>   H                      -3.875050            5.249466             -9.500495
| 15>   H                      -3.779067            6.980646             -9.198653
| 16>   H                      -2.772807            6.321334             -10.463396
| 17>   C                      -4.295009            8.146985             -6.284837
| 18>   O                      -5.601934            8.615300             -6.530655
| 19>   H                      -6.090184            8.427436             -5.699778
| 20>   H                      -3.585139            8.400199             -7.101596
| 21>   H                      -3.888143            8.730006             -5.436186
| 22>   H                      -4.334985            7.082872             -6.113285
| 23> *
| 24>
| 25> #Run DFT-D3 single point of the molecule with dimer basis set
| 26> $new_job
| 27> %base "16-142_DFT_A"
| 28> ! wB97X-D3 def2-TZVP TIGHTSCF CHELPG PMODEL
| 29>
| 30> %scf
| 31> MaxIter 1000
| 32> end
| 33>
| 34> * xyz 0 1
| 35>   C                      -3.172253            6.115077             -9.430730
| 36>   O                      -2.258837            5.717845             -8.440253
| 37>   H                      -1.895937            4.816713             -8.604891
| 38>   H                      -3.875050            5.249466             -9.500495
| 39>   H                      -3.779067            6.980646             -9.198653
| 40>   H                      -2.772807            6.321334             -10.463396
| 41>   C                    : -4.295009            8.146985             -6.284837
| 42>   O                    : -5.601934            8.615300             -6.530655
| 43>   H                    : -6.090184            8.427436             -5.699778
| 44>   H                    : -3.585139            8.400199             -7.101596
| 45>   H                    : -3.888143            8.730006             -5.436186
| 46>   H                    : -4.334985            7.082872             -6.113285
| 47> *
| 48>
| 49> #Run DFT-D3 single point of the particle with dimer basis set
| 50> $new_job
| 51> %base "16-142_DFT_B"
| 52> ! wB97X-D3 def2-TZVP TIGHTSCF CHELPG PMODEL
| 53>
| 54> %scf
| 55> MaxIter 1000
| 56> end
| 57>
| 58> * xyz 0 1
| 59>   C                    : -3.172253            6.115077             -9.430730
| 60>   O                    : -2.258837            5.717845             -8.440253
| 61>   H                    : -1.895937            4.816713             -8.604891
| 62>   H                    : -3.875050            5.249466             -9.500495
| 63>   H                    : -3.779067            6.980646             -9.198653
| 64>   H                    : -2.772807            6.321334             -10.463396
| 65>   C                      -4.295009            8.146985             -6.284837
| 66>   O                      -5.601934            8.615300             -6.530655
| 67>   H                      -6.090184            8.427436             -5.699778
| 68>   H                      -3.585139            8.400199             -7.101596
| 69>   H                      -3.888143            8.730006             -5.436186
| 70>   H                      -4.334985            7.082872             -6.113285
| 71> *
| 72>
| 73>                          ****END OF INPUT****
 Total Charge           Charge          ....    0
 Multiplicity           Mult            ....    1
 Number of Electrons    NEL             ....   36
Dispersion correction           -0.001572220
FINAL SINGLE POINT ENERGY      -231.464212928854
Dispersion correction           -0.000257956
FINAL SINGLE POINT ENERGY      -115.729546832249

CARTESIAN COORDINATES (ANGSTROEM)
---------------------------------
  C     -3.172253    6.115077   -9.430730
  O     -2.258837    5.717845   -8.440253
  H     -1.895937    4.816713   -8.604891
  H     -3.875050    5.249466   -9.500495
  H     -3.779067    6.980646   -9.198653
  H     -2.772807    6.321334  -10.463396
  C     -4.295009    8.146985   -6.284837
  O     -5.601934    8.615300   -6.530655
  H     -6.090184    8.427436   -5.699778
  H     -3.585139    8.400199   -7.101596
  H     -3.888143    8.730006   -5.436186
  H     -4.334985    7.082872   -6.113285

 Multiplicity           Mult            ....    1
 Number of Electrons    NEL             ....   18
 Basis Dimension        Dim             ....  172

ORBITAL ENERGIES
----------------

  NO   OCC          E(Eh)            E(eV)
   0   2.0000     -19.230106      -523.2778
   1   2.0000     -10.313646      -280.6486
   2   2.0000      -1.134927       -30.8829
   3   2.0000      -0.789191       -21.4750
   4   2.0000      -0.603084       -16.4107
   5   2.0000      -0.553678       -15.0664
   6   2.0000      -0.525396       -14.2968
   7   2.0000      -0.428535       -11.6610
   8   2.0000      -0.372186       -10.1277
   9   0.0000       0.087044         2.3686
  10   0.0000       0.114604         3.1185
  11   0.0000       0.157351         4.2817
  12   0.0000       0.164596         4.4789
  13   0.0000       0.187423         5.1000

MULLIKEN ATOMIC CHARGES
-----------------------
   0 C :   -0.003273
   1 O :    0.000077
   2 H :   -0.000045
   3 H :    0.000003
   4 H :    0.003336
   5 H :    0.000119
   6 C :   -0.175703
   7 O :   -0.473455
   8 H :    0.317300
   9 H :    0.120517
  10 H :    0.103896
  11 H :    0.107228
Sum of atomic charges:   -0.0000000

LOEWDIN ATOMIC CHARGES
----------------------
   0 C :   -0.003355
   1 O :   -0.000507
   2 H :   -0.000034
   3 H :   -0.000047
   4 H :   -0.002463
   5 H :   -0.000016
   6 C :   -0.393690
   7 O :   -0.088014
   8 H :    0.184004
   9 H :    0.113250
  10 H :    0.097918
  11 H :    0.092954

  Mayer bond orders larger than 0.1
B(  6-C ,  7-O ) :   0.9918 B(  6-C ,  9-H ) :   0.9698 B(  6-C , 10-H ) :   0.9805
B(  6-C , 11-H ) :   0.9787 B(  7-O ,  8-H ) :   0.8958

Dispersion correction           -0.000218243
FINAL SINGLE POINT ENERGY      -115.732866326391

DIPOLE MOMENT
-------------
                                X             Y             Z
Electronic contribution:     -1.63454       0.54305      -0.50258
Nuclear contribution   :      1.85035      -0.83096       1.10509
                        -----------------------------------------
Total Dipole Moment    :      0.21581      -0.28791       0.60251
                        -----------------------------------------
Magnitude (a.u.)       :      0.70177
Magnitude (Debye)      :      1.78376

Rotational constants in cm-1:     4.162975     0.839075     0.812960
Rotational constants in MHz : 124802.852498 25154.834530 24371.914836

                             ****ORCA TERMINATED NORMALLY****
TOTAL RUN TIME: 0 days 0 hours 0 minutes 56 seconds 962 msec
