                         Program Version 4.1.2  - RELEASE  -
|  1> #Run DFT-D3 single point of the dimer
|  2> ! wB97X-D3 def2-TZVP TIGHTSCF CHELPG PMODEL PAL8
|  3>
|  4> %base "18-27_DFT_AB"
|  5>
|  6> %scf
|  7> MaxIter 1000
|  8> end
|  9>
| 10> * xyz 0 1
| 11>   C                      -5.176520            -0.642955            5.468790
| 12>   O                      -4.038877            -1.295501            5.945422
| 13>   H                      -4.126203            -2.205438            5.650035
| 14>   H                      -5.286508            -0.774904            4.375683
| 15>   H                      -6.105946            -0.911018            5.899308
| 16>   H                      -5.090722            0.414521             5.747167
| 17>   C                      -2.821279            -4.018960            3.426932
| 18>   O                      -1.694309            -4.510608            4.047991
| 19>   H                      -0.937718            -4.038095            3.738168
| 20>   H                      -2.660955            -4.031095            2.353406
| 21>   H                      -3.755240            -4.648577            3.567780
| 22>   H                      -3.052784            -2.989722            3.669558
| 23> *
| 24>
| 25> #Run DFT-D3 single point of the molecule with dimer basis set
| 26> $new_job
| 27> %base "18-27_DFT_A"
| 28> ! wB97X-D3 def2-TZVP TIGHTSCF CHELPG PMODEL
| 29>
| 30> %scf
| 31> MaxIter 1000
| 32> end
| 33>
| 34> * xyz 0 1
| 35>   C                      -5.176520            -0.642955            5.468790
| 36>   O                      -4.038877            -1.295501            5.945422
| 37>   H                      -4.126203            -2.205438            5.650035
| 38>   H                      -5.286508            -0.774904            4.375683
| 39>   H                      -6.105946            -0.911018            5.899308
| 40>   H                      -5.090722            0.414521             5.747167
| 41>   C                    : -2.821279            -4.018960            3.426932
| 42>   O                    : -1.694309            -4.510608            4.047991
| 43>   H                    : -0.937718            -4.038095            3.738168
| 44>   H                    : -2.660955            -4.031095            2.353406
| 45>   H                    : -3.755240            -4.648577            3.567780
| 46>   H                    : -3.052784            -2.989722            3.669558
| 47> *
| 48>
| 49> #Run DFT-D3 single point of the particle with dimer basis set
| 50> $new_job
| 51> %base "18-27_DFT_B"
| 52> ! wB97X-D3 def2-TZVP TIGHTSCF CHELPG PMODEL
| 53>
| 54> %scf
| 55> MaxIter 1000
| 56> end
| 57>
| 58> * xyz 0 1
| 59>   C                    : -5.176520            -0.642955            5.468790
| 60>   O                    : -4.038877            -1.295501            5.945422
| 61>   H                    : -4.126203            -2.205438            5.650035
| 62>   H                    : -5.286508            -0.774904            4.375683
| 63>   H                    : -6.105946            -0.911018            5.899308
| 64>   H                    : -5.090722            0.414521             5.747167
| 65>   C                      -2.821279            -4.018960            3.426932
| 66>   O                      -1.694309            -4.510608            4.047991
| 67>   H                      -0.937718            -4.038095            3.738168
| 68>   H                      -2.660955            -4.031095            2.353406
| 69>   H                      -3.755240            -4.648577            3.567780
| 70>   H                      -3.052784            -2.989722            3.669558
| 71> *
| 72>
| 73>                          ****END OF INPUT****
 Total Charge           Charge          ....    0
 Multiplicity           Mult            ....    1
 Number of Electrons    NEL             ....   36
Dispersion correction           -0.001370368
FINAL SINGLE POINT ENERGY      -231.468249578823
Dispersion correction           -0.000229559
FINAL SINGLE POINT ENERGY      -115.734561172427

CARTESIAN COORDINATES (ANGSTROEM)
---------------------------------
  C     -5.176520   -0.642955    5.468790
  O     -4.038877   -1.295501    5.945422
  H     -4.126203   -2.205438    5.650035
  H     -5.286508   -0.774904    4.375683
  H     -6.105946   -0.911018    5.899308
  H     -5.090722    0.414521    5.747167
  C     -2.821279   -4.018960    3.426932
  O     -1.694309   -4.510608    4.047991
  H     -0.937718   -4.038095    3.738168
  H     -2.660955   -4.031095    2.353406
  H     -3.755240   -4.648577    3.567780
  H     -3.052784   -2.989722    3.669558

 Multiplicity           Mult            ....    1
 Number of Electrons    NEL             ....   18
 Basis Dimension        Dim             ....  172

ORBITAL ENERGIES
----------------

  NO   OCC          E(Eh)            E(eV)
   0   2.0000     -19.229428      -523.2593
   1   2.0000     -10.312224      -280.6099
   2   2.0000      -1.151140       -31.3241
   3   2.0000      -0.795167       -21.6376
   4   2.0000      -0.622644       -16.9430
   5   2.0000      -0.545482       -14.8433
   6   2.0000      -0.532045       -14.4777
   7   2.0000      -0.427496       -11.6327
   8   2.0000      -0.371853       -10.1186
   9   0.0000       0.087108         2.3703
  10   0.0000       0.118613         3.2276
  11   0.0000       0.153302         4.1716
  12   0.0000       0.176149         4.7933
  13   0.0000       0.186986         5.0882

MULLIKEN ATOMIC CHARGES
-----------------------
   0 C :   -0.001039
   1 O :    0.000066
   2 H :    0.002182
   3 H :    0.000032
   4 H :    0.000006
   5 H :   -0.000058
   6 C :   -0.164799
   7 O :   -0.467470
   8 H :    0.316626
   9 H :    0.104133
  10 H :    0.115413
  11 H :    0.094906
Sum of atomic charges:    0.0000000

LOEWDIN ATOMIC CHARGES
----------------------
   0 C :   -0.000990
   1 O :   -0.000886
   2 H :   -0.003779
   3 H :   -0.000461
   4 H :   -0.000006
   5 H :   -0.000010
   6 C :   -0.415313
   7 O :   -0.041920
   8 H :    0.163886
   9 H :    0.091738
  10 H :    0.117648
  11 H :    0.090092

  Mayer bond orders larger than 0.1
B(  6-C ,  7-O ) :   0.9965 B(  6-C ,  9-H ) :   0.9873 B(  6-C , 10-H ) :   0.9690
B(  6-C , 11-H ) :   0.9726 B(  7-O ,  8-H ) :   0.8975

Dispersion correction           -0.000227561
FINAL SINGLE POINT ENERGY      -115.732516959283

DIPOLE MOMENT
-------------
                                X             Y             Z
Electronic contribution:      1.45202      -0.73181       1.01688
Nuclear contribution   :     -1.38334       1.21952      -1.46963
                        -----------------------------------------
Total Dipole Moment    :      0.06868       0.48771      -0.45275
                        -----------------------------------------
Magnitude (a.u.)       :      0.66900
Magnitude (Debye)      :      1.70047

Rotational constants in cm-1:     4.398391     0.859720     0.825497
Rotational constants in MHz : 131860.430756 25773.770942 24747.782847

                             ****ORCA TERMINATED NORMALLY****
TOTAL RUN TIME: 0 days 0 hours 1 minutes 2 seconds 245 msec
