                         Program Version 4.1.2  - RELEASE  -
|  1> #Run DFT-D3 single point of the dimer
|  2> ! wB97X-D3 def2-TZVP TIGHTSCF CHELPG PMODEL PAL8
|  3>
|  4> %base "17-38_DFT_AB"
|  5>
|  6> %scf
|  7> MaxIter 1000
|  8> end
|  9>
| 10> * xyz 0 1
| 11>   C                      -11.061836           -2.606470            -4.644816
| 12>   O                      -10.141956           -2.658420            -5.709561
| 13>   H                      -9.563849            -3.404879            -5.487740
| 14>   H                      -11.760266           -1.855055            -4.820786
| 15>   H                      -11.555235           -3.625237            -4.519928
| 16>   H                      -10.483612           -2.275485            -3.754695
| 17>   C                      -10.133976           -5.212285            -7.569743
| 18>   O                      -9.046556            -6.136931            -7.724401
| 19>   H                      -8.638359            -6.054136            -8.550942
| 20>   H                      -10.725536           -5.130315            -8.491277
| 21>   H                      -10.826191           -5.405642            -6.781274
| 22>   H                      -9.712326            -4.207788            -7.405187
| 23> *
| 24>
| 25> #Run DFT-D3 single point of the molecule with dimer basis set
| 26> $new_job
| 27> %base "17-38_DFT_A"
| 28> ! wB97X-D3 def2-TZVP TIGHTSCF CHELPG PMODEL
| 29>
| 30> %scf
| 31> MaxIter 1000
| 32> end
| 33>
| 34> * xyz 0 1
| 35>   C                      -11.061836           -2.606470            -4.644816
| 36>   O                      -10.141956           -2.658420            -5.709561
| 37>   H                      -9.563849            -3.404879            -5.487740
| 38>   H                      -11.760266           -1.855055            -4.820786
| 39>   H                      -11.555235           -3.625237            -4.519928
| 40>   H                      -10.483612           -2.275485            -3.754695
| 41>   C                    : -10.133976           -5.212285            -7.569743
| 42>   O                    : -9.046556            -6.136931            -7.724401
| 43>   H                    : -8.638359            -6.054136            -8.550942
| 44>   H                    : -10.725536           -5.130315            -8.491277
| 45>   H                    : -10.826191           -5.405642            -6.781274
| 46>   H                    : -9.712326            -4.207788            -7.405187
| 47> *
| 48>
| 49> #Run DFT-D3 single point of the particle with dimer basis set
| 50> $new_job
| 51> %base "17-38_DFT_B"
| 52> ! wB97X-D3 def2-TZVP TIGHTSCF CHELPG PMODEL
| 53>
| 54> %scf
| 55> MaxIter 1000
| 56> end
| 57>
| 58> * xyz 0 1
| 59>   C                    : -11.061836           -2.606470            -4.644816
| 60>   O                    : -10.141956           -2.658420            -5.709561
| 61>   H                    : -9.563849            -3.404879            -5.487740
| 62>   H                    : -11.760266           -1.855055            -4.820786
| 63>   H                    : -11.555235           -3.625237            -4.519928
| 64>   H                    : -10.483612           -2.275485            -3.754695
| 65>   C                      -10.133976           -5.212285            -7.569743
| 66>   O                      -9.046556            -6.136931            -7.724401
| 67>   H                      -8.638359            -6.054136            -8.550942
| 68>   H                      -10.725536           -5.130315            -8.491277
| 69>   H                      -10.826191           -5.405642            -6.781274
| 70>   H                      -9.712326            -4.207788            -7.405187
| 71> *
| 72>
| 73>                          ****END OF INPUT****
 Total Charge           Charge          ....    0
 Multiplicity           Mult            ....    1
 Number of Electrons    NEL             ....   36
Dispersion correction           -0.001738801
FINAL SINGLE POINT ENERGY      -231.464029280194
Dispersion correction           -0.000213336
FINAL SINGLE POINT ENERGY      -115.732255331369

CARTESIAN COORDINATES (ANGSTROEM)
---------------------------------
  C    -11.061836   -2.606470   -4.644816
  O    -10.141956   -2.658420   -5.709561
  H     -9.563849   -3.404879   -5.487740
  H    -11.760266   -1.855055   -4.820786
  H    -11.555235   -3.625237   -4.519928
  H    -10.483612   -2.275485   -3.754695
  C    -10.133976   -5.212285   -7.569743
  O     -9.046556   -6.136931   -7.724401
  H     -8.638359   -6.054136   -8.550942
  H    -10.725536   -5.130315   -8.491277
  H    -10.826191   -5.405642   -6.781274
  H     -9.712326   -4.207788   -7.405187

 Multiplicity           Mult            ....    1
 Number of Electrons    NEL             ....   18
 Basis Dimension        Dim             ....  172

ORBITAL ENERGIES
----------------

  NO   OCC          E(Eh)            E(eV)
   0   2.0000     -19.225083      -523.1411
   1   2.0000     -10.314862      -280.6817
   2   2.0000      -1.133805       -30.8524
   3   2.0000      -0.803483       -21.8639
   4   2.0000      -0.612272       -16.6608
   5   2.0000      -0.538867       -14.6633
   6   2.0000      -0.531622       -14.4662
   7   2.0000      -0.431130       -11.7317
   8   2.0000      -0.372733       -10.1426
   9   0.0000       0.088329         2.4036
  10   0.0000       0.119713         3.2576
  11   0.0000       0.155291         4.2257
  12   0.0000       0.172460         4.6929
  13   0.0000       0.183716         4.9992

MULLIKEN ATOMIC CHARGES
-----------------------
   0 C :   -0.000835
   1 O :   -0.003292
   2 H :    0.003299
   3 H :   -0.000012
   4 H :   -0.000551
   5 H :    0.000068
   6 C :   -0.170161
   7 O :   -0.478970
   8 H :    0.311263
   9 H :    0.106748
  10 H :    0.127547
  11 H :    0.104895
Sum of atomic charges:    0.0000000

LOEWDIN ATOMIC CHARGES
----------------------
   0 C :   -0.001965
   1 O :   -0.011224
   2 H :   -0.008707
   3 H :   -0.000034
   4 H :   -0.000664
   5 H :   -0.000024
   6 C :   -0.354658
   7 O :   -0.075364
   8 H :    0.143848
   9 H :    0.097460
  10 H :    0.104377
  11 H :    0.106954

  Mayer bond orders larger than 0.1
B(  6-C ,  7-O ) :   0.9862 B(  6-C ,  9-H ) :   0.9757 B(  6-C , 10-H ) :   0.9704
B(  6-C , 11-H ) :   0.9805 B(  7-O ,  8-H ) :   0.9042

Dispersion correction           -0.000252386
FINAL SINGLE POINT ENERGY      -115.731672599971

DIPOLE MOMENT
-------------
                                X             Y             Z
Electronic contribution:      1.30771      -1.32733       0.00719
Nuclear contribution   :     -1.51028       1.76775      -0.48978
                        -----------------------------------------
Total Dipole Moment    :     -0.20257       0.44042      -0.48260
                        -----------------------------------------
Magnitude (a.u.)       :      0.68404
Magnitude (Debye)      :      1.73868

Rotational constants in cm-1:     4.509763     0.802301     0.778368
Rotational constants in MHz : 135199.305761 24052.382639 23334.873722

                             ****ORCA TERMINATED NORMALLY****
TOTAL RUN TIME: 0 days 0 hours 1 minutes 10 seconds 445 msec
