                         Program Version 4.1.2  - RELEASE  -
|  1> #Run DFT-D3 single point of the dimer
|  2> ! wB97X-D3 def2-TZVP TIGHTSCF CHELPG PMODEL PAL8
|  3>
|  4> %base "21-128_DFT_AB"
|  5>
|  6> %scf
|  7> MaxIter 1000
|  8> end
|  9>
| 10> * xyz 0 1
| 11>   C                      -5.919274            -3.266028            -9.765933
| 12>   O                      -7.007712            -2.477800            -10.131426
| 13>   H                      -7.419284            -2.264709            -9.271346
| 14>   H                      -5.092639            -3.122663            -10.527099
| 15>   H                      -5.501222            -2.933932            -8.783267
| 16>   H                      -6.205399            -4.343898            -9.720369
| 17>   C                      -6.709496            0.446351             -8.874042
| 18>   O                      -8.105110            0.775885             -8.981980
| 19>   H                      -8.630612            0.101204             -8.535931
| 20>   H                      -6.056900            1.262505             -8.591079
| 21>   H                      -6.688231            -0.284826            -8.046987
| 22>   H                      -6.230505            -0.083252            -9.722450
| 23> *
| 24>
| 25> #Run DFT-D3 single point of the molecule with dimer basis set
| 26> $new_job
| 27> %base "21-128_DFT_A"
| 28> ! wB97X-D3 def2-TZVP TIGHTSCF CHELPG PMODEL
| 29>
| 30> %scf
| 31> MaxIter 1000
| 32> end
| 33>
| 34> * xyz 0 1
| 35>   C                      -5.919274            -3.266028            -9.765933
| 36>   O                      -7.007712            -2.477800            -10.131426
| 37>   H                      -7.419284            -2.264709            -9.271346
| 38>   H                      -5.092639            -3.122663            -10.527099
| 39>   H                      -5.501222            -2.933932            -8.783267
| 40>   H                      -6.205399            -4.343898            -9.720369
| 41>   C                    : -6.709496            0.446351             -8.874042
| 42>   O                    : -8.105110            0.775885             -8.981980
| 43>   H                    : -8.630612            0.101204             -8.535931
| 44>   H                    : -6.056900            1.262505             -8.591079
| 45>   H                    : -6.688231            -0.284826            -8.046987
| 46>   H                    : -6.230505            -0.083252            -9.722450
| 47> *
| 48>
| 49> #Run DFT-D3 single point of the particle with dimer basis set
| 50> $new_job
| 51> %base "21-128_DFT_B"
| 52> ! wB97X-D3 def2-TZVP TIGHTSCF CHELPG PMODEL
| 53>
| 54> %scf
| 55> MaxIter 1000
| 56> end
| 57>
| 58> * xyz 0 1
| 59>   C                    : -5.919274            -3.266028            -9.765933
| 60>   O                    : -7.007712            -2.477800            -10.131426
| 61>   H                    : -7.419284            -2.264709            -9.271346
| 62>   H                    : -5.092639            -3.122663            -10.527099
| 63>   H                    : -5.501222            -2.933932            -8.783267
| 64>   H                    : -6.205399            -4.343898            -9.720369
| 65>   C                      -6.709496            0.446351             -8.874042
| 66>   O                      -8.105110            0.775885             -8.981980
| 67>   H                      -8.630612            0.101204             -8.535931
| 68>   H                      -6.056900            1.262505             -8.591079
| 69>   H                      -6.688231            -0.284826            -8.046987
| 70>   H                      -6.230505            -0.083252            -9.722450
| 71> *
| 72>
| 73>                          ****END OF INPUT****
 Total Charge           Charge          ....    0
 Multiplicity           Mult            ....    1
 Number of Electrons    NEL             ....   36
Dispersion correction           -0.002131243
FINAL SINGLE POINT ENERGY      -231.462277649412
Dispersion correction           -0.000230944
FINAL SINGLE POINT ENERGY      -115.733881246132

CARTESIAN COORDINATES (ANGSTROEM)
---------------------------------
  C     -5.919274   -3.266028   -9.765933
  O     -7.007712   -2.477800  -10.131426
  H     -7.419284   -2.264709   -9.271346
  H     -5.092639   -3.122663  -10.527099
  H     -5.501222   -2.933932   -8.783267
  H     -6.205399   -4.343898   -9.720369
  C     -6.709496    0.446351   -8.874042
  O     -8.105110    0.775885   -8.981980
  H     -8.630612    0.101204   -8.535931
  H     -6.056900    1.262505   -8.591079
  H     -6.688231   -0.284826   -8.046987
  H     -6.230505   -0.083252   -9.722450

 Multiplicity           Mult            ....    1
 Number of Electrons    NEL             ....   18
 Basis Dimension        Dim             ....  172

ORBITAL ENERGIES
----------------

  NO   OCC          E(Eh)            E(eV)
   0   2.0000     -19.231210      -523.3078
   1   2.0000     -10.318477      -280.7800
   2   2.0000      -1.128443       -30.7065
   3   2.0000      -0.796517       -21.6743
   4   2.0000      -0.607903       -16.5419
   5   2.0000      -0.535698       -14.5771
   6   2.0000      -0.533509       -14.5175
   7   2.0000      -0.424613       -11.5543
   8   2.0000      -0.376312       -10.2400
   9   0.0000       0.079591         2.1658
  10   0.0000       0.112059         3.0493
  11   0.0000       0.154006         4.1907
  12   0.0000       0.173280         4.7152
  13   0.0000       0.183233         4.9860

MULLIKEN ATOMIC CHARGES
-----------------------
   0 C :   -0.002089
   1 O :    0.000615
   2 H :   -0.001302
   3 H :   -0.000067
   4 H :   -0.000196
   5 H :   -0.000083
   6 C :   -0.173216
   7 O :   -0.480658
   8 H :    0.320746
   9 H :    0.127825
  10 H :    0.099736
  11 H :    0.108688
Sum of atomic charges:   -0.0000000

LOEWDIN ATOMIC CHARGES
----------------------
   0 C :   -0.004169
   1 O :   -0.005191
   2 H :   -0.005641
   3 H :   -0.000242
   4 H :   -0.001112
   5 H :   -0.000050
   6 C :   -0.365237
   7 O :   -0.096082
   8 H :    0.171051
   9 H :    0.101553
  10 H :    0.102264
  11 H :    0.102856

  Mayer bond orders larger than 0.1
B(  6-C ,  7-O ) :   0.9989 B(  6-C ,  9-H ) :   0.9704 B(  6-C , 10-H ) :   0.9995
B(  6-C , 11-H ) :   0.9671 B(  7-O ,  8-H ) :   0.8983

Dispersion correction           -0.000262514
FINAL SINGLE POINT ENERGY      -115.729461427045

DIPOLE MOMENT
-------------
                                X             Y             Z
Electronic contribution:     -1.73796       0.69368      -0.33309
Nuclear contribution   :      1.97502      -1.26237       0.69302
                        -----------------------------------------
Total Dipole Moment    :      0.23706      -0.56869       0.35992
                        -----------------------------------------
Magnitude (a.u.)       :      0.71355
Magnitude (Debye)      :      1.81370

Rotational constants in cm-1:     4.393695     0.799486     0.772745
Rotational constants in MHz : 131719.657305 23967.984054 23166.313448

                             ****ORCA TERMINATED NORMALLY****
TOTAL RUN TIME: 0 days 0 hours 1 minutes 2 seconds 608 msec
