                         Program Version 4.1.2  - RELEASE  -
|  1> #Run DFT-D3 single point of the dimer
|  2> ! wB97X-D3 def2-TZVP TIGHTSCF CHELPG PMODEL PAL8
|  3>
|  4> %base "19-210_DFT_AB"
|  5>
|  6> %scf
|  7> MaxIter 1000
|  8> end
|  9>
| 10> * xyz 0 1
| 11>   C                      -3.557479            -7.362390            3.519988
| 12>   O                      -2.721320            -8.442508            3.756280
| 13>   H                      -2.822372            -9.065009            3.006001
| 14>   H                      -3.327990            -6.455389            4.137939
| 15>   H                      -3.609330            -6.983526            2.487599
| 16>   H                      -4.582899            -7.558906            3.878854
| 17>   C                      -4.870710            -11.223837           1.960255
| 18>   O                      -3.714352            -10.481646           1.690987
| 19>   H                      -3.151898            -10.923892           1.020329
| 20>   H                      -5.616214            -11.020734           1.134862
| 21>   H                      -4.660132            -12.240792           1.941456
| 22>   H                      -5.402218            -11.006514           2.911364
| 23> *
| 24>
| 25> #Run DFT-D3 single point of the molecule with dimer basis set
| 26> $new_job
| 27> %base "19-210_DFT_A"
| 28> ! wB97X-D3 def2-TZVP TIGHTSCF CHELPG PMODEL
| 29>
| 30> %scf
| 31> MaxIter 1000
| 32> end
| 33>
| 34> * xyz 0 1
| 35>   C                      -3.557479            -7.362390            3.519988
| 36>   O                      -2.721320            -8.442508            3.756280
| 37>   H                      -2.822372            -9.065009            3.006001
| 38>   H                      -3.327990            -6.455389            4.137939
| 39>   H                      -3.609330            -6.983526            2.487599
| 40>   H                      -4.582899            -7.558906            3.878854
| 41>   C                    : -4.870710            -11.223837           1.960255
| 42>   O                    : -3.714352            -10.481646           1.690987
| 43>   H                    : -3.151898            -10.923892           1.020329
| 44>   H                    : -5.616214            -11.020734           1.134862
| 45>   H                    : -4.660132            -12.240792           1.941456
| 46>   H                    : -5.402218            -11.006514           2.911364
| 47> *
| 48>
| 49> #Run DFT-D3 single point of the particle with dimer basis set
| 50> $new_job
| 51> %base "19-210_DFT_B"
| 52> ! wB97X-D3 def2-TZVP TIGHTSCF CHELPG PMODEL
| 53>
| 54> %scf
| 55> MaxIter 1000
| 56> end
| 57>
| 58> * xyz 0 1
| 59>   C                    : -3.557479            -7.362390            3.519988
| 60>   O                    : -2.721320            -8.442508            3.756280
| 61>   H                    : -2.822372            -9.065009            3.006001
| 62>   H                    : -3.327990            -6.455389            4.137939
| 63>   H                    : -3.609330            -6.983526            2.487599
| 64>   H                    : -4.582899            -7.558906            3.878854
| 65>   C                      -4.870710            -11.223837           1.960255
| 66>   O                      -3.714352            -10.481646           1.690987
| 67>   H                      -3.151898            -10.923892           1.020329
| 68>   H                      -5.616214            -11.020734           1.134862
| 69>   H                      -4.660132            -12.240792           1.941456
| 70>   H                      -5.402218            -11.006514           2.911364
| 71> *
| 72>
| 73>                          ****END OF INPUT****
 Total Charge           Charge          ....    0
 Multiplicity           Mult            ....    1
 Number of Electrons    NEL             ....   36
Dispersion correction           -0.001679695
FINAL SINGLE POINT ENERGY      -231.471389743389
Dispersion correction           -0.000255659
FINAL SINGLE POINT ENERGY      -115.732591399953

CARTESIAN COORDINATES (ANGSTROEM)
---------------------------------
  C     -3.557479   -7.362390    3.519988
  O     -2.721320   -8.442508    3.756280
  H     -2.822372   -9.065009    3.006001
  H     -3.327990   -6.455389    4.137939
  H     -3.609330   -6.983526    2.487599
  H     -4.582899   -7.558906    3.878854
  C     -4.870710  -11.223837    1.960255
  O     -3.714352  -10.481646    1.690987
  H     -3.151898  -10.923892    1.020329
  H     -5.616214  -11.020734    1.134862
  H     -4.660132  -12.240792    1.941456
  H     -5.402218  -11.006514    2.911364

 Multiplicity           Mult            ....    1
 Number of Electrons    NEL             ....   18
 Basis Dimension        Dim             ....  172

ORBITAL ENERGIES
----------------

  NO   OCC          E(Eh)            E(eV)
   0   2.0000     -19.230363      -523.2848
   1   2.0000     -10.312158      -280.6081
   2   2.0000      -1.134929       -30.8830
   3   2.0000      -0.795414       -21.6443
   4   2.0000      -0.614773       -16.7288
   5   2.0000      -0.539257       -14.6739
   6   2.0000      -0.534058       -14.5325
   7   2.0000      -0.427780       -11.6405
   8   2.0000      -0.368685       -10.0324
   9   0.0000       0.097868         2.6631
  10   0.0000       0.121233         3.2989
  11   0.0000       0.149492         4.0679
  12   0.0000       0.190129         5.1737
  13   0.0000       0.198538         5.4025

MULLIKEN ATOMIC CHARGES
-----------------------
   0 C :    0.001073
   1 O :   -0.000466
   2 H :   -0.008725
   3 H :   -0.000144
   4 H :   -0.001475
   5 H :   -0.000363
   6 C :   -0.164444
   7 O :   -0.475521
   8 H :    0.319417
   9 H :    0.095188
  10 H :    0.112737
  11 H :    0.122724
Sum of atomic charges:    0.0000000

LOEWDIN ATOMIC CHARGES
----------------------
   0 C :   -0.002844
   1 O :   -0.002761
   2 H :   -0.029716
   3 H :   -0.000039
   4 H :   -0.000567
   5 H :   -0.000105
   6 C :   -0.393147
   7 O :   -0.050780
   8 H :    0.183365
   9 H :    0.101124
  10 H :    0.083257
  11 H :    0.112216

  Mayer bond orders larger than 0.1
B(  6-C ,  7-O ) :   0.9883 B(  6-C ,  9-H ) :   0.9792 B(  6-C , 10-H ) :   0.9788
B(  6-C , 11-H ) :   0.9701 B(  7-O ,  8-H ) :   0.8886

Dispersion correction           -0.000239738
FINAL SINGLE POINT ENERGY      -115.730133676401

DIPOLE MOMENT
-------------
                                X             Y             Z
Electronic contribution:      1.53638       1.00904      -0.13032
Nuclear contribution   :     -1.62347      -1.62830      -0.18023
                        -----------------------------------------
Total Dipole Moment    :     -0.08709      -0.61926      -0.31054
                        -----------------------------------------
Magnitude (a.u.)       :      0.69821
Magnitude (Debye)      :      1.77472

Rotational constants in cm-1:     4.381588     0.833958     0.806467
Rotational constants in MHz : 131356.714641 25001.419502 24177.272388

                             ****ORCA TERMINATED NORMALLY****
TOTAL RUN TIME: 0 days 0 hours 0 minutes 50 seconds 439 msec
