                         Program Version 4.1.2  - RELEASE  -
|  1> #Run DFT-D3 single point of the dimer
|  2> ! wB97X-D3 def2-TZVP TIGHTSCF CHELPG PMODEL PAL8
|  3>
|  4> %base "21-15_DFT_AB"
|  5>
|  6> %scf
|  7> MaxIter 1000
|  8> end
|  9>
| 10> * xyz 0 1
| 11>   C                      7.010154             -0.039045            -9.433605
| 12>   O                      8.270154             0.587972             -9.839625
| 13>   H                      8.487820             0.297724             -10.722834
| 14>   H                      6.245528             0.058010             -10.219982
| 15>   H                      7.161661             -1.110750            -9.489318
| 16>   H                      6.696794             0.214839             -8.443639
| 17>   C                      2.873291             -2.529165            -7.643603
| 18>   O                      3.707500             -3.600925            -7.742358
| 19>   H                      4.663623             -3.302338            -7.745049
| 20>   H                      1.923567             -2.610872            -8.190210
| 21>   H                      2.564570             -2.405424            -6.552309
| 22>   H                      3.394196             -1.553683            -7.938926
| 23> *
| 24>
| 25> #Run DFT-D3 single point of the molecule with dimer basis set
| 26> $new_job
| 27> %base "21-15_DFT_A"
| 28> ! wB97X-D3 def2-TZVP TIGHTSCF CHELPG PMODEL
| 29>
| 30> %scf
| 31> MaxIter 1000
| 32> end
| 33>
| 34> * xyz 0 1
| 35>   C                      7.010154             -0.039045            -9.433605
| 36>   O                      8.270154             0.587972             -9.839625
| 37>   H                      8.487820             0.297724             -10.722834
| 38>   H                      6.245528             0.058010             -10.219982
| 39>   H                      7.161661             -1.110750            -9.489318
| 40>   H                      6.696794             0.214839             -8.443639
| 41>   C                    : 2.873291             -2.529165            -7.643603
| 42>   O                    : 3.707500             -3.600925            -7.742358
| 43>   H                    : 4.663623             -3.302338            -7.745049
| 44>   H                    : 1.923567             -2.610872            -8.190210
| 45>   H                    : 2.564570             -2.405424            -6.552309
| 46>   H                    : 3.394196             -1.553683            -7.938926
| 47> *
| 48>
| 49> #Run DFT-D3 single point of the particle with dimer basis set
| 50> $new_job
| 51> %base "21-15_DFT_B"
| 52> ! wB97X-D3 def2-TZVP TIGHTSCF CHELPG PMODEL
| 53>
| 54> %scf
| 55> MaxIter 1000
| 56> end
| 57>
| 58> * xyz 0 1
| 59>   C                    : 7.010154             -0.039045            -9.433605
| 60>   O                    : 8.270154             0.587972             -9.839625
| 61>   H                    : 8.487820             0.297724             -10.722834
| 62>   H                    : 6.245528             0.058010             -10.219982
| 63>   H                    : 7.161661             -1.110750            -9.489318
| 64>   H                    : 6.696794             0.214839             -8.443639
| 65>   C                      2.873291             -2.529165            -7.643603
| 66>   O                      3.707500             -3.600925            -7.742358
| 67>   H                      4.663623             -3.302338            -7.745049
| 68>   H                      1.923567             -2.610872            -8.190210
| 69>   H                      2.564570             -2.405424            -6.552309
| 70>   H                      3.394196             -1.553683            -7.938926
| 71> *
| 72>
| 73>                          ****END OF INPUT****
 Total Charge           Charge          ....    0
 Multiplicity           Mult            ....    1
 Number of Electrons    NEL             ....   36
Dispersion correction           -0.000850001
FINAL SINGLE POINT ENERGY      -231.457915179595
Dispersion correction           -0.000245159
FINAL SINGLE POINT ENERGY      -115.729368538870

CARTESIAN COORDINATES (ANGSTROEM)
---------------------------------
  C      7.010154   -0.039045   -9.433605
  O      8.270154    0.587972   -9.839625
  H      8.487820    0.297724  -10.722834
  H      6.245528    0.058010  -10.219982
  H      7.161661   -1.110750   -9.489318
  H      6.696794    0.214839   -8.443639
  C      2.873291   -2.529165   -7.643603
  O      3.707500   -3.600925   -7.742358
  H      4.663623   -3.302338   -7.745049
  H      1.923567   -2.610872   -8.190210
  H      2.564570   -2.405424   -6.552309
  H      3.394196   -1.553683   -7.938926

 Multiplicity           Mult            ....    1
 Number of Electrons    NEL             ....   18
 Basis Dimension        Dim             ....  172

ORBITAL ENERGIES
----------------

  NO   OCC          E(Eh)            E(eV)
   0   2.0000     -19.234571      -523.3993
   1   2.0000     -10.319088      -280.7967
   2   2.0000      -1.146374       -31.1944
   3   2.0000      -0.783744       -21.3268
   4   2.0000      -0.615209       -16.7407
   5   2.0000      -0.540592       -14.7103
   6   2.0000      -0.534337       -14.5401
   7   2.0000      -0.424432       -11.5494
   8   2.0000      -0.364760        -9.9256
   9   0.0000       0.069413         1.8888
  10   0.0000       0.109659         2.9840
  11   0.0000       0.147608         4.0166
  12   0.0000       0.165826         4.5124
  13   0.0000       0.188504         5.1295

MULLIKEN ATOMIC CHARGES
-----------------------
   0 C :    0.000187
   1 O :    0.000003
   2 H :   -0.000000
   3 H :   -0.000080
   4 H :   -0.000156
   5 H :   -0.000107
   6 C :   -0.161451
   7 O :   -0.461549
   8 H :    0.327571
   9 H :    0.115089
  10 H :    0.088397
  11 H :    0.092095
Sum of atomic charges:   -0.0000000

LOEWDIN ATOMIC CHARGES
----------------------
   0 C :   -0.000192
   1 O :   -0.000002
   2 H :   -0.000000
   3 H :   -0.000041
   4 H :   -0.000084
   5 H :   -0.000082
   6 C :   -0.442637
   7 O :   -0.057495
   8 H :    0.200380
   9 H :    0.102406
  10 H :    0.097786
  11 H :    0.099963

  Mayer bond orders larger than 0.1
B(  6-C ,  7-O ) :   1.0187 B(  6-C ,  9-H ) :   0.9676 B(  6-C , 10-H ) :   0.9773
B(  6-C , 11-H ) :   0.9839 B(  7-O ,  8-H ) :   0.8849

Dispersion correction           -0.000247460
FINAL SINGLE POINT ENERGY      -115.728431894216

DIPOLE MOMENT
-------------
                                X             Y             Z
Electronic contribution:      1.01591      -1.63792      -0.29807
Nuclear contribution   :     -0.69402       2.20058       0.30556
                        -----------------------------------------
Total Dipole Moment    :      0.32189       0.56266       0.00749
                        -----------------------------------------
Magnitude (a.u.)       :      0.64827
Magnitude (Debye)      :      1.64777

Rotational constants in cm-1:     4.114022     0.868760     0.830166
Rotational constants in MHz : 123335.289110 26044.782924 24887.738778

                             ****ORCA TERMINATED NORMALLY****
TOTAL RUN TIME: 0 days 0 hours 0 minutes 59 seconds 1 msec
