                         Program Version 4.1.2  - RELEASE  -
|  1> #Run DFT-D3 single point of the dimer
|  2> ! wB97X-D3 def2-TZVP TIGHTSCF CHELPG PMODEL PAL8
|  3>
|  4> %base "2-149_DFT_AB"
|  5>
|  6> %scf
|  7> MaxIter 1000
|  8> end
|  9>
| 10> * xyz 0 1
| 11>   C                      -6.482457            -6.091744            -11.616427
| 12>   O                      -6.748681            -6.186808            -10.242572
| 13>   H                      -6.790137            -5.363731            -9.729532
| 14>   H                      -7.125715            -5.429157            -12.132322
| 15>   H                      -5.530468            -5.572866            -11.775662
| 16>   H                      -6.388227            -7.055093            -12.114680
| 17>   C                      -4.819803            -6.045731            -7.806777
| 18>   O                      -4.829933            -5.369255            -9.002704
| 19>   H                      -4.157953            -5.676113            -9.562994
| 20>   H                      -5.873381            -6.416321            -7.611069
| 21>   H                      -4.069372            -6.876652            -7.857929
| 22>   H                      -4.606373            -5.330767            -6.983607
| 23> *
| 24>
| 25> #Run DFT-D3 single point of the molecule with dimer basis set
| 26> $new_job
| 27> %base "2-149_DFT_A"
| 28> ! wB97X-D3 def2-TZVP TIGHTSCF CHELPG PMODEL
| 29>
| 30> %scf
| 31> MaxIter 1000
| 32> end
| 33>
| 34> * xyz 0 1
| 35>   C                      -6.482457            -6.091744            -11.616427
| 36>   O                      -6.748681            -6.186808            -10.242572
| 37>   H                      -6.790137            -5.363731            -9.729532
| 38>   H                      -7.125715            -5.429157            -12.132322
| 39>   H                      -5.530468            -5.572866            -11.775662
| 40>   H                      -6.388227            -7.055093            -12.114680
| 41>   C                    : -4.819803            -6.045731            -7.806777
| 42>   O                    : -4.829933            -5.369255            -9.002704
| 43>   H                    : -4.157953            -5.676113            -9.562994
| 44>   H                    : -5.873381            -6.416321            -7.611069
| 45>   H                    : -4.069372            -6.876652            -7.857929
| 46>   H                    : -4.606373            -5.330767            -6.983607
| 47> *
| 48>
| 49> #Run DFT-D3 single point of the particle with dimer basis set
| 50> $new_job
| 51> %base "2-149_DFT_B"
| 52> ! wB97X-D3 def2-TZVP TIGHTSCF CHELPG PMODEL
| 53>
| 54> %scf
| 55> MaxIter 1000
| 56> end
| 57>
| 58> * xyz 0 1
| 59>   C                    : -6.482457            -6.091744            -11.616427
| 60>   O                    : -6.748681            -6.186808            -10.242572
| 61>   H                    : -6.790137            -5.363731            -9.729532
| 62>   H                    : -7.125715            -5.429157            -12.132322
| 63>   H                    : -5.530468            -5.572866            -11.775662
| 64>   H                    : -6.388227            -7.055093            -12.114680
| 65>   C                      -4.819803            -6.045731            -7.806777
| 66>   O                      -4.829933            -5.369255            -9.002704
| 67>   H                      -4.157953            -5.676113            -9.562994
| 68>   H                      -5.873381            -6.416321            -7.611069
| 69>   H                      -4.069372            -6.876652            -7.857929
| 70>   H                      -4.606373            -5.330767            -6.983607
| 71> *
| 72>
| 73>                          ****END OF INPUT****
 Total Charge           Charge          ....    0
 Multiplicity           Mult            ....    1
 Number of Electrons    NEL             ....   36
Dispersion correction           -0.002123852
FINAL SINGLE POINT ENERGY      -231.454708761337
Dispersion correction           -0.000252825
FINAL SINGLE POINT ENERGY      -115.730455788165

CARTESIAN COORDINATES (ANGSTROEM)
---------------------------------
  C     -6.482457   -6.091744  -11.616427
  O     -6.748681   -6.186808  -10.242572
  H     -6.790137   -5.363731   -9.729532
  H     -7.125715   -5.429157  -12.132322
  H     -5.530468   -5.572866  -11.775662
  H     -6.388227   -7.055093  -12.114680
  C     -4.819803   -6.045731   -7.806777
  O     -4.829933   -5.369255   -9.002704
  H     -4.157953   -5.676113   -9.562994
  H     -5.873381   -6.416321   -7.611069
  H     -4.069372   -6.876652   -7.857929
  H     -4.606373   -5.330767   -6.983607

 Multiplicity           Mult            ....    1
 Number of Electrons    NEL             ....   18
 Basis Dimension        Dim             ....  172

ORBITAL ENERGIES
----------------

  NO   OCC          E(Eh)            E(eV)
   0   2.0000     -19.225495      -523.1523
   1   2.0000     -10.319639      -280.8117
   2   2.0000      -1.154778       -31.4231
   3   2.0000      -0.792611       -21.5680
   4   2.0000      -0.620283       -16.8788
   5   2.0000      -0.541608       -14.7379
   6   2.0000      -0.535687       -14.5768
   7   2.0000      -0.430029       -11.7017
   8   2.0000      -0.367722       -10.0062
   9   0.0000       0.092888         2.5276
  10   0.0000       0.128593         3.4992
  11   0.0000       0.153442         4.1754
  12   0.0000       0.182024         4.9531
  13   0.0000       0.198816         5.4101

MULLIKEN ATOMIC CHARGES
-----------------------
   0 C :   -0.011104
   1 O :    0.008032
   2 H :   -0.005377
   3 H :   -0.000936
   4 H :   -0.001123
   5 H :    0.000913
   6 C :   -0.149955
   7 O :   -0.458546
   8 H :    0.312880
   9 H :    0.104608
  10 H :    0.097234
  11 H :    0.103374
Sum of atomic charges:    0.0000000

LOEWDIN ATOMIC CHARGES
----------------------
   0 C :   -0.012039
   1 O :   -0.029548
   2 H :   -0.024047
   3 H :   -0.000300
   4 H :   -0.003031
   5 H :   -0.000206
   6 C :   -0.410447
   7 O :    0.017526
   8 H :    0.151837
   9 H :    0.108365
  10 H :    0.100901
  11 H :    0.100988

  Mayer bond orders larger than 0.1
B(  6-C ,  7-O ) :   0.9998 B(  6-C ,  9-H ) :   0.9791 B(  6-C , 10-H ) :   0.9854
B(  6-C , 11-H ) :   0.9722 B(  7-O ,  8-H ) :   0.9032

Dispersion correction           -0.000234802
FINAL SINGLE POINT ENERGY      -115.731473141899

DIPOLE MOMENT
-------------
                                X             Y             Z
Electronic contribution:     -0.02100       0.90575      -1.51690
Nuclear contribution   :      0.48786      -1.35840       1.58575
                        -----------------------------------------
Total Dipole Moment    :      0.46686      -0.45265       0.06886
                        -----------------------------------------
Magnitude (a.u.)       :      0.65390
Magnitude (Debye)      :      1.66209

Rotational constants in cm-1:     4.123560     0.876441     0.837632
Rotational constants in MHz : 123621.220214 26275.032950 25111.565131

                             ****ORCA TERMINATED NORMALLY****
TOTAL RUN TIME: 0 days 0 hours 6 minutes 26 seconds 349 msec
