                         Program Version 4.1.2  - RELEASE  -
|  1> #Run DFT-D3 single point of the dimer
|  2> ! wB97X-D3 def2-TZVP TIGHTSCF CHELPG PMODEL PAL8
|  3>
|  4> %base "17-166_DFT_AB"
|  5>
|  6> %scf
|  7> MaxIter 1000
|  8> end
|  9>
| 10> * xyz 0 1
| 11>   C                      -3.794272            2.293692             8.882736
| 12>   O                      -4.806415            2.716572             7.958103
| 13>   H                      -5.271343            1.986556             7.505574
| 14>   H                      -3.395406            1.318723             8.520923
| 15>   H                      -3.000333            2.959490             8.972679
| 16>   H                      -4.124509            2.106691             9.882683
| 17>   C                      -7.625825            -2.118438            6.216507
| 18>   O                      -6.382549            -1.543956            6.599083
| 19>   H                      -6.301052            -0.573742            6.507122
| 20>   H                      -7.759299            -3.193026            6.659678
| 21>   H                      -8.447343            -1.473519            6.457667
| 22>   H                      -7.672048            -2.337438            5.139044
| 23> *
| 24>
| 25> #Run DFT-D3 single point of the molecule with dimer basis set
| 26> $new_job
| 27> %base "17-166_DFT_A"
| 28> ! wB97X-D3 def2-TZVP TIGHTSCF CHELPG PMODEL
| 29>
| 30> %scf
| 31> MaxIter 1000
| 32> end
| 33>
| 34> * xyz 0 1
| 35>   C                      -3.794272            2.293692             8.882736
| 36>   O                      -4.806415            2.716572             7.958103
| 37>   H                      -5.271343            1.986556             7.505574
| 38>   H                      -3.395406            1.318723             8.520923
| 39>   H                      -3.000333            2.959490             8.972679
| 40>   H                      -4.124509            2.106691             9.882683
| 41>   C                    : -7.625825            -2.118438            6.216507
| 42>   O                    : -6.382549            -1.543956            6.599083
| 43>   H                    : -6.301052            -0.573742            6.507122
| 44>   H                    : -7.759299            -3.193026            6.659678
| 45>   H                    : -8.447343            -1.473519            6.457667
| 46>   H                    : -7.672048            -2.337438            5.139044
| 47> *
| 48>
| 49> #Run DFT-D3 single point of the particle with dimer basis set
| 50> $new_job
| 51> %base "17-166_DFT_B"
| 52> ! wB97X-D3 def2-TZVP TIGHTSCF CHELPG PMODEL
| 53>
| 54> %scf
| 55> MaxIter 1000
| 56> end
| 57>
| 58> * xyz 0 1
| 59>   C                    : -3.794272            2.293692             8.882736
| 60>   O                    : -4.806415            2.716572             7.958103
| 61>   H                    : -5.271343            1.986556             7.505574
| 62>   H                    : -3.395406            1.318723             8.520923
| 63>   H                    : -3.000333            2.959490             8.972679
| 64>   H                    : -4.124509            2.106691             9.882683
| 65>   C                      -7.625825            -2.118438            6.216507
| 66>   O                      -6.382549            -1.543956            6.599083
| 67>   H                      -6.301052            -0.573742            6.507122
| 68>   H                      -7.759299            -3.193026            6.659678
| 69>   H                      -8.447343            -1.473519            6.457667
| 70>   H                      -7.672048            -2.337438            5.139044
| 71> *
| 72>
| 73>                          ****END OF INPUT****
 Total Charge           Charge          ....    0
 Multiplicity           Mult            ....    1
 Number of Electrons    NEL             ....   36
Dispersion correction           -0.000877952
FINAL SINGLE POINT ENERGY      -231.457713632290
Dispersion correction           -0.000262525
FINAL SINGLE POINT ENERGY      -115.729685836174

CARTESIAN COORDINATES (ANGSTROEM)
---------------------------------
  C     -3.794272    2.293692    8.882736
  O     -4.806415    2.716572    7.958103
  H     -5.271343    1.986556    7.505574
  H     -3.395406    1.318723    8.520923
  H     -3.000333    2.959490    8.972679
  H     -4.124509    2.106691    9.882683
  C     -7.625825   -2.118438    6.216507
  O     -6.382549   -1.543956    6.599083
  H     -6.301052   -0.573742    6.507122
  H     -7.759299   -3.193026    6.659678
  H     -8.447343   -1.473519    6.457667
  H     -7.672048   -2.337438    5.139044

 Multiplicity           Mult            ....    1
 Number of Electrons    NEL             ....   18
 Basis Dimension        Dim             ....  172

ORBITAL ENERGIES
----------------

  NO   OCC          E(Eh)            E(eV)
   0   2.0000     -19.228956      -523.2465
   1   2.0000     -10.320831      -280.8441
   2   2.0000      -1.125047       -30.6141
   3   2.0000      -0.793853       -21.6019
   4   2.0000      -0.611192       -16.6314
   5   2.0000      -0.541056       -14.7229
   6   2.0000      -0.517038       -14.0693
   7   2.0000      -0.423331       -11.5194
   8   2.0000      -0.369653       -10.0588
   9   0.0000       0.078464         2.1351
  10   0.0000       0.116685         3.1751
  11   0.0000       0.142827         3.8865
  12   0.0000       0.177365         4.8263
  13   0.0000       0.197265         5.3679

MULLIKEN ATOMIC CHARGES
-----------------------
   0 C :   -0.000006
   1 O :    0.000065
   2 H :   -0.000420
   3 H :   -0.000070
   4 H :   -0.000008
   5 H :    0.000007
   6 C :   -0.155429
   7 O :   -0.496155
   8 H :    0.322597
   9 H :    0.115406
  10 H :    0.110547
  11 H :    0.103468
Sum of atomic charges:   -0.0000000

LOEWDIN ATOMIC CHARGES
----------------------
   0 C :   -0.000041
   1 O :   -0.000015
   2 H :   -0.000833
   3 H :   -0.000033
   4 H :   -0.000003
   5 H :   -0.000000
   6 C :   -0.385968
   7 O :   -0.096246
   8 H :    0.177056
   9 H :    0.122118
  10 H :    0.089963
  11 H :    0.094002

  Mayer bond orders larger than 0.1
B(  6-C ,  7-O ) :   0.9968 B(  6-C ,  9-H ) :   0.9688 B(  6-C , 10-H ) :   0.9774
B(  6-C , 11-H ) :   0.9735 B(  7-O ,  8-H ) :   0.8871

Dispersion correction           -0.000276638
FINAL SINGLE POINT ENERGY      -115.728849791741

DIPOLE MOMENT
-------------
                                X             Y             Z
Electronic contribution:      1.58239       0.74821       0.57151
Nuclear contribution   :     -2.05521      -0.33776      -0.79806
                        -----------------------------------------
Total Dipole Moment    :     -0.47281       0.41044      -0.22655
                        -----------------------------------------
Magnitude (a.u.)       :      0.66584
Magnitude (Debye)      :      1.69243

Rotational constants in cm-1:     4.316570     0.807168     0.772681
Rotational constants in MHz : 129407.503542 24198.298243 23164.397578

                             ****ORCA TERMINATED NORMALLY****
TOTAL RUN TIME: 0 days 0 hours 1 minutes 5 seconds 566 msec
