                         Program Version 4.1.2  - RELEASE  -
|  1> #Run DFT-D3 single point of the dimer
|  2> ! wB97X-D3 def2-TZVP TIGHTSCF CHELPG PMODEL PAL8
|  3>
|  4> %base "18-9_DFT_AB"
|  5>
|  6> %scf
|  7> MaxIter 1000
|  8> end
|  9>
| 10> * xyz 0 1
| 11>   C                      0.886549             0.822237             10.406532
| 12>   O                      -0.359793            0.971877             9.692236
| 13>   H                      -0.550626            0.048280             9.716713
| 14>   H                      1.518922             1.710716             10.116938
| 15>   H                      0.664286             0.723875             11.450918
| 16>   H                      1.397309             -0.146132            10.165140
| 17>   C                      5.252981             -0.803003            7.182503
| 18>   O                      5.599119             -0.796855            5.796567
| 19>   H                      4.741925             -0.668005            5.308270
| 20>   H                      5.988763             -1.259529            7.777616
| 21>   H                      5.132993             0.267707             7.477022
| 22>   H                      4.233948             -1.214135            7.383336
| 23> *
| 24>
| 25> #Run DFT-D3 single point of the molecule with dimer basis set
| 26> $new_job
| 27> %base "18-9_DFT_A"
| 28> ! wB97X-D3 def2-TZVP TIGHTSCF CHELPG PMODEL
| 29>
| 30> %scf
| 31> MaxIter 1000
| 32> end
| 33>
| 34> * xyz 0 1
| 35>   C                      0.886549             0.822237             10.406532
| 36>   O                      -0.359793            0.971877             9.692236
| 37>   H                      -0.550626            0.048280             9.716713
| 38>   H                      1.518922             1.710716             10.116938
| 39>   H                      0.664286             0.723875             11.450918
| 40>   H                      1.397309             -0.146132            10.165140
| 41>   C                    : 5.252981             -0.803003            7.182503
| 42>   O                    : 5.599119             -0.796855            5.796567
| 43>   H                    : 4.741925             -0.668005            5.308270
| 44>   H                    : 5.988763             -1.259529            7.777616
| 45>   H                    : 5.132993             0.267707             7.477022
| 46>   H                    : 4.233948             -1.214135            7.383336
| 47> *
| 48>
| 49> #Run DFT-D3 single point of the particle with dimer basis set
| 50> $new_job
| 51> %base "18-9_DFT_B"
| 52> ! wB97X-D3 def2-TZVP TIGHTSCF CHELPG PMODEL
| 53>
| 54> %scf
| 55> MaxIter 1000
| 56> end
| 57>
| 58> * xyz 0 1
| 59>   C                    : 0.886549             0.822237             10.406532
| 60>   O                    : -0.359793            0.971877             9.692236
| 61>   H                    : -0.550626            0.048280             9.716713
| 62>   H                    : 1.518922             1.710716             10.116938
| 63>   H                    : 0.664286             0.723875             11.450918
| 64>   H                    : 1.397309             -0.146132            10.165140
| 65>   C                      5.252981             -0.803003            7.182503
| 66>   O                      5.599119             -0.796855            5.796567
| 67>   H                      4.741925             -0.668005            5.308270
| 68>   H                      5.988763             -1.259529            7.777616
| 69>   H                      5.132993             0.267707             7.477022
| 70>   H                      4.233948             -1.214135            7.383336
| 71> *
| 72>
| 73>                          ****END OF INPUT****
 Total Charge           Charge          ....    0
 Multiplicity           Mult            ....    1
 Number of Electrons    NEL             ....   36
Dispersion correction           -0.000600749
FINAL SINGLE POINT ENERGY      -231.456884206280
Dispersion correction           -0.000209488
FINAL SINGLE POINT ENERGY      -115.725842759783

CARTESIAN COORDINATES (ANGSTROEM)
---------------------------------
  C      0.886549    0.822237   10.406532
  O     -0.359793    0.971877    9.692236
  H     -0.550626    0.048280    9.716713
  H      1.518922    1.710716   10.116938
  H      0.664286    0.723875   11.450918
  H      1.397309   -0.146132   10.165140
  C      5.252981   -0.803003    7.182503
  O      5.599119   -0.796855    5.796567
  H      4.741925   -0.668005    5.308270
  H      5.988763   -1.259529    7.777616
  H      5.132993    0.267707    7.477022
  H      4.233948   -1.214135    7.383336

 Multiplicity           Mult            ....    1
 Number of Electrons    NEL             ....   18
 Basis Dimension        Dim             ....  172

ORBITAL ENERGIES
----------------

  NO   OCC          E(Eh)            E(eV)
   0   2.0000     -19.232595      -523.3455
   1   2.0000     -10.314591      -280.6743
   2   2.0000      -1.126477       -30.6530
   3   2.0000      -0.792351       -21.5610
   4   2.0000      -0.605157       -16.4672
   5   2.0000      -0.539167       -14.6715
   6   2.0000      -0.523619       -14.2484
   7   2.0000      -0.441252       -12.0071
   8   2.0000      -0.367380        -9.9969
   9   0.0000       0.081625         2.2211
  10   0.0000       0.109246         2.9727
  11   0.0000       0.146124         3.9762
  12   0.0000       0.168614         4.5882
  13   0.0000       0.180696         4.9170

MULLIKEN ATOMIC CHARGES
-----------------------
   0 C :    0.000035
   1 O :   -0.000000
   2 H :   -0.000001
   3 H :   -0.000020
   4 H :   -0.000005
   5 H :   -0.000099
   6 C :   -0.173215
   7 O :   -0.473781
   8 H :    0.317285
   9 H :    0.128053
  10 H :    0.100250
  11 H :    0.101499
Sum of atomic charges:   -0.0000000

LOEWDIN ATOMIC CHARGES
----------------------
   0 C :   -0.000025
   1 O :   -0.000001
   2 H :   -0.000000
   3 H :   -0.000011
   4 H :   -0.000000
   5 H :   -0.000057
   6 C :   -0.378364
   7 O :   -0.105519
   8 H :    0.189662
   9 H :    0.095818
  10 H :    0.099619
  11 H :    0.098878

  Mayer bond orders larger than 0.1
B(  6-C ,  7-O ) :   0.9991 B(  6-C ,  9-H ) :   0.9713 B(  6-C , 10-H ) :   0.9808
B(  6-C , 11-H ) :   0.9776 B(  7-O ,  8-H ) :   0.8957

Dispersion correction           -0.000237328
FINAL SINGLE POINT ENERGY      -115.730920660995

DIPOLE MOMENT
-------------
                                X             Y             Z
Electronic contribution:      0.72946      -0.19700      -1.69153
Nuclear contribution   :     -1.39543       0.26561       1.94425
                        -----------------------------------------
Total Dipole Moment    :     -0.66597       0.06861       0.25272
                        -----------------------------------------
Magnitude (a.u.)       :      0.71560
Magnitude (Debye)      :      1.81892

Rotational constants in cm-1:     4.190490     0.823606     0.785884
Rotational constants in MHz : 125627.718250 24691.081935 23560.195475

                             ****ORCA TERMINATED NORMALLY****
TOTAL RUN TIME: 0 days 0 hours 0 minutes 54 seconds 808 msec
