                         Program Version 4.1.2  - RELEASE  -
|  1> #Run DFT-D3 single point of the dimer
|  2> ! wB97X-D3 def2-TZVP TIGHTSCF CHELPG PMODEL PAL8
|  3>
|  4> %base "16-208_DFT_AB"
|  5>
|  6> %scf
|  7> MaxIter 1000
|  8> end
|  9>
| 10> * xyz 0 1
| 11>   C                      0.745206             -3.975291            -0.579764
| 12>   O                      0.307130             -2.700104            -0.591971
| 13>   H                      0.261849             -2.321639            0.278129
| 14>   H                      1.456053             -4.077456            0.239534
| 15>   H                      -0.000700            -4.631247            -0.176744
| 16>   H                      1.118313             -4.411004            -1.534896
| 17>   C                      -2.777194            -0.270792            0.949009
| 18>   O                      -1.995689            -1.417188            1.100612
| 19>   H                      -1.644728            -1.674541            1.990131
| 20>   H                      -2.231855            0.680778             0.936263
| 21>   H                      -3.323798            -0.297364            0.091819
| 22>   H                      -3.522735            -0.224258            1.774500
| 23> *
| 24>
| 25> #Run DFT-D3 single point of the molecule with dimer basis set
| 26> $new_job
| 27> %base "16-208_DFT_A"
| 28> ! wB97X-D3 def2-TZVP TIGHTSCF CHELPG PMODEL
| 29>
| 30> %scf
| 31> MaxIter 1000
| 32> end
| 33>
| 34> * xyz 0 1
| 35>   C                      0.745206             -3.975291            -0.579764
| 36>   O                      0.307130             -2.700104            -0.591971
| 37>   H                      0.261849             -2.321639            0.278129
| 38>   H                      1.456053             -4.077456            0.239534
| 39>   H                      -0.000700            -4.631247            -0.176744
| 40>   H                      1.118313             -4.411004            -1.534896
| 41>   C                    : -2.777194            -0.270792            0.949009
| 42>   O                    : -1.995689            -1.417188            1.100612
| 43>   H                    : -1.644728            -1.674541            1.990131
| 44>   H                    : -2.231855            0.680778             0.936263
| 45>   H                    : -3.323798            -0.297364            0.091819
| 46>   H                    : -3.522735            -0.224258            1.774500
| 47> *
| 48>
| 49> #Run DFT-D3 single point of the particle with dimer basis set
| 50> $new_job
| 51> %base "16-208_DFT_B"
| 52> ! wB97X-D3 def2-TZVP TIGHTSCF CHELPG PMODEL
| 53>
| 54> %scf
| 55> MaxIter 1000
| 56> end
| 57>
| 58> * xyz 0 1
| 59>   C                    : 0.745206             -3.975291            -0.579764
| 60>   O                    : 0.307130             -2.700104            -0.591971
| 61>   H                    : 0.261849             -2.321639            0.278129
| 62>   H                    : 1.456053             -4.077456            0.239534
| 63>   H                    : -0.000700            -4.631247            -0.176744
| 64>   H                    : 1.118313             -4.411004            -1.534896
| 65>   C                      -2.777194            -0.270792            0.949009
| 66>   O                      -1.995689            -1.417188            1.100612
| 67>   H                      -1.644728            -1.674541            1.990131
| 68>   H                      -2.231855            0.680778             0.936263
| 69>   H                      -3.323798            -0.297364            0.091819
| 70>   H                      -3.522735            -0.224258            1.774500
| 71> *
| 72>
| 73>                          ****END OF INPUT****
 Total Charge           Charge          ....    0
 Multiplicity           Mult            ....    1
 Number of Electrons    NEL             ....   36
Dispersion correction           -0.001348370
FINAL SINGLE POINT ENERGY      -231.452641708393
Dispersion correction           -0.000210894
FINAL SINGLE POINT ENERGY      -115.725397905319

CARTESIAN COORDINATES (ANGSTROEM)
---------------------------------
  C      0.745206   -3.975291   -0.579764
  O      0.307130   -2.700104   -0.591971
  H      0.261849   -2.321639    0.278129
  H      1.456053   -4.077456    0.239534
  H     -0.000700   -4.631247   -0.176744
  H      1.118313   -4.411004   -1.534896
  C     -2.777194   -0.270792    0.949009
  O     -1.995689   -1.417188    1.100612
  H     -1.644728   -1.674541    1.990131
  H     -2.231855    0.680778    0.936263
  H     -3.323798   -0.297364    0.091819
  H     -3.522735   -0.224258    1.774500

 Multiplicity           Mult            ....    1
 Number of Electrons    NEL             ....   18
 Basis Dimension        Dim             ....  172

ORBITAL ENERGIES
----------------

  NO   OCC          E(Eh)            E(eV)
   0   2.0000     -19.228389      -523.2311
   1   2.0000     -10.307226      -280.4739
   2   2.0000      -1.128542       -30.7092
   3   2.0000      -0.804239       -21.8845
   4   2.0000      -0.613146       -16.6845
   5   2.0000      -0.541870       -14.7450
   6   2.0000      -0.538543       -14.6545
   7   2.0000      -0.416004       -11.3200
   8   2.0000      -0.370859       -10.0916
   9   0.0000       0.093612         2.5473
  10   0.0000       0.119979         3.2648
  11   0.0000       0.152820         4.1584
  12   0.0000       0.189691         5.1618
  13   0.0000       0.199038         5.4161

MULLIKEN ATOMIC CHARGES
-----------------------
   0 C :    0.000182
   1 O :    0.002491
   2 H :   -0.011712
   3 H :    0.000055
   4 H :   -0.000328
   5 H :   -0.000015
   6 C :   -0.128279
   7 O :   -0.502112
   8 H :    0.329843
   9 H :    0.093493
  10 H :    0.125881
  11 H :    0.090501
Sum of atomic charges:   -0.0000000

LOEWDIN ATOMIC CHARGES
----------------------
   0 C :   -0.000823
   1 O :   -0.004401
   2 H :   -0.012781
   3 H :   -0.000004
   4 H :   -0.000171
   5 H :   -0.000013
   6 C :   -0.385571
   7 O :   -0.068371
   8 H :    0.187763
   9 H :    0.094753
  10 H :    0.089725
  11 H :    0.099894

  Mayer bond orders larger than 0.1
B(  6-C ,  7-O ) :   0.9981 B(  6-C ,  9-H ) :   0.9736 B(  6-C , 10-H ) :   0.9726
B(  6-C , 11-H ) :   0.9846 B(  7-O ,  8-H ) :   0.8777

Dispersion correction           -0.000265576
FINAL SINGLE POINT ENERGY      -115.727340473188

DIPOLE MOMENT
-------------
                                X             Y             Z
Electronic contribution:      1.01773      -1.48768      -0.01979
Nuclear contribution   :     -1.14247       1.78533       0.53398
                        -----------------------------------------
Total Dipole Moment    :     -0.12474       0.29765       0.51419
                        -----------------------------------------
Magnitude (a.u.)       :      0.60708
Magnitude (Debye)      :      1.54309

Rotational constants in cm-1:     4.618776     0.826181     0.806061
Rotational constants in MHz : 138467.416088 24768.293407 24165.109531

                             ****ORCA TERMINATED NORMALLY****
TOTAL RUN TIME: 0 days 0 hours 0 minutes 56 seconds 751 msec
