                         Program Version 4.1.2  - RELEASE  -
|  1> #Run DFT-D3 single point of the dimer
|  2> ! wB97X-D3 def2-TZVP TIGHTSCF CHELPG PMODEL PAL8
|  3>
|  4> %base "12-31_DFT_AB"
|  5>
|  6> %scf
|  7> MaxIter 1000
|  8> end
|  9>
| 10> * xyz 0 1
| 11>   C                      5.213601             -6.424230            1.445439
| 12>   O                      5.630218             -5.208946            2.075847
| 13>   H                      5.563530             -4.576802            1.354313
| 14>   H                      5.329758             -7.331916            2.140380
| 15>   H                      4.144093             -6.377885            1.182249
| 16>   H                      5.866397             -6.714165            0.524728
| 17>   C                      4.774426             -8.100343            -2.462904
| 18>   O                      3.775210             -8.706812            -3.317403
| 19>   H                      3.715647             -9.629430            -3.337274
| 20>   H                      5.720722             -8.688947            -2.542135
| 21>   H                      5.002248             -7.044043            -2.599598
| 22>   H                      4.446611             -8.023833            -1.378385
| 23> *
| 24>
| 25> #Run DFT-D3 single point of the molecule with dimer basis set
| 26> $new_job
| 27> %base "12-31_DFT_A"
| 28> ! wB97X-D3 def2-TZVP TIGHTSCF CHELPG PMODEL
| 29>
| 30> %scf
| 31> MaxIter 1000
| 32> end
| 33>
| 34> * xyz 0 1
| 35>   C                      5.213601             -6.424230            1.445439
| 36>   O                      5.630218             -5.208946            2.075847
| 37>   H                      5.563530             -4.576802            1.354313
| 38>   H                      5.329758             -7.331916            2.140380
| 39>   H                      4.144093             -6.377885            1.182249
| 40>   H                      5.866397             -6.714165            0.524728
| 41>   C                    : 4.774426             -8.100343            -2.462904
| 42>   O                    : 3.775210             -8.706812            -3.317403
| 43>   H                    : 3.715647             -9.629430            -3.337274
| 44>   H                    : 5.720722             -8.688947            -2.542135
| 45>   H                    : 5.002248             -7.044043            -2.599598
| 46>   H                    : 4.446611             -8.023833            -1.378385
| 47> *
| 48>
| 49> #Run DFT-D3 single point of the particle with dimer basis set
| 50> $new_job
| 51> %base "12-31_DFT_B"
| 52> ! wB97X-D3 def2-TZVP TIGHTSCF CHELPG PMODEL
| 53>
| 54> %scf
| 55> MaxIter 1000
| 56> end
| 57>
| 58> * xyz 0 1
| 59>   C                    : 5.213601             -6.424230            1.445439
| 60>   O                    : 5.630218             -5.208946            2.075847
| 61>   H                    : 5.563530             -4.576802            1.354313
| 62>   H                    : 5.329758             -7.331916            2.140380
| 63>   H                    : 4.144093             -6.377885            1.182249
| 64>   H                    : 5.866397             -6.714165            0.524728
| 65>   C                      4.774426             -8.100343            -2.462904
| 66>   O                      3.775210             -8.706812            -3.317403
| 67>   H                      3.715647             -9.629430            -3.337274
| 68>   H                      5.720722             -8.688947            -2.542135
| 69>   H                      5.002248             -7.044043            -2.599598
| 70>   H                      4.446611             -8.023833            -1.378385
| 71> *
| 72>
| 73>                          ****END OF INPUT****
 Total Charge           Charge          ....    0
 Multiplicity           Mult            ....    1
 Number of Electrons    NEL             ....   36
Dispersion correction           -0.001295582
FINAL SINGLE POINT ENERGY      -231.455018140544
Dispersion correction           -0.000260361
FINAL SINGLE POINT ENERGY      -115.730567961419

CARTESIAN COORDINATES (ANGSTROEM)
---------------------------------
  C      5.213601   -6.424230    1.445439
  O      5.630218   -5.208946    2.075847
  H      5.563530   -4.576802    1.354313
  H      5.329758   -7.331916    2.140380
  H      4.144093   -6.377885    1.182249
  H      5.866397   -6.714165    0.524728
  C      4.774426   -8.100343   -2.462904
  O      3.775210   -8.706812   -3.317403
  H      3.715647   -9.629430   -3.337274
  H      5.720722   -8.688947   -2.542135
  H      5.002248   -7.044043   -2.599598
  H      4.446611   -8.023833   -1.378385

 Multiplicity           Mult            ....    1
 Number of Electrons    NEL             ....   18
 Basis Dimension        Dim             ....  172

ORBITAL ENERGIES
----------------

  NO   OCC          E(Eh)            E(eV)
   0   2.0000     -19.224787      -523.1330
   1   2.0000     -10.326125      -280.9881
   2   2.0000      -1.127574       -30.6828
   3   2.0000      -0.802762       -21.8443
   4   2.0000      -0.611419       -16.6376
   5   2.0000      -0.543361       -14.7856
   6   2.0000      -0.518990       -14.1224
   7   2.0000      -0.419256       -11.4085
   8   2.0000      -0.373087       -10.1522
   9   0.0000       0.080273         2.1844
  10   0.0000       0.120367         3.2754
  11   0.0000       0.144602         3.9348
  12   0.0000       0.162203         4.4138
  13   0.0000       0.184467         5.0196

MULLIKEN ATOMIC CHARGES
-----------------------
   0 C :   -0.000213
   1 O :   -0.000016
   2 H :   -0.000002
   3 H :   -0.000122
   4 H :   -0.000049
   5 H :   -0.000524
   6 C :   -0.165517
   7 O :   -0.493275
   8 H :    0.316074
   9 H :    0.110291
  10 H :    0.129509
  11 H :    0.103843
Sum of atomic charges:   -0.0000000

LOEWDIN ATOMIC CHARGES
----------------------
   0 C :   -0.002902
   1 O :   -0.000019
   2 H :   -0.000004
   3 H :   -0.000064
   4 H :   -0.000666
   5 H :   -0.001611
   6 C :   -0.365565
   7 O :   -0.085816
   8 H :    0.141368
   9 H :    0.102487
  10 H :    0.108194
  11 H :    0.104598

  Mayer bond orders larger than 0.1
B(  6-C ,  7-O ) :   0.9873 B(  6-C ,  9-H ) :   0.9800 B(  6-C , 10-H ) :   0.9672
B(  6-C , 11-H ) :   0.9726 B(  7-O ,  8-H ) :   0.8987

Dispersion correction           -0.000296314
FINAL SINGLE POINT ENERGY      -115.723915003479

DIPOLE MOMENT
-------------
                                X             Y             Z
Electronic contribution:     -1.29048      -0.66271      -1.23991
Nuclear contribution   :      1.69075       0.32463       1.59008
                        -----------------------------------------
Total Dipole Moment    :      0.40028      -0.33808       0.35017
                        -----------------------------------------
Magnitude (a.u.)       :      0.63019
Magnitude (Debye)      :      1.60182

Rotational constants in cm-1:     4.516241     0.774103     0.752738
Rotational constants in MHz : 135393.502081 23207.017853 22566.521696

                             ****ORCA TERMINATED NORMALLY****
TOTAL RUN TIME: 0 days 0 hours 1 minutes 4 seconds 756 msec
