                         Program Version 4.1.2  - RELEASE  -
|  1> #Run DFT-D3 single point of the dimer
|  2> ! wB97X-D3 def2-TZVP TIGHTSCF CHELPG PMODEL PAL8
|  3>
|  4> %base "15-60_DFT_AB"
|  5>
|  6> %scf
|  7> MaxIter 1000
|  8> end
|  9>
| 10> * xyz 0 1
| 11>   C                      6.149197             0.279348             -9.433511
| 12>   O                      5.689921             -0.889510            -10.169131
| 13>   H                      5.935280             -1.668389            -9.656727
| 14>   H                      7.211657             0.500550             -9.393534
| 15>   H                      5.712407             1.245952             -9.815995
| 16>   H                      5.875382             0.154037             -8.369263
| 17>   C                      2.920110             -1.471818            -6.614122
| 18>   O                      2.932596             -2.695471            -7.354460
| 19>   H                      3.837631             -3.090126            -7.247096
| 20>   H                      3.830164             -0.877989            -6.716484
| 21>   H                      2.106233             -0.869091            -7.091877
| 22>   H                      2.704531             -1.636796            -5.489087
| 23> *
| 24>
| 25> #Run DFT-D3 single point of the molecule with dimer basis set
| 26> $new_job
| 27> %base "15-60_DFT_A"
| 28> ! wB97X-D3 def2-TZVP TIGHTSCF CHELPG PMODEL
| 29>
| 30> %scf
| 31> MaxIter 1000
| 32> end
| 33>
| 34> * xyz 0 1
| 35>   C                      6.149197             0.279348             -9.433511
| 36>   O                      5.689921             -0.889510            -10.169131
| 37>   H                      5.935280             -1.668389            -9.656727
| 38>   H                      7.211657             0.500550             -9.393534
| 39>   H                      5.712407             1.245952             -9.815995
| 40>   H                      5.875382             0.154037             -8.369263
| 41>   C                    : 2.920110             -1.471818            -6.614122
| 42>   O                    : 2.932596             -2.695471            -7.354460
| 43>   H                    : 3.837631             -3.090126            -7.247096
| 44>   H                    : 3.830164             -0.877989            -6.716484
| 45>   H                    : 2.106233             -0.869091            -7.091877
| 46>   H                    : 2.704531             -1.636796            -5.489087
| 47> *
| 48>
| 49> #Run DFT-D3 single point of the particle with dimer basis set
| 50> $new_job
| 51> %base "15-60_DFT_B"
| 52> ! wB97X-D3 def2-TZVP TIGHTSCF CHELPG PMODEL
| 53>
| 54> %scf
| 55> MaxIter 1000
| 56> end
| 57>
| 58> * xyz 0 1
| 59>   C                    : 6.149197             0.279348             -9.433511
| 60>   O                    : 5.689921             -0.889510            -10.169131
| 61>   H                    : 5.935280             -1.668389            -9.656727
| 62>   H                    : 7.211657             0.500550             -9.393534
| 63>   H                    : 5.712407             1.245952             -9.815995
| 64>   H                    : 5.875382             0.154037             -8.369263
| 65>   C                      2.920110             -1.471818            -6.614122
| 66>   O                      2.932596             -2.695471            -7.354460
| 67>   H                      3.837631             -3.090126            -7.247096
| 68>   H                      3.830164             -0.877989            -6.716484
| 69>   H                      2.106233             -0.869091            -7.091877
| 70>   H                      2.704531             -1.636796            -5.489087
| 71> *
| 72>
| 73>                          ****END OF INPUT****
 Total Charge           Charge          ....    0
 Multiplicity           Mult            ....    1
 Number of Electrons    NEL             ....   36
Dispersion correction           -0.001311387
FINAL SINGLE POINT ENERGY      -231.462837757024
Dispersion correction           -0.000278538
FINAL SINGLE POINT ENERGY      -115.730686326211

CARTESIAN COORDINATES (ANGSTROEM)
---------------------------------
  C      6.149197    0.279348   -9.433511
  O      5.689921   -0.889510  -10.169131
  H      5.935280   -1.668389   -9.656727
  H      7.211657    0.500550   -9.393534
  H      5.712407    1.245952   -9.815995
  H      5.875382    0.154037   -8.369263
  C      2.920110   -1.471818   -6.614122
  O      2.932596   -2.695471   -7.354460
  H      3.837631   -3.090126   -7.247096
  H      3.830164   -0.877989   -6.716484
  H      2.106233   -0.869091   -7.091877
  H      2.704531   -1.636796   -5.489087

 Multiplicity           Mult            ....    1
 Number of Electrons    NEL             ....   18
 Basis Dimension        Dim             ....  172

ORBITAL ENERGIES
----------------

  NO   OCC          E(Eh)            E(eV)
   0   2.0000     -19.235109      -523.4139
   1   2.0000     -10.322794      -280.8975
   2   2.0000      -1.126877       -30.6639
   3   2.0000      -0.786336       -21.3973
   4   2.0000      -0.605542       -16.4776
   5   2.0000      -0.534822       -14.5533
   6   2.0000      -0.515806       -14.0358
   7   2.0000      -0.435489       -11.8503
   8   2.0000      -0.374133       -10.1807
   9   0.0000       0.078685         2.1411
  10   0.0000       0.117247         3.1905
  11   0.0000       0.146288         3.9807
  12   0.0000       0.173124         4.7109
  13   0.0000       0.180311         4.9065

MULLIKEN ATOMIC CHARGES
-----------------------
   0 C :   -0.000375
   1 O :   -0.000015
   2 H :   -0.000989
   3 H :    0.000055
   4 H :   -0.000043
   5 H :    0.001147
   6 C :   -0.176246
   7 O :   -0.473155
   8 H :    0.315551
   9 H :    0.110306
  10 H :    0.121228
  11 H :    0.102535
Sum of atomic charges:   -0.0000000

LOEWDIN ATOMIC CHARGES
----------------------
   0 C :   -0.000483
   1 O :   -0.000121
   2 H :   -0.000657
   3 H :   -0.000001
   4 H :   -0.000009
   5 H :   -0.001286
   6 C :   -0.390744
   7 O :   -0.103218
   8 H :    0.185481
   9 H :    0.092857
  10 H :    0.114020
  11 H :    0.104161

  Mayer bond orders larger than 0.1
B(  6-C ,  7-O ) :   1.0003 B(  6-C ,  9-H ) :   0.9697 B(  6-C , 10-H ) :   0.9759
B(  6-C , 11-H ) :   0.9679 B(  7-O ,  8-H ) :   0.8962

Dispersion correction           -0.000268398
FINAL SINGLE POINT ENERGY      -115.732632613001

DIPOLE MOMENT
-------------
                                X             Y             Z
Electronic contribution:     -0.05993      -1.55488      -0.98716
Nuclear contribution   :      0.63088       1.80287       1.30957
                        -----------------------------------------
Total Dipole Moment    :      0.57095       0.24799       0.32241
                        -----------------------------------------
Magnitude (a.u.)       :      0.70102
Magnitude (Debye)      :      1.78186

Rotational constants in cm-1:     4.037214     0.808782     0.783770
Rotational constants in MHz : 121032.627608 24246.678642 23496.825483

                             ****ORCA TERMINATED NORMALLY****
TOTAL RUN TIME: 0 days 0 hours 0 minutes 53 seconds 171 msec
