                         Program Version 4.1.2  - RELEASE  -
|  1> #Run DFT-D3 single point of the dimer
|  2> ! wB97X-D3 def2-TZVP TIGHTSCF CHELPG PMODEL PAL8
|  3>
|  4> %base "17-85_DFT_AB"
|  5>
|  6> %scf
|  7> MaxIter 1000
|  8> end
|  9>
| 10> * xyz 0 1
| 11>   C                      -5.201214            2.513529             -9.631531
| 12>   O                      -4.515403            1.567229             -8.775223
| 13>   H                      -3.611690            1.885344             -8.810768
| 14>   H                      -5.769243            3.251244             -9.067049
| 15>   H                      -4.640554            2.954154             -10.383649
| 16>   H                      -6.017593            1.996925             -10.226665
| 17>   C                      -6.293331            5.922444             -6.337270
| 18>   O                      -5.239159            5.976326             -5.451876
| 19>   H                      -5.602778            6.388008             -4.641175
| 20>   H                      -5.932133            5.994813             -7.388418
| 21>   H                      -6.916755            4.990908             -6.234256
| 22>   H                      -6.929012            6.738098             -6.146326
| 23> *
| 24>
| 25> #Run DFT-D3 single point of the molecule with dimer basis set
| 26> $new_job
| 27> %base "17-85_DFT_A"
| 28> ! wB97X-D3 def2-TZVP TIGHTSCF CHELPG PMODEL
| 29>
| 30> %scf
| 31> MaxIter 1000
| 32> end
| 33>
| 34> * xyz 0 1
| 35>   C                      -5.201214            2.513529             -9.631531
| 36>   O                      -4.515403            1.567229             -8.775223
| 37>   H                      -3.611690            1.885344             -8.810768
| 38>   H                      -5.769243            3.251244             -9.067049
| 39>   H                      -4.640554            2.954154             -10.383649
| 40>   H                      -6.017593            1.996925             -10.226665
| 41>   C                    : -6.293331            5.922444             -6.337270
| 42>   O                    : -5.239159            5.976326             -5.451876
| 43>   H                    : -5.602778            6.388008             -4.641175
| 44>   H                    : -5.932133            5.994813             -7.388418
| 45>   H                    : -6.916755            4.990908             -6.234256
| 46>   H                    : -6.929012            6.738098             -6.146326
| 47> *
| 48>
| 49> #Run DFT-D3 single point of the particle with dimer basis set
| 50> $new_job
| 51> %base "17-85_DFT_B"
| 52> ! wB97X-D3 def2-TZVP TIGHTSCF CHELPG PMODEL
| 53>
| 54> %scf
| 55> MaxIter 1000
| 56> end
| 57>
| 58> * xyz 0 1
| 59>   C                    : -5.201214            2.513529             -9.631531
| 60>   O                    : -4.515403            1.567229             -8.775223
| 61>   H                    : -3.611690            1.885344             -8.810768
| 62>   H                    : -5.769243            3.251244             -9.067049
| 63>   H                    : -4.640554            2.954154             -10.383649
| 64>   H                    : -6.017593            1.996925             -10.226665
| 65>   C                      -6.293331            5.922444             -6.337270
| 66>   O                      -5.239159            5.976326             -5.451876
| 67>   H                      -5.602778            6.388008             -4.641175
| 68>   H                      -5.932133            5.994813             -7.388418
| 69>   H                      -6.916755            4.990908             -6.234256
| 70>   H                      -6.929012            6.738098             -6.146326
| 71> *
| 72>
| 73>                          ****END OF INPUT****
 Total Charge           Charge          ....    0
 Multiplicity           Mult            ....    1
 Number of Electrons    NEL             ....   36
Dispersion correction           -0.000899029
FINAL SINGLE POINT ENERGY      -231.461254581269
Dispersion correction           -0.000262466
FINAL SINGLE POINT ENERGY      -115.728760864362

CARTESIAN COORDINATES (ANGSTROEM)
---------------------------------
  C     -5.201214    2.513529   -9.631531
  O     -4.515403    1.567229   -8.775223
  H     -3.611690    1.885344   -8.810768
  H     -5.769243    3.251244   -9.067049
  H     -4.640554    2.954154  -10.383649
  H     -6.017593    1.996925  -10.226665
  C     -6.293331    5.922444   -6.337270
  O     -5.239159    5.976326   -5.451876
  H     -5.602778    6.388008   -4.641175
  H     -5.932133    5.994813   -7.388418
  H     -6.916755    4.990908   -6.234256
  H     -6.929012    6.738098   -6.146326

 Multiplicity           Mult            ....    1
 Number of Electrons    NEL             ....   18
 Basis Dimension        Dim             ....  172

ORBITAL ENERGIES
----------------

  NO   OCC          E(Eh)            E(eV)
   0   2.0000     -19.232245      -523.3360
   1   2.0000     -10.309818      -280.5444
   2   2.0000      -1.147110       -31.2144
   3   2.0000      -0.789240       -21.4763
   4   2.0000      -0.619561       -16.8591
   5   2.0000      -0.542084       -14.7508
   6   2.0000      -0.532319       -14.4851
   7   2.0000      -0.433287       -11.7903
   8   2.0000      -0.370336       -10.0774
   9   0.0000       0.089044         2.4230
  10   0.0000       0.111717         3.0400
  11   0.0000       0.150033         4.0826
  12   0.0000       0.170607         4.6425
  13   0.0000       0.190254         5.1771

MULLIKEN ATOMIC CHARGES
-----------------------
   0 C :    0.000125
   1 O :   -0.000017
   2 H :   -0.000006
   3 H :   -0.000254
   4 H :   -0.000016
   5 H :   -0.000000
   6 C :   -0.169722
   7 O :   -0.457996
   8 H :    0.318131
   9 H :    0.113776
  10 H :    0.090214
  11 H :    0.105765
Sum of atomic charges:   -0.0000000

LOEWDIN ATOMIC CHARGES
----------------------
   0 C :   -0.000186
   1 O :   -0.000003
   2 H :   -0.000001
   3 H :   -0.000494
   4 H :   -0.000005
   5 H :   -0.000001
   6 C :   -0.418824
   7 O :   -0.058481
   8 H :    0.186031
   9 H :    0.109586
  10 H :    0.097139
  11 H :    0.085238

  Mayer bond orders larger than 0.1
B(  6-C ,  7-O ) :   1.0109 B(  6-C ,  9-H ) :   0.9721 B(  6-C , 10-H ) :   0.9701
B(  6-C , 11-H ) :   0.9893 B(  7-O ,  8-H ) :   0.8961

Dispersion correction           -0.000223142
FINAL SINGLE POINT ENERGY      -115.732061349050

DIPOLE MOMENT
-------------
                                X             Y             Z
Electronic contribution:      1.52110       0.03844       1.07236
Nuclear contribution   :     -2.13744       0.24537      -0.88290
                        -----------------------------------------
Total Dipole Moment    :     -0.61633       0.28381       0.18946
                        -----------------------------------------
Magnitude (a.u.)       :      0.70449
Magnitude (Debye)      :      1.79068

Rotational constants in cm-1:     4.231406     0.869310     0.835906
Rotational constants in MHz : 126854.350037 26061.244588 25059.841440

                             ****ORCA TERMINATED NORMALLY****
TOTAL RUN TIME: 0 days 0 hours 1 minutes 10 seconds 196 msec
