                         Program Version 4.1.2  - RELEASE  -
|  1> #Run DFT-D3 single point of the dimer
|  2> ! wB97X-D3 def2-TZVP TIGHTSCF CHELPG PMODEL PAL8
|  3>
|  4> %base "21-51_DFT_AB"
|  5>
|  6> %scf
|  7> MaxIter 1000
|  8> end
|  9>
| 10> * xyz 0 1
| 11>   C                      10.424689            7.607292             11.237565
| 12>   O                      8.987239             7.684693             11.242529
| 13>   H                      8.522733             6.897502             11.639982
| 14>   H                      10.849357            6.670310             10.831125
| 15>   H                      10.787197            8.526686             10.749590
| 16>   H                      10.760765            7.762584             12.219175
| 17>   C                      10.022333            5.224796             7.153831
| 18>   O                      10.381507            4.402833             6.077700
| 19>   H                      9.891155             3.607651             6.095727
| 20>   H                      8.892453             5.196913             7.133589
| 21>   H                      10.432591            4.762427             8.135321
| 22>   H                      10.352492            6.233521             6.991705
| 23> *
| 24>
| 25> #Run DFT-D3 single point of the molecule with dimer basis set
| 26> $new_job
| 27> %base "21-51_DFT_A"
| 28> ! wB97X-D3 def2-TZVP TIGHTSCF CHELPG PMODEL
| 29>
| 30> %scf
| 31> MaxIter 1000
| 32> end
| 33>
| 34> * xyz 0 1
| 35>   C                      10.424689            7.607292             11.237565
| 36>   O                      8.987239             7.684693             11.242529
| 37>   H                      8.522733             6.897502             11.639982
| 38>   H                      10.849357            6.670310             10.831125
| 39>   H                      10.787197            8.526686             10.749590
| 40>   H                      10.760765            7.762584             12.219175
| 41>   C                    : 10.022333            5.224796             7.153831
| 42>   O                    : 10.381507            4.402833             6.077700
| 43>   H                    : 9.891155             3.607651             6.095727
| 44>   H                    : 8.892453             5.196913             7.133589
| 45>   H                    : 10.432591            4.762427             8.135321
| 46>   H                    : 10.352492            6.233521             6.991705
| 47> *
| 48>
| 49> #Run DFT-D3 single point of the particle with dimer basis set
| 50> $new_job
| 51> %base "21-51_DFT_B"
| 52> ! wB97X-D3 def2-TZVP TIGHTSCF CHELPG PMODEL
| 53>
| 54> %scf
| 55> MaxIter 1000
| 56> end
| 57>
| 58> * xyz 0 1
| 59>   C                    : 10.424689            7.607292             11.237565
| 60>   O                    : 8.987239             7.684693             11.242529
| 61>   H                    : 8.522733             6.897502             11.639982
| 62>   H                    : 10.849357            6.670310             10.831125
| 63>   H                    : 10.787197            8.526686             10.749590
| 64>   H                    : 10.760765            7.762584             12.219175
| 65>   C                      10.022333            5.224796             7.153831
| 66>   O                      10.381507            4.402833             6.077700
| 67>   H                      9.891155             3.607651             6.095727
| 68>   H                      8.892453             5.196913             7.133589
| 69>   H                      10.432591            4.762427             8.135321
| 70>   H                      10.352492            6.233521             6.991705
| 71> *
| 72>
| 73>                          ****END OF INPUT****
 Total Charge           Charge          ....    0
 Multiplicity           Mult            ....    1
 Number of Electrons    NEL             ....   36
Dispersion correction           -0.000919387
FINAL SINGLE POINT ENERGY      -231.459813142396
Dispersion correction           -0.000269676
FINAL SINGLE POINT ENERGY      -115.729656366777

CARTESIAN COORDINATES (ANGSTROEM)
---------------------------------
  C     10.424689    7.607292   11.237565
  O      8.987239    7.684693   11.242529
  H      8.522733    6.897502   11.639982
  H     10.849357    6.670310   10.831125
  H     10.787197    8.526686   10.749590
  H     10.760765    7.762584   12.219175
  C     10.022333    5.224796    7.153831
  O     10.381507    4.402833    6.077700
  H      9.891155    3.607651    6.095727
  H      8.892453    5.196913    7.133589
  H     10.432591    4.762427    8.135321
  H     10.352492    6.233521    6.991705

 Multiplicity           Mult            ....    1
 Number of Electrons    NEL             ....   18
 Basis Dimension        Dim             ....  172

ORBITAL ENERGIES
----------------

  NO   OCC          E(Eh)            E(eV)
   0   2.0000     -19.222732      -523.0771
   1   2.0000     -10.322283      -280.8836
   2   2.0000      -1.143148       -31.1066
   3   2.0000      -0.791800       -21.5460
   4   2.0000      -0.608362       -16.5544
   5   2.0000      -0.541918       -14.7463
   6   2.0000      -0.537313       -14.6210
   7   2.0000      -0.425834       -11.5875
   8   2.0000      -0.368152       -10.0179
   9   0.0000       0.082871         2.2550
  10   0.0000       0.114492         3.1155
  11   0.0000       0.151402         4.1199
  12   0.0000       0.160187         4.3589
  13   0.0000       0.181955         4.9513

MULLIKEN ATOMIC CHARGES
-----------------------
   0 C :    0.000532
   1 O :   -0.000015
   2 H :   -0.000019
   3 H :   -0.000965
   4 H :   -0.000042
   5 H :   -0.000025
   6 C :   -0.154695
   7 O :   -0.474414
   8 H :    0.312676
   9 H :    0.097869
  10 H :    0.093697
  11 H :    0.125402
Sum of atomic charges:    0.0000000

LOEWDIN ATOMIC CHARGES
----------------------
   0 C :   -0.000210
   1 O :   -0.000006
   2 H :   -0.000009
   3 H :   -0.000615
   4 H :   -0.000008
   5 H :   -0.000002
   6 C :   -0.393161
   7 O :   -0.064850
   8 H :    0.151113
   9 H :    0.101864
  10 H :    0.103805
  11 H :    0.102079

  Mayer bond orders larger than 0.1
B(  6-C ,  7-O ) :   0.9918 B(  6-C ,  9-H ) :   0.9895 B(  6-C , 10-H ) :   0.9711
B(  6-C , 11-H ) :   0.9687 B(  7-O ,  8-H ) :   0.9025

Dispersion correction           -0.000225370
FINAL SINGLE POINT ENERGY      -115.729640922537

DIPOLE MOMENT
-------------
                                X             Y             Z
Electronic contribution:      0.63367      -0.80945      -1.39821
Nuclear contribution   :     -1.09710       0.63356       1.79618
                        -----------------------------------------
Total Dipole Moment    :     -0.46343      -0.17590       0.39797
                        -----------------------------------------
Magnitude (a.u.)       :      0.63568
Magnitude (Debye)      :      1.61577

Rotational constants in cm-1:     4.067857     0.845816     0.824529
Rotational constants in MHz : 121951.279856 25356.937941 24718.760878

                             ****ORCA TERMINATED NORMALLY****
TOTAL RUN TIME: 0 days 0 hours 1 minutes 4 seconds 620 msec
