                         Program Version 4.1.2  - RELEASE  -
|  1> #Run DFT-D3 single point of the dimer
|  2> ! wB97X-D3 def2-TZVP TIGHTSCF CHELPG PMODEL PAL8
|  3>
|  4> %base "2-34_DFT_AB"
|  5>
|  6> %scf
|  7> MaxIter 1000
|  8> end
|  9>
| 10> * xyz 0 1
| 11>   C                      5.916145             7.599752             -3.115480
| 12>   O                      6.303187             6.405109             -3.797141
| 13>   H                      6.313995             5.742929             -3.113214
| 14>   H                      6.562852             7.866482             -2.246742
| 15>   H                      5.963492             8.428625             -3.817606
| 16>   H                      4.933177             7.588969             -2.693862
| 17>   C                      6.959025             3.072497             -5.623268
| 18>   O                      6.539621             3.451904             -6.927977
| 19>   H                      7.290291             3.178967             -7.494902
| 20>   H                      7.249866             2.084123             -5.559084
| 21>   H                      7.783819             3.744292             -5.232767
| 22>   H                      6.170345             3.259439             -4.923721
| 23> *
| 24>
| 25> #Run DFT-D3 single point of the molecule with dimer basis set
| 26> $new_job
| 27> %base "2-34_DFT_A"
| 28> ! wB97X-D3 def2-TZVP TIGHTSCF CHELPG PMODEL
| 29>
| 30> %scf
| 31> MaxIter 1000
| 32> end
| 33>
| 34> * xyz 0 1
| 35>   C                      5.916145             7.599752             -3.115480
| 36>   O                      6.303187             6.405109             -3.797141
| 37>   H                      6.313995             5.742929             -3.113214
| 38>   H                      6.562852             7.866482             -2.246742
| 39>   H                      5.963492             8.428625             -3.817606
| 40>   H                      4.933177             7.588969             -2.693862
| 41>   C                    : 6.959025             3.072497             -5.623268
| 42>   O                    : 6.539621             3.451904             -6.927977
| 43>   H                    : 7.290291             3.178967             -7.494902
| 44>   H                    : 7.249866             2.084123             -5.559084
| 45>   H                    : 7.783819             3.744292             -5.232767
| 46>   H                    : 6.170345             3.259439             -4.923721
| 47> *
| 48>
| 49> #Run DFT-D3 single point of the particle with dimer basis set
| 50> $new_job
| 51> %base "2-34_DFT_B"
| 52> ! wB97X-D3 def2-TZVP TIGHTSCF CHELPG PMODEL
| 53>
| 54> %scf
| 55> MaxIter 1000
| 56> end
| 57>
| 58> * xyz 0 1
| 59>   C                    : 5.916145             7.599752             -3.115480
| 60>   O                    : 6.303187             6.405109             -3.797141
| 61>   H                    : 6.313995             5.742929             -3.113214
| 62>   H                    : 6.562852             7.866482             -2.246742
| 63>   H                    : 5.963492             8.428625             -3.817606
| 64>   H                    : 4.933177             7.588969             -2.693862
| 65>   C                      6.959025             3.072497             -5.623268
| 66>   O                      6.539621             3.451904             -6.927977
| 67>   H                      7.290291             3.178967             -7.494902
| 68>   H                      7.249866             2.084123             -5.559084
| 69>   H                      7.783819             3.744292             -5.232767
| 70>   H                      6.170345             3.259439             -4.923721
| 71> *
| 72>
| 73>                          ****END OF INPUT****
 Total Charge           Charge          ....    0
 Multiplicity           Mult            ....    1
 Number of Electrons    NEL             ....   36
Dispersion correction           -0.001144864
FINAL SINGLE POINT ENERGY      -231.467003277378
Dispersion correction           -0.000247121
FINAL SINGLE POINT ENERGY      -115.735228228612

CARTESIAN COORDINATES (ANGSTROEM)
---------------------------------
  C      5.916145    7.599752   -3.115480
  O      6.303187    6.405109   -3.797141
  H      6.313995    5.742929   -3.113214
  H      6.562852    7.866482   -2.246742
  H      5.963492    8.428625   -3.817606
  H      4.933177    7.588969   -2.693862
  C      6.959025    3.072497   -5.623268
  O      6.539621    3.451904   -6.927977
  H      7.290291    3.178967   -7.494902
  H      7.249866    2.084123   -5.559084
  H      7.783819    3.744292   -5.232767
  H      6.170345    3.259439   -4.923721

 Multiplicity           Mult            ....    1
 Number of Electrons    NEL             ....   18
 Basis Dimension        Dim             ....  172

ORBITAL ENERGIES
----------------

  NO   OCC          E(Eh)            E(eV)
   0   2.0000     -19.233821      -523.3789
   1   2.0000     -10.307358      -280.4775
   2   2.0000      -1.133129       -30.8340
   3   2.0000      -0.797386       -21.6980
   4   2.0000      -0.608717       -16.5640
   5   2.0000      -0.544022       -14.8036
   6   2.0000      -0.524684       -14.2774
   7   2.0000      -0.440183       -11.9780
   8   2.0000      -0.374274       -10.1845
   9   0.0000       0.087383         2.3778
  10   0.0000       0.114655         3.1199
  11   0.0000       0.143390         3.9018
  12   0.0000       0.185194         5.0394
  13   0.0000       0.194142         5.2829

MULLIKEN ATOMIC CHARGES
-----------------------
   0 C :    0.000134
   1 O :    0.000152
   2 H :   -0.000571
   3 H :   -0.000010
   4 H :    0.000002
   5 H :   -0.000008
   6 C :   -0.178379
   7 O :   -0.466172
   8 H :    0.314248
   9 H :    0.115264
  10 H :    0.094365
  11 H :    0.120974
Sum of atomic charges:   -0.0000000

LOEWDIN ATOMIC CHARGES
----------------------
   0 C :   -0.000019
   1 O :   -0.000398
   2 H :   -0.000791
   3 H :   -0.000001
   4 H :   -0.000000
   5 H :   -0.000001
   6 C :   -0.380650
   7 O :   -0.087533
   8 H :    0.181811
   9 H :    0.081111
  10 H :    0.102017
  11 H :    0.104454

  Mayer bond orders larger than 0.1
B(  6-C ,  7-O ) :   1.0056 B(  6-C ,  9-H ) :   0.9730 B(  6-C , 10-H ) :   0.9772
B(  6-C , 11-H ) :   0.9752 B(  7-O ,  8-H ) :   0.9004

Dispersion correction           -0.000232847
FINAL SINGLE POINT ENERGY      -115.732021720706

DIPOLE MOMENT
-------------
                                X             Y             Z
Electronic contribution:     -0.71767       0.39071      -1.67405
Nuclear contribution   :      1.32228      -0.72710       1.84705
                        -----------------------------------------
Total Dipole Moment    :      0.60460      -0.33639       0.17300
                        -----------------------------------------
Magnitude (a.u.)       :      0.71319
Magnitude (Debye)      :      1.81277

Rotational constants in cm-1:     4.345006     0.826463     0.798859
Rotational constants in MHz : 130260.002241 24776.730347 23949.180779

                             ****ORCA TERMINATED NORMALLY****
TOTAL RUN TIME: 0 days 0 hours 5 minutes 20 seconds 529 msec
