                         Program Version 4.1.2  - RELEASE  -
|  1> #Run DFT-D3 single point of the dimer
|  2> ! wB97X-D3 def2-TZVP TIGHTSCF CHELPG PMODEL PAL8
|  3>
|  4> %base "19-163_DFT_AB"
|  5>
|  6> %scf
|  7> MaxIter 1000
|  8> end
|  9>
| 10> * xyz 0 1
| 11>   C                      -5.894835            -4.536025            1.406599
| 12>   O                      -5.274735            -3.349634            1.808370
| 13>   H                      -5.727982            -3.102801            2.615311
| 14>   H                      -5.648396            -4.665075            0.317086
| 15>   H                      -5.501447            -5.436554            1.904823
| 16>   H                      -6.964361            -4.431291            1.368194
| 17>   C                      -5.117859            -3.276078            5.133270
| 18>   O                      -6.298040            -2.714950            4.519326
| 19>   H                      -6.725949            -2.365606            5.340582
| 20>   H                      -4.632843            -2.580923            5.858612
| 21>   H                      -5.226647            -4.263213            5.640708
| 22>   H                      -4.283180            -3.493743            4.528595
| 23> *
| 24>
| 25> #Run DFT-D3 single point of the molecule with dimer basis set
| 26> $new_job
| 27> %base "19-163_DFT_A"
| 28> ! wB97X-D3 def2-TZVP TIGHTSCF CHELPG PMODEL
| 29>
| 30> %scf
| 31> MaxIter 1000
| 32> end
| 33>
| 34> * xyz 0 1
| 35>   C                      -5.894835            -4.536025            1.406599
| 36>   O                      -5.274735            -3.349634            1.808370
| 37>   H                      -5.727982            -3.102801            2.615311
| 38>   H                      -5.648396            -4.665075            0.317086
| 39>   H                      -5.501447            -5.436554            1.904823
| 40>   H                      -6.964361            -4.431291            1.368194
| 41>   C                    : -5.117859            -3.276078            5.133270
| 42>   O                    : -6.298040            -2.714950            4.519326
| 43>   H                    : -6.725949            -2.365606            5.340582
| 44>   H                    : -4.632843            -2.580923            5.858612
| 45>   H                    : -5.226647            -4.263213            5.640708
| 46>   H                    : -4.283180            -3.493743            4.528595
| 47> *
| 48>
| 49> #Run DFT-D3 single point of the particle with dimer basis set
| 50> $new_job
| 51> %base "19-163_DFT_B"
| 52> ! wB97X-D3 def2-TZVP TIGHTSCF CHELPG PMODEL
| 53>
| 54> %scf
| 55> MaxIter 1000
| 56> end
| 57>
| 58> * xyz 0 1
| 59>   C                    : -5.894835            -4.536025            1.406599
| 60>   O                    : -5.274735            -3.349634            1.808370
| 61>   H                    : -5.727982            -3.102801            2.615311
| 62>   H                    : -5.648396            -4.665075            0.317086
| 63>   H                    : -5.501447            -5.436554            1.904823
| 64>   H                    : -6.964361            -4.431291            1.368194
| 65>   C                      -5.117859            -3.276078            5.133270
| 66>   O                      -6.298040            -2.714950            4.519326
| 67>   H                      -6.725949            -2.365606            5.340582
| 68>   H                      -4.632843            -2.580923            5.858612
| 69>   H                      -5.226647            -4.263213            5.640708
| 70>   H                      -4.283180            -3.493743            4.528595
| 71> *
| 72>
| 73>                          ****END OF INPUT****
 Total Charge           Charge          ....    0
 Multiplicity           Mult            ....    1
 Number of Electrons    NEL             ....   36
Dispersion correction           -0.001889744
FINAL SINGLE POINT ENERGY      -231.465032348721
Dispersion correction           -0.000233331
FINAL SINGLE POINT ENERGY      -115.733739275057

CARTESIAN COORDINATES (ANGSTROEM)
---------------------------------
  C     -5.894835   -4.536025    1.406599
  O     -5.274735   -3.349634    1.808370
  H     -5.727982   -3.102801    2.615311
  H     -5.648396   -4.665075    0.317086
  H     -5.501447   -5.436554    1.904823
  H     -6.964361   -4.431291    1.368194
  C     -5.117859   -3.276078    5.133270
  O     -6.298040   -2.714950    4.519326
  H     -6.725949   -2.365606    5.340582
  H     -4.632843   -2.580923    5.858612
  H     -5.226647   -4.263213    5.640708
  H     -4.283180   -3.493743    4.528595

 Multiplicity           Mult            ....    1
 Number of Electrons    NEL             ....   18
 Basis Dimension        Dim             ....  172

ORBITAL ENERGIES
----------------

  NO   OCC          E(Eh)            E(eV)
   0   2.0000     -19.244356      -523.6655
   1   2.0000     -10.316437      -280.7245
   2   2.0000      -1.132022       -30.8039
   3   2.0000      -0.798503       -21.7284
   4   2.0000      -0.600598       -16.3431
   5   2.0000      -0.535591       -14.5742
   6   2.0000      -0.531105       -14.4521
   7   2.0000      -0.439019       -11.9463
   8   2.0000      -0.380254       -10.3472
   9   0.0000       0.095249         2.5919
  10   0.0000       0.121527         3.3069
  11   0.0000       0.142545         3.8789
  12   0.0000       0.186570         5.0768
  13   0.0000       0.199252         5.4219

MULLIKEN ATOMIC CHARGES
-----------------------
   0 C :    0.001104
   1 O :    0.001387
   2 H :   -0.008743
   3 H :   -0.000071
   4 H :   -0.000133
   5 H :   -0.000989
   6 C :   -0.215777
   7 O :   -0.444539
   8 H :    0.318576
   9 H :    0.112314
  10 H :    0.107106
  11 H :    0.129766
Sum of atomic charges:   -0.0000000

LOEWDIN ATOMIC CHARGES
----------------------
   0 C :   -0.002309
   1 O :   -0.003007
   2 H :   -0.026869
   3 H :   -0.000025
   4 H :   -0.000112
   5 H :   -0.000326
   6 C :   -0.386678
   7 O :   -0.077534
   8 H :    0.193248
   9 H :    0.102689
  10 H :    0.100966
  11 H :    0.099956

  Mayer bond orders larger than 0.1
B(  6-C ,  7-O ) :   1.0018 B(  6-C ,  9-H ) :   0.9770 B(  6-C , 10-H ) :   0.9676
B(  6-C , 11-H ) :   0.9768 B(  7-O ,  8-H ) :   0.8963

Dispersion correction           -0.000266727
FINAL SINGLE POINT ENERGY      -115.724532402449

DIPOLE MOMENT
-------------
                                X             Y             Z
Electronic contribution:     -1.64322       0.71822      -1.11792
Nuclear contribution   :      1.87710      -0.71873       1.83060
                        -----------------------------------------
Total Dipole Moment    :      0.23388      -0.00052       0.71268
                        -----------------------------------------
Magnitude (a.u.)       :      0.75008
Magnitude (Debye)      :      1.90655

Rotational constants in cm-1:     4.430343     0.788593     0.765834
Rotational constants in MHz : 132818.328970 23641.414482 22959.131164

                             ****ORCA TERMINATED NORMALLY****
TOTAL RUN TIME: 0 days 0 hours 0 minutes 53 seconds 14 msec
