                         Program Version 4.1.2  - RELEASE  -
|  1> #Run DFT-D3 single point of the dimer
|  2> ! wB97X-D3 def2-TZVP TIGHTSCF CHELPG PMODEL PAL8
|  3>
|  4> %base "17-203_DFT_AB"
|  5>
|  6> %scf
|  7> MaxIter 1000
|  8> end
|  9>
| 10> * xyz 0 1
| 11>   C                      -0.066139            -6.006657            6.636389
| 12>   O                      -0.752408            -5.862081            7.824022
| 13>   H                      -0.803631            -4.933314            7.990587
| 14>   H                      -0.008752            -5.147557            6.027307
| 15>   H                      0.898532             -6.436435            6.915708
| 16>   H                      -0.564332            -6.732301            5.985013
| 17>   C                      0.539936             -8.319207            10.050165
| 18>   O                      -0.709120            -7.893374            9.487627
| 19>   H                      -0.594225            -7.503628            8.625924
| 20>   H                      0.839312             -9.222515            9.537556
| 21>   H                      1.417461             -7.656808            9.884785
| 22>   H                      0.427320             -8.634937            11.067587
| 23> *
| 24>
| 25> #Run DFT-D3 single point of the molecule with dimer basis set
| 26> $new_job
| 27> %base "17-203_DFT_A"
| 28> ! wB97X-D3 def2-TZVP TIGHTSCF CHELPG PMODEL
| 29>
| 30> %scf
| 31> MaxIter 1000
| 32> end
| 33>
| 34> * xyz 0 1
| 35>   C                      -0.066139            -6.006657            6.636389
| 36>   O                      -0.752408            -5.862081            7.824022
| 37>   H                      -0.803631            -4.933314            7.990587
| 38>   H                      -0.008752            -5.147557            6.027307
| 39>   H                      0.898532             -6.436435            6.915708
| 40>   H                      -0.564332            -6.732301            5.985013
| 41>   C                    : 0.539936             -8.319207            10.050165
| 42>   O                    : -0.709120            -7.893374            9.487627
| 43>   H                    : -0.594225            -7.503628            8.625924
| 44>   H                    : 0.839312             -9.222515            9.537556
| 45>   H                    : 1.417461             -7.656808            9.884785
| 46>   H                    : 0.427320             -8.634937            11.067587
| 47> *
| 48>
| 49> #Run DFT-D3 single point of the particle with dimer basis set
| 50> $new_job
| 51> %base "17-203_DFT_B"
| 52> ! wB97X-D3 def2-TZVP TIGHTSCF CHELPG PMODEL
| 53>
| 54> %scf
| 55> MaxIter 1000
| 56> end
| 57>
| 58> * xyz 0 1
| 59>   C                    : -0.066139            -6.006657            6.636389
| 60>   O                    : -0.752408            -5.862081            7.824022
| 61>   H                    : -0.803631            -4.933314            7.990587
| 62>   H                    : -0.008752            -5.147557            6.027307
| 63>   H                    : 0.898532             -6.436435            6.915708
| 64>   H                    : -0.564332            -6.732301            5.985013
| 65>   C                      0.539936             -8.319207            10.050165
| 66>   O                      -0.709120            -7.893374            9.487627
| 67>   H                      -0.594225            -7.503628            8.625924
| 68>   H                      0.839312             -9.222515            9.537556
| 69>   H                      1.417461             -7.656808            9.884785
| 70>   H                      0.427320             -8.634937            11.067587
| 71> *
| 72>
| 73>                          ****END OF INPUT****
 Total Charge           Charge          ....    0
 Multiplicity           Mult            ....    1
 Number of Electrons    NEL             ....   36
Dispersion correction           -0.001858259
FINAL SINGLE POINT ENERGY      -231.463803457079
Dispersion correction           -0.000221586
FINAL SINGLE POINT ENERGY      -115.731268820923

CARTESIAN COORDINATES (ANGSTROEM)
---------------------------------
  C     -0.066139   -6.006657    6.636389
  O     -0.752408   -5.862081    7.824022
  H     -0.803631   -4.933314    7.990587
  H     -0.008752   -5.147557    6.027307
  H      0.898532   -6.436435    6.915708
  H     -0.564332   -6.732301    5.985013
  C      0.539936   -8.319207   10.050165
  O     -0.709120   -7.893374    9.487627
  H     -0.594225   -7.503628    8.625924
  H      0.839312   -9.222515    9.537556
  H      1.417461   -7.656808    9.884785
  H      0.427320   -8.634937   11.067587

 Multiplicity           Mult            ....    1
 Number of Electrons    NEL             ....   18
 Basis Dimension        Dim             ....  172

ORBITAL ENERGIES
----------------

  NO   OCC          E(Eh)            E(eV)
   0   2.0000     -19.230432      -523.2867
   1   2.0000     -10.313603      -280.6474
   2   2.0000      -1.129870       -30.7453
   3   2.0000      -0.802166       -21.8280
   4   2.0000      -0.612514       -16.6674
   5   2.0000      -0.533733       -14.5236
   6   2.0000      -0.528567       -14.3831
   7   2.0000      -0.438111       -11.9216
   8   2.0000      -0.370895       -10.0926
   9   0.0000       0.070075         1.9068
  10   0.0000       0.137007         3.7281
  11   0.0000       0.153382         4.1737
  12   0.0000       0.163619         4.4523
  13   0.0000       0.186402         5.0723

MULLIKEN ATOMIC CHARGES
-----------------------
   0 C :   -0.003861
   1 O :   -0.007838
   2 H :   -0.001216
   3 H :   -0.000301
   4 H :    0.000061
   5 H :    0.000108
   6 C :   -0.166491
   7 O :   -0.472493
   8 H :    0.315095
   9 H :    0.103918
  10 H :    0.105509
  11 H :    0.127508
Sum of atomic charges:    0.0000000

LOEWDIN ATOMIC CHARGES
----------------------
   0 C :   -0.009201
   1 O :   -0.029394
   2 H :   -0.001784
   3 H :   -0.000199
   4 H :   -0.001205
   5 H :   -0.000528
   6 C :   -0.367407
   7 O :   -0.065288
   8 H :    0.175359
   9 H :    0.094148
  10 H :    0.100200
  11 H :    0.105300

  Mayer bond orders larger than 0.1
B(  6-C ,  7-O ) :   0.9890 B(  6-C ,  9-H ) :   0.9855 B(  6-C , 10-H ) :   0.9658
B(  6-C , 11-H ) :   0.9732 B(  7-O ,  8-H ) :   0.9042

Dispersion correction           -0.000260969
FINAL SINGLE POINT ENERGY      -115.732406109790

DIPOLE MOMENT
-------------
                                X             Y             Z
Electronic contribution:     -1.67489       0.61760      -0.47330
Nuclear contribution   :      2.27393      -0.58252       0.16074
                        -----------------------------------------
Total Dipole Moment    :      0.59904       0.03508      -0.31257
                        -----------------------------------------
Magnitude (a.u.)       :      0.67659
Magnitude (Debye)      :      1.71975

Rotational constants in cm-1:     4.459863     0.808710     0.772435
Rotational constants in MHz : 133703.325764 24244.518474 23157.028735

                             ****ORCA TERMINATED NORMALLY****
TOTAL RUN TIME: 0 days 0 hours 1 minutes 9 seconds 415 msec
