                         Program Version 4.1.2  - RELEASE  -
|  1> #Run DFT-D3 single point of the dimer
|  2> ! wB97X-D3 def2-TZVP TIGHTSCF CHELPG PMODEL PAL8
|  3>
|  4> %base "20-15_DFT_AB"
|  5>
|  6> %scf
|  7> MaxIter 1000
|  8> end
|  9>
| 10> * xyz 0 1
| 11>   C                      -3.541612            8.218738             -6.097579
| 12>   O                      -2.500026            7.841059             -5.165467
| 13>   H                      -2.808424            8.091062             -4.276652
| 14>   H                      -4.504519            8.175344             -5.636522
| 15>   H                      -3.270904            9.255707             -6.480989
| 16>   H                      -3.586497            7.616042             -6.948879
| 17>   C                      -4.752948            5.591868             -4.181413
| 18>   O                      -5.139830            4.777113             -3.073725
| 19>   H                      -5.629639            5.350930             -2.456730
| 20>   H                      -5.593928            6.236357             -4.410818
| 21>   H                      -3.803955            6.184682             -4.018049
| 22>   H                      -4.579629            4.990443             -5.082851
| 23> *
| 24>
| 25> #Run DFT-D3 single point of the molecule with dimer basis set
| 26> $new_job
| 27> %base "20-15_DFT_A"
| 28> ! wB97X-D3 def2-TZVP TIGHTSCF CHELPG PMODEL
| 29>
| 30> %scf
| 31> MaxIter 1000
| 32> end
| 33>
| 34> * xyz 0 1
| 35>   C                      -3.541612            8.218738             -6.097579
| 36>   O                      -2.500026            7.841059             -5.165467
| 37>   H                      -2.808424            8.091062             -4.276652
| 38>   H                      -4.504519            8.175344             -5.636522
| 39>   H                      -3.270904            9.255707             -6.480989
| 40>   H                      -3.586497            7.616042             -6.948879
| 41>   C                    : -4.752948            5.591868             -4.181413
| 42>   O                    : -5.139830            4.777113             -3.073725
| 43>   H                    : -5.629639            5.350930             -2.456730
| 44>   H                    : -5.593928            6.236357             -4.410818
| 45>   H                    : -3.803955            6.184682             -4.018049
| 46>   H                    : -4.579629            4.990443             -5.082851
| 47> *
| 48>
| 49> #Run DFT-D3 single point of the particle with dimer basis set
| 50> $new_job
| 51> %base "20-15_DFT_B"
| 52> ! wB97X-D3 def2-TZVP TIGHTSCF CHELPG PMODEL
| 53>
| 54> %scf
| 55> MaxIter 1000
| 56> end
| 57>
| 58> * xyz 0 1
| 59>   C                    : -3.541612            8.218738             -6.097579
| 60>   O                    : -2.500026            7.841059             -5.165467
| 61>   H                    : -2.808424            8.091062             -4.276652
| 62>   H                    : -4.504519            8.175344             -5.636522
| 63>   H                    : -3.270904            9.255707             -6.480989
| 64>   H                    : -3.586497            7.616042             -6.948879
| 65>   C                      -4.752948            5.591868             -4.181413
| 66>   O                      -5.139830            4.777113             -3.073725
| 67>   H                      -5.629639            5.350930             -2.456730
| 68>   H                      -5.593928            6.236357             -4.410818
| 69>   H                      -3.803955            6.184682             -4.018049
| 70>   H                      -4.579629            4.990443             -5.082851
| 71> *
| 72>
| 73>                          ****END OF INPUT****
 Total Charge           Charge          ....    0
 Multiplicity           Mult            ....    1
 Number of Electrons    NEL             ....   36
Dispersion correction           -0.002035494
FINAL SINGLE POINT ENERGY      -231.465096372552
Dispersion correction           -0.000249729
FINAL SINGLE POINT ENERGY      -115.731301415732

CARTESIAN COORDINATES (ANGSTROEM)
---------------------------------
  C     -3.541612    8.218738   -6.097579
  O     -2.500026    7.841059   -5.165467
  H     -2.808424    8.091062   -4.276652
  H     -4.504519    8.175344   -5.636522
  H     -3.270904    9.255707   -6.480989
  H     -3.586497    7.616042   -6.948879
  C     -4.752948    5.591868   -4.181413
  O     -5.139830    4.777113   -3.073725
  H     -5.629639    5.350930   -2.456730
  H     -5.593928    6.236357   -4.410818
  H     -3.803955    6.184682   -4.018049
  H     -4.579629    4.990443   -5.082851

 Multiplicity           Mult            ....    1
 Number of Electrons    NEL             ....   18
 Basis Dimension        Dim             ....  172

ORBITAL ENERGIES
----------------

  NO   OCC          E(Eh)            E(eV)
   0   2.0000     -19.232114      -523.3324
   1   2.0000     -10.317544      -280.7546
   2   2.0000      -1.130203       -30.7544
   3   2.0000      -0.792052       -21.5528
   4   2.0000      -0.604685       -16.4543
   5   2.0000      -0.540602       -14.7105
   6   2.0000      -0.526867       -14.3368
   7   2.0000      -0.431017       -11.7286
   8   2.0000      -0.374671       -10.1953
   9   0.0000       0.084584         2.3017
  10   0.0000       0.113320         3.0836
  11   0.0000       0.157213         4.2780
  12   0.0000       0.161180         4.3859
  13   0.0000       0.187126         5.0919

MULLIKEN ATOMIC CHARGES
-----------------------
   0 C :    0.001390
   1 O :    0.000091
   2 H :   -0.001216
   3 H :   -0.003436
   4 H :   -0.000091
   5 H :   -0.000335
   6 C :   -0.173864
   7 O :   -0.478123
   8 H :    0.317040
   9 H :    0.109788
  10 H :    0.104108
  11 H :    0.124649
Sum of atomic charges:    0.0000000

LOEWDIN ATOMIC CHARGES
----------------------
   0 C :   -0.008337
   1 O :   -0.007457
   2 H :   -0.007158
   3 H :   -0.004183
   4 H :   -0.000069
   5 H :   -0.000235
   6 C :   -0.376151
   7 O :   -0.092832
   8 H :    0.177222
   9 H :    0.097669
  10 H :    0.112329
  11 H :    0.109202

  Mayer bond orders larger than 0.1
B(  6-C ,  7-O ) :   0.9990 B(  6-C ,  9-H ) :   0.9864 B(  6-C , 10-H ) :   0.9680
B(  6-C , 11-H ) :   0.9677 B(  7-O ,  8-H ) :   0.8981

Dispersion correction           -0.000252698
FINAL SINGLE POINT ENERGY      -115.734131453175

DIPOLE MOMENT
-------------
                                X             Y             Z
Electronic contribution:     -0.41338      -1.17504       1.37545
Nuclear contribution   :      0.23408       1.84435      -1.44671
                        -----------------------------------------
Total Dipole Moment    :     -0.17930       0.66931      -0.07126
                        -----------------------------------------
Magnitude (a.u.)       :      0.69657
Magnitude (Debye)      :      1.77054

Rotational constants in cm-1:     4.226220     0.811444     0.788044
Rotational constants in MHz : 126698.888318 24326.474031 23624.975227

                             ****ORCA TERMINATED NORMALLY****
TOTAL RUN TIME: 0 days 0 hours 1 minutes 6 seconds 825 msec
