                         Program Version 4.1.2  - RELEASE  -
|  1> #Run DFT-D3 single point of the dimer
|  2> ! wB97X-D3 def2-TZVP TIGHTSCF CHELPG PMODEL PAL8
|  3>
|  4> %base "14-94_DFT_AB"
|  5>
|  6> %scf
|  7> MaxIter 1000
|  8> end
|  9>
| 10> * xyz 0 1
| 11>   C                      -8.023118            5.970073             -7.301579
| 12>   O                      -7.208899            5.748031             -6.199433
| 13>   H                      -7.582233            5.100643             -5.540227
| 14>   H                      -8.491772            6.984259             -7.204203
| 15>   H                      -7.494694            5.832346             -8.256467
| 16>   H                      -8.841849            5.215604             -7.301558
| 17>   C                      -9.205169            6.910443             -3.179025
| 18>   O                      -8.021357            7.648472             -2.983924
| 19>   H                      -8.204361            8.311799             -2.278597
| 20>   H                      -9.929243            7.448107             -3.819191
| 21>   H                      -9.029607            5.992954             -3.755281
| 22>   H                      -9.681577            6.510457             -2.310331
| 23> *
| 24>
| 25> #Run DFT-D3 single point of the molecule with dimer basis set
| 26> $new_job
| 27> %base "14-94_DFT_A"
| 28> ! wB97X-D3 def2-TZVP TIGHTSCF CHELPG PMODEL
| 29>
| 30> %scf
| 31> MaxIter 1000
| 32> end
| 33>
| 34> * xyz 0 1
| 35>   C                      -8.023118            5.970073             -7.301579
| 36>   O                      -7.208899            5.748031             -6.199433
| 37>   H                      -7.582233            5.100643             -5.540227
| 38>   H                      -8.491772            6.984259             -7.204203
| 39>   H                      -7.494694            5.832346             -8.256467
| 40>   H                      -8.841849            5.215604             -7.301558
| 41>   C                    : -9.205169            6.910443             -3.179025
| 42>   O                    : -8.021357            7.648472             -2.983924
| 43>   H                    : -8.204361            8.311799             -2.278597
| 44>   H                    : -9.929243            7.448107             -3.819191
| 45>   H                    : -9.029607            5.992954             -3.755281
| 46>   H                    : -9.681577            6.510457             -2.310331
| 47> *
| 48>
| 49> #Run DFT-D3 single point of the particle with dimer basis set
| 50> $new_job
| 51> %base "14-94_DFT_B"
| 52> ! wB97X-D3 def2-TZVP TIGHTSCF CHELPG PMODEL
| 53>
| 54> %scf
| 55> MaxIter 1000
| 56> end
| 57>
| 58> * xyz 0 1
| 59>   C                    : -8.023118            5.970073             -7.301579
| 60>   O                    : -7.208899            5.748031             -6.199433
| 61>   H                    : -7.582233            5.100643             -5.540227
| 62>   H                    : -8.491772            6.984259             -7.204203
| 63>   H                    : -7.494694            5.832346             -8.256467
| 64>   H                    : -8.841849            5.215604             -7.301558
| 65>   C                      -9.205169            6.910443             -3.179025
| 66>   O                      -8.021357            7.648472             -2.983924
| 67>   H                      -8.204361            8.311799             -2.278597
| 68>   H                      -9.929243            7.448107             -3.819191
| 69>   H                      -9.029607            5.992954             -3.755281
| 70>   H                      -9.681577            6.510457             -2.310331
| 71> *
| 72>
| 73>                          ****END OF INPUT****
 Total Charge           Charge          ....    0
 Multiplicity           Mult            ....    1
 Number of Electrons    NEL             ....   36
Dispersion correction           -0.001559095
FINAL SINGLE POINT ENERGY      -231.463861461076
Dispersion correction           -0.000249417
FINAL SINGLE POINT ENERGY      -115.731778331977

CARTESIAN COORDINATES (ANGSTROEM)
---------------------------------
  C     -8.023118    5.970073   -7.301579
  O     -7.208899    5.748031   -6.199433
  H     -7.582233    5.100643   -5.540227
  H     -8.491772    6.984259   -7.204203
  H     -7.494694    5.832346   -8.256467
  H     -8.841849    5.215604   -7.301558
  C     -9.205169    6.910443   -3.179025
  O     -8.021357    7.648472   -2.983924
  H     -8.204361    8.311799   -2.278597
  H     -9.929243    7.448107   -3.819191
  H     -9.029607    5.992954   -3.755281
  H     -9.681577    6.510457   -2.310331

 Multiplicity           Mult            ....    1
 Number of Electrons    NEL             ....   18
 Basis Dimension        Dim             ....  172

ORBITAL ENERGIES
----------------

  NO   OCC          E(Eh)            E(eV)
   0   2.0000     -19.236013      -523.4385
   1   2.0000     -10.310516      -280.5634
   2   2.0000      -1.134597       -30.8740
   3   2.0000      -0.796516       -21.6743
   4   2.0000      -0.609968       -16.5981
   5   2.0000      -0.543580       -14.7916
   6   2.0000      -0.525802       -14.3078
   7   2.0000      -0.429329       -11.6826
   8   2.0000      -0.376013       -10.2318
   9   0.0000       0.089826         2.4443
  10   0.0000       0.117704         3.2029
  11   0.0000       0.152514         4.1501
  12   0.0000       0.167816         4.5665
  13   0.0000       0.192495         5.2381

MULLIKEN ATOMIC CHARGES
-----------------------
   0 C :    0.000264
   1 O :    0.000104
   2 H :    0.000471
   3 H :    0.000027
   4 H :    0.000003
   5 H :   -0.000178
   6 C :   -0.172875
   7 O :   -0.470252
   8 H :    0.318053
   9 H :    0.100118
  10 H :    0.115606
  11 H :    0.108657
Sum of atomic charges:    0.0000000

LOEWDIN ATOMIC CHARGES
----------------------
   0 C :   -0.000604
   1 O :   -0.000575
   2 H :   -0.003184
   3 H :   -0.000073
   4 H :   -0.000004
   5 H :   -0.000068
   6 C :   -0.400708
   7 O :   -0.079243
   8 H :    0.186227
   9 H :    0.097468
  10 H :    0.110693
  11 H :    0.090070

  Mayer bond orders larger than 0.1
B(  6-C ,  7-O ) :   1.0103 B(  6-C ,  9-H ) :   0.9805 B(  6-C , 10-H ) :   0.9729
B(  6-C , 11-H ) :   0.9725 B(  7-O ,  8-H ) :   0.8945

Dispersion correction           -0.000258001
FINAL SINGLE POINT ENERGY      -115.732916895171

DIPOLE MOMENT
-------------
                                X             Y             Z
Electronic contribution:      1.66394       0.96556       0.28439
Nuclear contribution   :     -2.22920      -0.86798       0.08889
                        -----------------------------------------
Total Dipole Moment    :     -0.56526       0.09758       0.37329
                        -----------------------------------------
Magnitude (a.u.)       :      0.68438
Magnitude (Debye)      :      1.73956

Rotational constants in cm-1:     4.423057     0.820409     0.798532
Rotational constants in MHz : 132599.921700 24595.255861 23939.398037

                             ****ORCA TERMINATED NORMALLY****
TOTAL RUN TIME: 0 days 0 hours 1 minutes 11 seconds 234 msec
