                         Program Version 4.1.2  - RELEASE  -
|  1> #Run DFT-D3 single point of the dimer
|  2> ! wB97X-D3 def2-TZVP TIGHTSCF CHELPG PMODEL PAL8
|  3>
|  4> %base "1-79_DFT_AB"
|  5>
|  6> %scf
|  7> MaxIter 1000
|  8> end
|  9>
| 10> * xyz 0 1
| 11>   C                      -2.564663            -10.829491           0.819036
| 12>   O                      -1.332082            -11.025152           1.444712
| 13>   H                      -1.579110            -11.609815           2.161669
| 14>   H                      -2.334350            -10.176657           -0.055430
| 15>   H                      -2.996839            -11.752730           0.453297
| 16>   H                      -3.253794            -10.236978           1.399588
| 17>   C                      -0.937352            -8.088927            -2.221611
| 18>   O                      -0.146251            -8.844559            -3.090830
| 19>   H                      -0.684379            -9.530490            -3.450825
| 20>   H                      -1.078185            -8.565614            -1.265755
| 21>   H                      -0.482756            -7.086738            -2.030550
| 22>   H                      -1.994815            -7.899985            -2.646214
| 23> *
| 24>
| 25> #Run DFT-D3 single point of the molecule with dimer basis set
| 26> $new_job
| 27> %base "1-79_DFT_A"
| 28> ! wB97X-D3 def2-TZVP TIGHTSCF CHELPG PMODEL
| 29>
| 30> %scf
| 31> MaxIter 1000
| 32> end
| 33>
| 34> * xyz 0 1
| 35>   C                      -2.564663            -10.829491           0.819036
| 36>   O                      -1.332082            -11.025152           1.444712
| 37>   H                      -1.579110            -11.609815           2.161669
| 38>   H                      -2.334350            -10.176657           -0.055430
| 39>   H                      -2.996839            -11.752730           0.453297
| 40>   H                      -3.253794            -10.236978           1.399588
| 41>   C                    : -0.937352            -8.088927            -2.221611
| 42>   O                    : -0.146251            -8.844559            -3.090830
| 43>   H                    : -0.684379            -9.530490            -3.450825
| 44>   H                    : -1.078185            -8.565614            -1.265755
| 45>   H                    : -0.482756            -7.086738            -2.030550
| 46>   H                    : -1.994815            -7.899985            -2.646214
| 47> *
| 48>
| 49> #Run DFT-D3 single point of the particle with dimer basis set
| 50> $new_job
| 51> %base "1-79_DFT_B"
| 52> ! wB97X-D3 def2-TZVP TIGHTSCF CHELPG PMODEL
| 53>
| 54> %scf
| 55> MaxIter 1000
| 56> end
| 57>
| 58> * xyz 0 1
| 59>   C                    : -2.564663            -10.829491           0.819036
| 60>   O                    : -1.332082            -11.025152           1.444712
| 61>   H                    : -1.579110            -11.609815           2.161669
| 62>   H                    : -2.334350            -10.176657           -0.055430
| 63>   H                    : -2.996839            -11.752730           0.453297
| 64>   H                    : -3.253794            -10.236978           1.399588
| 65>   C                      -0.937352            -8.088927            -2.221611
| 66>   O                      -0.146251            -8.844559            -3.090830
| 67>   H                      -0.684379            -9.530490            -3.450825
| 68>   H                      -1.078185            -8.565614            -1.265755
| 69>   H                      -0.482756            -7.086738            -2.030550
| 70>   H                      -1.994815            -7.899985            -2.646214
| 71> *
| 72>
| 73>                          ****END OF INPUT****
 Total Charge           Charge          ....    0
 Multiplicity           Mult            ....    1
 Number of Electrons    NEL             ....   36
Dispersion correction           -0.001158331
FINAL SINGLE POINT ENERGY      -231.468100044016
Dispersion correction           -0.000214971
FINAL SINGLE POINT ENERGY      -115.733781996379

CARTESIAN COORDINATES (ANGSTROEM)
---------------------------------
  C     -2.564663  -10.829491    0.819036
  O     -1.332082  -11.025152    1.444712
  H     -1.579110  -11.609815    2.161669
  H     -2.334350  -10.176657   -0.055430
  H     -2.996839  -11.752730    0.453297
  H     -3.253794  -10.236978    1.399588
  C     -0.937352   -8.088927   -2.221611
  O     -0.146251   -8.844559   -3.090830
  H     -0.684379   -9.530490   -3.450825
  H     -1.078185   -8.565614   -1.265755
  H     -0.482756   -7.086738   -2.030550
  H     -1.994815   -7.899985   -2.646214

 Multiplicity           Mult            ....    1
 Number of Electrons    NEL             ....   18
 Basis Dimension        Dim             ....  172

ORBITAL ENERGIES
----------------

  NO   OCC          E(Eh)            E(eV)
   0   2.0000     -19.230903      -523.2995
   1   2.0000     -10.318557      -280.7822
   2   2.0000      -1.146072       -31.1862
   3   2.0000      -0.792317       -21.5600
   4   2.0000      -0.615848       -16.7581
   5   2.0000      -0.540272       -14.7016
   6   2.0000      -0.528936       -14.3931
   7   2.0000      -0.431210       -11.7338
   8   2.0000      -0.373828       -10.1724
   9   0.0000       0.083348         2.2680
  10   0.0000       0.117542         3.1985
  11   0.0000       0.152568         4.1516
  12   0.0000       0.170318         4.6346
  13   0.0000       0.183871         5.0034

MULLIKEN ATOMIC CHARGES
-----------------------
   0 C :   -0.000974
   1 O :   -0.000104
   2 H :   -0.000016
   3 H :    0.001757
   4 H :   -0.000092
   5 H :    0.000143
   6 C :   -0.169421
   7 O :   -0.458725
   8 H :    0.314635
   9 H :    0.102570
  10 H :    0.117797
  11 H :    0.092432
Sum of atomic charges:   -0.0000000

LOEWDIN ATOMIC CHARGES
----------------------
   0 C :   -0.001624
   1 O :   -0.000037
   2 H :   -0.000004
   3 H :   -0.004372
   4 H :   -0.000016
   5 H :   -0.000017
   6 C :   -0.404109
   7 O :   -0.054983
   8 H :    0.160800
   9 H :    0.089963
  10 H :    0.111378
  11 H :    0.103021

  Mayer bond orders larger than 0.1
B(  6-C ,  7-O ) :   1.0082 B(  6-C ,  9-H ) :   0.9708 B(  6-C , 10-H ) :   0.9724
B(  6-C , 11-H ) :   0.9810 B(  7-O ,  8-H ) :   0.9010

Dispersion correction           -0.000245326
FINAL SINGLE POINT ENERGY      -115.734090694324

DIPOLE MOMENT
-------------
                                X             Y             Z
Electronic contribution:      1.24291      -0.96939      -1.10172
Nuclear contribution   :     -1.87872       0.81430       1.20680
                        -----------------------------------------
Total Dipole Moment    :     -0.63581      -0.15509       0.10508
                        -----------------------------------------
Magnitude (a.u.)       :      0.66283
Magnitude (Debye)      :      1.68479

Rotational constants in cm-1:     4.233078     0.840909     0.807275
Rotational constants in MHz : 126904.475412 25209.830478 24201.485588

                             ****ORCA TERMINATED NORMALLY****
TOTAL RUN TIME: 0 days 0 hours 6 minutes 0 seconds 454 msec
