                         Program Version 4.1.2  - RELEASE  -
|  1> #Run DFT-D3 single point of the dimer
|  2> ! wB97X-D3 def2-TZVP TIGHTSCF CHELPG PMODEL PAL8
|  3>
|  4> %base "22-185_DFT_AB"
|  5>
|  6> %scf
|  7> MaxIter 1000
|  8> end
|  9>
| 10> * xyz 0 1
| 11>   C                      7.695051             -7.276950            0.412980
| 12>   O                      8.970194             -6.688546            0.221901
| 13>   H                      8.750554             -5.892536            -0.340025
| 14>   H                      7.752044             -8.187793            1.079230
| 15>   H                      6.997280             -6.546783            0.831304
| 16>   H                      7.280716             -7.647085            -0.589028
| 17>   C                      9.438727             -3.721648            -1.851638
| 18>   O                      8.377869             -4.468286            -1.328289
| 19>   H                      7.640629             -4.403030            -1.935555
| 20>   H                      10.381033            -4.210170            -1.827291
| 21>   H                      9.213643             -3.395265            -2.855643
| 22>   H                      9.658459             -2.751230            -1.291551
| 23> *
| 24>
| 25> #Run DFT-D3 single point of the molecule with dimer basis set
| 26> $new_job
| 27> %base "22-185_DFT_A"
| 28> ! wB97X-D3 def2-TZVP TIGHTSCF CHELPG PMODEL
| 29>
| 30> %scf
| 31> MaxIter 1000
| 32> end
| 33>
| 34> * xyz 0 1
| 35>   C                      7.695051             -7.276950            0.412980
| 36>   O                      8.970194             -6.688546            0.221901
| 37>   H                      8.750554             -5.892536            -0.340025
| 38>   H                      7.752044             -8.187793            1.079230
| 39>   H                      6.997280             -6.546783            0.831304
| 40>   H                      7.280716             -7.647085            -0.589028
| 41>   C                    : 9.438727             -3.721648            -1.851638
| 42>   O                    : 8.377869             -4.468286            -1.328289
| 43>   H                    : 7.640629             -4.403030            -1.935555
| 44>   H                    : 10.381033            -4.210170            -1.827291
| 45>   H                    : 9.213643             -3.395265            -2.855643
| 46>   H                    : 9.658459             -2.751230            -1.291551
| 47> *
| 48>
| 49> #Run DFT-D3 single point of the particle with dimer basis set
| 50> $new_job
| 51> %base "22-185_DFT_B"
| 52> ! wB97X-D3 def2-TZVP TIGHTSCF CHELPG PMODEL
| 53>
| 54> %scf
| 55> MaxIter 1000
| 56> end
| 57>
| 58> * xyz 0 1
| 59>   C                    : 7.695051             -7.276950            0.412980
| 60>   O                    : 8.970194             -6.688546            0.221901
| 61>   H                    : 8.750554             -5.892536            -0.340025
| 62>   H                    : 7.752044             -8.187793            1.079230
| 63>   H                    : 6.997280             -6.546783            0.831304
| 64>   H                    : 7.280716             -7.647085            -0.589028
| 65>   C                      9.438727             -3.721648            -1.851638
| 66>   O                      8.377869             -4.468286            -1.328289
| 67>   H                      7.640629             -4.403030            -1.935555
| 68>   H                      10.381033            -4.210170            -1.827291
| 69>   H                      9.213643             -3.395265            -2.855643
| 70>   H                      9.658459             -2.751230            -1.291551
| 71> *
| 72>
| 73>                          ****END OF INPUT****
 Total Charge           Charge          ....    0
 Multiplicity           Mult            ....    1
 Number of Electrons    NEL             ....   36
Dispersion correction           -0.001765528
FINAL SINGLE POINT ENERGY      -231.473364758151
Dispersion correction           -0.000234731
FINAL SINGLE POINT ENERGY      -115.732294696253

CARTESIAN COORDINATES (ANGSTROEM)
---------------------------------
  C      7.695051   -7.276950    0.412980
  O      8.970194   -6.688546    0.221901
  H      8.750554   -5.892536   -0.340025
  H      7.752044   -8.187793    1.079230
  H      6.997280   -6.546783    0.831304
  H      7.280716   -7.647085   -0.589028
  C      9.438727   -3.721648   -1.851638
  O      8.377869   -4.468286   -1.328289
  H      7.640629   -4.403030   -1.935555
  H     10.381033   -4.210170   -1.827291
  H      9.213643   -3.395265   -2.855643
  H      9.658459   -2.751230   -1.291551

 Multiplicity           Mult            ....    1
 Number of Electrons    NEL             ....   18
 Basis Dimension        Dim             ....  172

ORBITAL ENERGIES
----------------

  NO   OCC          E(Eh)            E(eV)
   0   2.0000     -19.233644      -523.3741
   1   2.0000     -10.312642      -280.6213
   2   2.0000      -1.143668       -31.1208
   3   2.0000      -0.797432       -21.6992
   4   2.0000      -0.619597       -16.8601
   5   2.0000      -0.543227       -14.7820
   6   2.0000      -0.528465       -14.3803
   7   2.0000      -0.435691       -11.8557
   8   2.0000      -0.371752       -10.1159
   9   0.0000       0.098460         2.6792
  10   0.0000       0.124103         3.3770
  11   0.0000       0.150369         4.0917
  12   0.0000       0.188290         5.1236
  13   0.0000       0.200418         5.4537

MULLIKEN ATOMIC CHARGES
-----------------------
   0 C :    0.003463
   1 O :   -0.000805
   2 H :   -0.006409
   3 H :   -0.000180
   4 H :   -0.002115
   5 H :   -0.001878
   6 C :   -0.158705
   7 O :   -0.466038
   8 H :    0.318756
   9 H :    0.122898
  10 H :    0.100163
  11 H :    0.090849
Sum of atomic charges:   -0.0000000

LOEWDIN ATOMIC CHARGES
----------------------
   0 C :   -0.005454
   1 O :   -0.006485
   2 H :   -0.059018
   3 H :   -0.000070
   4 H :   -0.000870
   5 H :   -0.000665
   6 C :   -0.392626
   7 O :   -0.001597
   8 H :    0.172407
   9 H :    0.096100
  10 H :    0.094602
  11 H :    0.103677

  Mayer bond orders larger than 0.1
B(  6-C ,  7-O ) :   1.0049 B(  6-C ,  9-H ) :   0.9789 B(  6-C , 10-H ) :   0.9848
B(  6-C , 11-H ) :   0.9720 B(  7-O ,  8-H ) :   0.8966

Dispersion correction           -0.000251350
FINAL SINGLE POINT ENERGY      -115.732182008852

DIPOLE MOMENT
-------------
                                X             Y             Z
Electronic contribution:     -1.33999      -1.17601       0.76241
Nuclear contribution   :      1.27411       1.49752      -1.38945
                        -----------------------------------------
Total Dipole Moment    :     -0.06588       0.32151      -0.62704
                        -----------------------------------------
Magnitude (a.u.)       :      0.70773
Magnitude (Debye)      :      1.79892

Rotational constants in cm-1:     4.436349     0.837585     0.804314
Rotational constants in MHz : 132998.389653 25110.173041 24112.721612

                             ****ORCA TERMINATED NORMALLY****
TOTAL RUN TIME: 0 days 0 hours 1 minutes 8 seconds 105 msec
