                         Program Version 4.1.2  - RELEASE  -
|  1> #Run DFT-D3 single point of the dimer
|  2> ! wB97X-D3 def2-TZVP TIGHTSCF CHELPG PMODEL PAL8
|  3>
|  4> %base "5-92_DFT_AB"
|  5>
|  6> %scf
|  7> MaxIter 1000
|  8> end
|  9>
| 10> * xyz 0 1
| 11>   C                      3.523408             -5.923778            2.070169
| 12>   O                      3.834441             -4.576411            1.836301
| 13>   H                      4.763971             -4.562166            1.509061
| 14>   H                      2.729272             -5.991882            2.856450
| 15>   H                      3.330591             -6.484672            1.252621
| 16>   H                      4.446997             -6.457884            2.510366
| 17>   C                      6.668036             -5.455190            -1.030907
| 18>   O                      6.837075             -4.507155            -0.019168
| 19>   H                      7.422544             -4.843241            0.644759
| 20>   H                      7.637286             -5.706751            -1.547188
| 21>   H                      6.155965             -6.319616            -0.667322
| 22>   H                      6.026018             -5.035849            -1.862106
| 23> *
| 24>
| 25> #Run DFT-D3 single point of the molecule with dimer basis set
| 26> $new_job
| 27> %base "5-92_DFT_A"
| 28> ! wB97X-D3 def2-TZVP TIGHTSCF CHELPG PMODEL
| 29>
| 30> %scf
| 31> MaxIter 1000
| 32> end
| 33>
| 34> * xyz 0 1
| 35>   C                      3.523408             -5.923778            2.070169
| 36>   O                      3.834441             -4.576411            1.836301
| 37>   H                      4.763971             -4.562166            1.509061
| 38>   H                      2.729272             -5.991882            2.856450
| 39>   H                      3.330591             -6.484672            1.252621
| 40>   H                      4.446997             -6.457884            2.510366
| 41>   C                    : 6.668036             -5.455190            -1.030907
| 42>   O                    : 6.837075             -4.507155            -0.019168
| 43>   H                    : 7.422544             -4.843241            0.644759
| 44>   H                    : 7.637286             -5.706751            -1.547188
| 45>   H                    : 6.155965             -6.319616            -0.667322
| 46>   H                    : 6.026018             -5.035849            -1.862106
| 47> *
| 48>
| 49> #Run DFT-D3 single point of the particle with dimer basis set
| 50> $new_job
| 51> %base "5-92_DFT_B"
| 52> ! wB97X-D3 def2-TZVP TIGHTSCF CHELPG PMODEL
| 53>
| 54> %scf
| 55> MaxIter 1000
| 56> end
| 57>
| 58> * xyz 0 1
| 59>   C                    : 3.523408             -5.923778            2.070169
| 60>   O                    : 3.834441             -4.576411            1.836301
| 61>   H                    : 4.763971             -4.562166            1.509061
| 62>   H                    : 2.729272             -5.991882            2.856450
| 63>   H                    : 3.330591             -6.484672            1.252621
| 64>   H                    : 4.446997             -6.457884            2.510366
| 65>   C                      6.668036             -5.455190            -1.030907
| 66>   O                      6.837075             -4.507155            -0.019168
| 67>   H                      7.422544             -4.843241            0.644759
| 68>   H                      7.637286             -5.706751            -1.547188
| 69>   H                      6.155965             -6.319616            -0.667322
| 70>   H                      6.026018             -5.035849            -1.862106
| 71> *
| 72>
| 73>                          ****END OF INPUT****
 Total Charge           Charge          ....    0
 Multiplicity           Mult            ....    1
 Number of Electrons    NEL             ....   36
Dispersion correction           -0.001665874
FINAL SINGLE POINT ENERGY      -231.465795068914
Dispersion correction           -0.000230739
FINAL SINGLE POINT ENERGY      -115.726570234758

CARTESIAN COORDINATES (ANGSTROEM)
---------------------------------
  C      3.523408   -5.923778    2.070169
  O      3.834441   -4.576411    1.836301
  H      4.763971   -4.562166    1.509061
  H      2.729272   -5.991882    2.856450
  H      3.330591   -6.484672    1.252621
  H      4.446997   -6.457884    2.510366
  C      6.668036   -5.455190   -1.030907
  O      6.837075   -4.507155   -0.019168
  H      7.422544   -4.843241    0.644759
  H      7.637286   -5.706751   -1.547188
  H      6.155965   -6.319616   -0.667322
  H      6.026018   -5.035849   -1.862106

 Multiplicity           Mult            ....    1
 Number of Electrons    NEL             ....   18
 Basis Dimension        Dim             ....  172

ORBITAL ENERGIES
----------------

  NO   OCC          E(Eh)            E(eV)
   0   2.0000     -19.229825      -523.2701
   1   2.0000     -10.316084      -280.7149
   2   2.0000      -1.143841       -31.1255
   3   2.0000      -0.794473       -21.6187
   4   2.0000      -0.613893       -16.7049
   5   2.0000      -0.549559       -14.9543
   6   2.0000      -0.525940       -14.3115
   7   2.0000      -0.424655       -11.5554
   8   2.0000      -0.375962       -10.2304
   9   0.0000       0.086903         2.3648
  10   0.0000       0.127050         3.4572
  11   0.0000       0.151079         4.1111
  12   0.0000       0.183599         4.9960
  13   0.0000       0.189100         5.1457

MULLIKEN ATOMIC CHARGES
-----------------------
   0 C :    0.000789
   1 O :    0.000627
   2 H :   -0.009338
   3 H :   -0.000055
   4 H :   -0.000193
   5 H :   -0.000539
   6 C :   -0.161634
   7 O :   -0.468938
   8 H :    0.316042
   9 H :    0.099452
  10 H :    0.107331
  11 H :    0.116457
Sum of atomic charges:    0.0000000

LOEWDIN ATOMIC CHARGES
----------------------
   0 C :   -0.000628
   1 O :   -0.000763
   2 H :   -0.013801
   3 H :   -0.000011
   4 H :   -0.000162
   5 H :   -0.000140
   6 C :   -0.403218
   7 O :   -0.048071
   8 H :    0.162028
   9 H :    0.100113
  10 H :    0.088255
  11 H :    0.116397

  Mayer bond orders larger than 0.1
B(  6-C ,  7-O ) :   0.9921 B(  6-C ,  9-H ) :   0.9738 B(  6-C , 10-H ) :   0.9768
B(  6-C , 11-H ) :   0.9735 B(  7-O ,  8-H ) :   0.8976

Dispersion correction           -0.000243364
FINAL SINGLE POINT ENERGY      -115.734847014139

DIPOLE MOMENT
-------------
                                X             Y             Z
Electronic contribution:      0.15839       1.25466       1.34726
Nuclear contribution   :      0.15144      -1.83881      -1.32127
                        -----------------------------------------
Total Dipole Moment    :      0.30983      -0.58414       0.02599
                        -----------------------------------------
Magnitude (a.u.)       :      0.66174
Magnitude (Debye)      :      1.68201

Rotational constants in cm-1:     4.280622     0.837569     0.814355
Rotational constants in MHz : 128329.829200 25109.677417 24413.742674

                             ****ORCA TERMINATED NORMALLY****
TOTAL RUN TIME: 0 days 0 hours 0 minutes 43 seconds 647 msec
