                         Program Version 4.1.2  - RELEASE  -
|  1> #Run DFT-D3 single point of the dimer
|  2> ! wB97X-D3 def2-TZVP TIGHTSCF CHELPG PMODEL PAL8
|  3>
|  4> %base "17-138_DFT_AB"
|  5>
|  6> %scf
|  7> MaxIter 1000
|  8> end
|  9>
| 10> * xyz 0 1
| 11>   C                      2.761676             -6.208087            3.528277
| 12>   O                      3.031626             -7.417651            2.918432
| 13>   H                      2.459564             -7.478778            2.192738
| 14>   H                      3.046349             -6.231249            4.572474
| 15>   H                      3.447008             -5.440362            3.205289
| 16>   H                      1.725867             -5.883107            3.328720
| 17>   C                      -0.014004            -8.914242            3.677463
| 18>   O                      -0.243283            -7.666548            3.192443
| 19>   H                      -0.330893            -7.706242            2.229205
| 20>   H                      0.478737             -9.580093            2.996806
| 21>   H                      0.624726             -8.936190            4.581951
| 22>   H                      -0.910941            -9.473797            3.977538
| 23> *
| 24>
| 25> #Run DFT-D3 single point of the molecule with dimer basis set
| 26> $new_job
| 27> %base "17-138_DFT_A"
| 28> ! wB97X-D3 def2-TZVP TIGHTSCF CHELPG PMODEL
| 29>
| 30> %scf
| 31> MaxIter 1000
| 32> end
| 33>
| 34> * xyz 0 1
| 35>   C                      2.761676             -6.208087            3.528277
| 36>   O                      3.031626             -7.417651            2.918432
| 37>   H                      2.459564             -7.478778            2.192738
| 38>   H                      3.046349             -6.231249            4.572474
| 39>   H                      3.447008             -5.440362            3.205289
| 40>   H                      1.725867             -5.883107            3.328720
| 41>   C                    : -0.014004            -8.914242            3.677463
| 42>   O                    : -0.243283            -7.666548            3.192443
| 43>   H                    : -0.330893            -7.706242            2.229205
| 44>   H                    : 0.478737             -9.580093            2.996806
| 45>   H                    : 0.624726             -8.936190            4.581951
| 46>   H                    : -0.910941            -9.473797            3.977538
| 47> *
| 48>
| 49> #Run DFT-D3 single point of the particle with dimer basis set
| 50> $new_job
| 51> %base "17-138_DFT_B"
| 52> ! wB97X-D3 def2-TZVP TIGHTSCF CHELPG PMODEL
| 53>
| 54> %scf
| 55> MaxIter 1000
| 56> end
| 57>
| 58> * xyz 0 1
| 59>   C                    : 2.761676             -6.208087            3.528277
| 60>   O                    : 3.031626             -7.417651            2.918432
| 61>   H                    : 2.459564             -7.478778            2.192738
| 62>   H                    : 3.046349             -6.231249            4.572474
| 63>   H                    : 3.447008             -5.440362            3.205289
| 64>   H                    : 1.725867             -5.883107            3.328720
| 65>   C                      -0.014004            -8.914242            3.677463
| 66>   O                      -0.243283            -7.666548            3.192443
| 67>   H                      -0.330893            -7.706242            2.229205
| 68>   H                      0.478737             -9.580093            2.996806
| 69>   H                      0.624726             -8.936190            4.581951
| 70>   H                      -0.910941            -9.473797            3.977538
| 71> *
| 72>
| 73>                          ****END OF INPUT****
 Total Charge           Charge          ....    0
 Multiplicity           Mult            ....    1
 Number of Electrons    NEL             ....   36
Dispersion correction           -0.002303829
FINAL SINGLE POINT ENERGY      -231.466003208539
Dispersion correction           -0.000222216
FINAL SINGLE POINT ENERGY      -115.731179831095

CARTESIAN COORDINATES (ANGSTROEM)
---------------------------------
  C      2.761676   -6.208087    3.528277
  O      3.031626   -7.417651    2.918432
  H      2.459564   -7.478778    2.192738
  H      3.046349   -6.231249    4.572474
  H      3.447008   -5.440362    3.205289
  H      1.725867   -5.883107    3.328720
  C     -0.014004   -8.914242    3.677463
  O     -0.243283   -7.666548    3.192443
  H     -0.330893   -7.706242    2.229205
  H      0.478737   -9.580093    2.996806
  H      0.624726   -8.936190    4.581951
  H     -0.910941   -9.473797    3.977538

 Multiplicity           Mult            ....    1
 Number of Electrons    NEL             ....   18
 Basis Dimension        Dim             ....  172

ORBITAL ENERGIES
----------------

  NO   OCC          E(Eh)            E(eV)
   0   2.0000     -19.235753      -523.4314
   1   2.0000     -10.307621      -280.4846
   2   2.0000      -1.154925       -31.4271
   3   2.0000      -0.796365       -21.6702
   4   2.0000      -0.628928       -17.1140
   5   2.0000      -0.541420       -14.7328
   6   2.0000      -0.536554       -14.6004
   7   2.0000      -0.429090       -11.6761
   8   2.0000      -0.371735       -10.1154
   9   0.0000       0.091273         2.4837
  10   0.0000       0.126184         3.4336
  11   0.0000       0.149514         4.0685
  12   0.0000       0.175669         4.7802
  13   0.0000       0.198684         5.4065

MULLIKEN ATOMIC CHARGES
-----------------------
   0 C :    0.007828
   1 O :    0.000265
   2 H :   -0.006338
   3 H :   -0.000664
   4 H :   -0.000340
   5 H :   -0.009189
   6 C :   -0.172271
   7 O :   -0.454981
   8 H :    0.322451
   9 H :    0.104923
  10 H :    0.111203
  11 H :    0.097113
Sum of atomic charges:    0.0000000

LOEWDIN ATOMIC CHARGES
----------------------
   0 C :   -0.007750
   1 O :   -0.001473
   2 H :   -0.004256
   3 H :   -0.000139
   4 H :   -0.000052
   5 H :   -0.008921
   6 C :   -0.437614
   7 O :   -0.016140
   8 H :    0.182722
   9 H :    0.090394
  10 H :    0.108603
  11 H :    0.094625

  Mayer bond orders larger than 0.1
B(  6-C ,  7-O ) :   1.0090 B(  6-C ,  9-H ) :   0.9847 B(  6-C , 10-H ) :   0.9775
B(  6-C , 11-H ) :   0.9718 B(  7-O ,  8-H ) :   0.8916

Dispersion correction           -0.000240954
FINAL SINGLE POINT ENERGY      -115.732869700883

DIPOLE MOMENT
-------------
                                X             Y             Z
Electronic contribution:     -0.32494       1.87030      -0.61218
Nuclear contribution   :      0.36042      -2.36092       0.14758
                        -----------------------------------------
Total Dipole Moment    :      0.03548      -0.49062      -0.46460
                        -----------------------------------------
Magnitude (a.u.)       :      0.67662
Magnitude (Debye)      :      1.71984

Rotational constants in cm-1:     4.512204     0.869678     0.837327
Rotational constants in MHz : 135272.471965 26072.297083 25102.427627

                             ****ORCA TERMINATED NORMALLY****
TOTAL RUN TIME: 0 days 0 hours 1 minutes 14 seconds 599 msec
