                         Program Version 4.1.2  - RELEASE  -
|  1> #Run DFT-D3 single point of the dimer
|  2> ! wB97X-D3 def2-TZVP TIGHTSCF CHELPG PMODEL PAL8
|  3>
|  4> %base "18-70_DFT_AB"
|  5>
|  6> %scf
|  7> MaxIter 1000
|  8> end
|  9>
| 10> * xyz 0 1
| 11>   C                      -9.376882            2.477543             -4.713638
| 12>   O                      -8.879101            1.249759             -4.251672
| 13>   H                      -8.504587            1.328272             -3.362079
| 14>   H                      -8.510873            3.150077             -4.795730
| 15>   H                      -9.919677            2.295343             -5.655822
| 16>   H                      -10.081456           2.950234             -3.991283
| 17>   C                      -7.665083            6.775921             -4.890714
| 18>   O                      -6.306933            7.193656             -4.919434
| 19>   H                      -5.876818            6.386052             -5.075891
| 20>   H                      -7.679441            5.712841             -4.702631
| 21>   H                      -8.222908            7.329902             -4.165676
| 22>   H                      -8.192005            6.987732             -5.810565
| 23> *
| 24>
| 25> #Run DFT-D3 single point of the molecule with dimer basis set
| 26> $new_job
| 27> %base "18-70_DFT_A"
| 28> ! wB97X-D3 def2-TZVP TIGHTSCF CHELPG PMODEL
| 29>
| 30> %scf
| 31> MaxIter 1000
| 32> end
| 33>
| 34> * xyz 0 1
| 35>   C                      -9.376882            2.477543             -4.713638
| 36>   O                      -8.879101            1.249759             -4.251672
| 37>   H                      -8.504587            1.328272             -3.362079
| 38>   H                      -8.510873            3.150077             -4.795730
| 39>   H                      -9.919677            2.295343             -5.655822
| 40>   H                      -10.081456           2.950234             -3.991283
| 41>   C                    : -7.665083            6.775921             -4.890714
| 42>   O                    : -6.306933            7.193656             -4.919434
| 43>   H                    : -5.876818            6.386052             -5.075891
| 44>   H                    : -7.679441            5.712841             -4.702631
| 45>   H                    : -8.222908            7.329902             -4.165676
| 46>   H                    : -8.192005            6.987732             -5.810565
| 47> *
| 48>
| 49> #Run DFT-D3 single point of the particle with dimer basis set
| 50> $new_job
| 51> %base "18-70_DFT_B"
| 52> ! wB97X-D3 def2-TZVP TIGHTSCF CHELPG PMODEL
| 53>
| 54> %scf
| 55> MaxIter 1000
| 56> end
| 57>
| 58> * xyz 0 1
| 59>   C                    : -9.376882            2.477543             -4.713638
| 60>   O                    : -8.879101            1.249759             -4.251672
| 61>   H                    : -8.504587            1.328272             -3.362079
| 62>   H                    : -8.510873            3.150077             -4.795730
| 63>   H                    : -9.919677            2.295343             -5.655822
| 64>   H                    : -10.081456           2.950234             -3.991283
| 65>   C                      -7.665083            6.775921             -4.890714
| 66>   O                      -6.306933            7.193656             -4.919434
| 67>   H                      -5.876818            6.386052             -5.075891
| 68>   H                      -7.679441            5.712841             -4.702631
| 69>   H                      -8.222908            7.329902             -4.165676
| 70>   H                      -8.192005            6.987732             -5.810565
| 71> *
| 72>
| 73>                          ****END OF INPUT****
 Total Charge           Charge          ....    0
 Multiplicity           Mult            ....    1
 Number of Electrons    NEL             ....   36
Dispersion correction           -0.000967041
FINAL SINGLE POINT ENERGY      -231.466454128826
Dispersion correction           -0.000233081
FINAL SINGLE POINT ENERGY      -115.734741224059

CARTESIAN COORDINATES (ANGSTROEM)
---------------------------------
  C     -9.376882    2.477543   -4.713638
  O     -8.879101    1.249759   -4.251672
  H     -8.504587    1.328272   -3.362079
  H     -8.510873    3.150077   -4.795730
  H     -9.919677    2.295343   -5.655822
  H    -10.081456    2.950234   -3.991283
  C     -7.665083    6.775921   -4.890714
  O     -6.306933    7.193656   -4.919434
  H     -5.876818    6.386052   -5.075891
  H     -7.679441    5.712841   -4.702631
  H     -8.222908    7.329902   -4.165676
  H     -8.192005    6.987732   -5.810565

 Multiplicity           Mult            ....    1
 Number of Electrons    NEL             ....   18
 Basis Dimension        Dim             ....  172

ORBITAL ENERGIES
----------------

  NO   OCC          E(Eh)            E(eV)
   0   2.0000     -19.227295      -523.2013
   1   2.0000     -10.308855      -280.5182
   2   2.0000      -1.145105       -31.1599
   3   2.0000      -0.799442       -21.7539
   4   2.0000      -0.614608       -16.7243
   5   2.0000      -0.541915       -14.7463
   6   2.0000      -0.532524       -14.4907
   7   2.0000      -0.444918       -12.1068
   8   2.0000      -0.373429       -10.1615
   9   0.0000       0.079613         2.1664
  10   0.0000       0.118075         3.2130
  11   0.0000       0.150208         4.0874
  12   0.0000       0.167666         4.5624
  13   0.0000       0.185582         5.0499

MULLIKEN ATOMIC CHARGES
-----------------------
   0 C :   -0.000079
   1 O :   -0.000006
   2 H :   -0.000007
   3 H :   -0.000215
   4 H :   -0.000021
   5 H :   -0.000051
   6 C :   -0.167673
   7 O :   -0.456053
   8 H :    0.307664
   9 H :    0.098904
  10 H :    0.114123
  11 H :    0.103415
Sum of atomic charges:   -0.0000000

LOEWDIN ATOMIC CHARGES
----------------------
   0 C :   -0.000894
   1 O :   -0.000009
   2 H :   -0.000001
   3 H :   -0.002074
   4 H :   -0.000006
   5 H :   -0.000051
   6 C :   -0.371361
   7 O :   -0.066165
   8 H :    0.150437
   9 H :    0.096453
  10 H :    0.099194
  11 H :    0.094478

  Mayer bond orders larger than 0.1
B(  6-C ,  7-O ) :   1.0138 B(  6-C ,  9-H ) :   0.9963 B(  6-C , 10-H ) :   0.9785
B(  6-C , 11-H ) :   0.9731 B(  7-O ,  8-H ) :   0.9132

Dispersion correction           -0.000222070
FINAL SINGLE POINT ENERGY      -115.731459988150

DIPOLE MOMENT
-------------
                                X             Y             Z
Electronic contribution:      1.70156       0.66649       0.02506
Nuclear contribution   :     -1.96994      -1.34288      -0.10370
                        -----------------------------------------
Total Dipole Moment    :     -0.26838      -0.67639      -0.07864
                        -----------------------------------------
Magnitude (a.u.)       :      0.73193
Magnitude (Debye)      :      1.86041

Rotational constants in cm-1:     4.403272     0.842486     0.803613
Rotational constants in MHz : 132006.778332 25257.104998 24091.720663

                             ****ORCA TERMINATED NORMALLY****
TOTAL RUN TIME: 0 days 0 hours 1 minutes 1 seconds 145 msec
