                         Program Version 4.1.2  - RELEASE  -
|  1> #Run DFT-D3 single point of the dimer
|  2> ! wB97X-D3 def2-TZVP TIGHTSCF CHELPG PMODEL PAL8
|  3>
|  4> %base "9-14_DFT_AB"
|  5>
|  6> %scf
|  7> MaxIter 1000
|  8> end
|  9>
| 10> * xyz 0 1
| 11>   C                      1.487376             -0.428665            4.266690
| 12>   O                      2.630056             -0.194025            5.057445
| 13>   H                      2.762876             -0.876611            5.745413
| 14>   H                      1.308714             0.285588             3.519412
| 15>   H                      1.633911             -1.323911            3.744331
| 16>   H                      0.553844             -0.624710            4.835763
| 17>   C                      5.356239             0.575091             7.861730
| 18>   O                      5.092971             1.322461             6.696982
| 19>   H                      4.968646             0.716571             5.949532
| 20>   H                      5.774221             1.189268             8.691426
| 21>   H                      4.499093             0.072589             8.225889
| 22>   H                      6.158912             -0.140826            7.547524
| 23> *
| 24>
| 25> #Run DFT-D3 single point of the molecule with dimer basis set
| 26> $new_job
| 27> %base "9-14_DFT_A"
| 28> ! wB97X-D3 def2-TZVP TIGHTSCF CHELPG PMODEL
| 29>
| 30> %scf
| 31> MaxIter 1000
| 32> end
| 33>
| 34> * xyz 0 1
| 35>   C                      1.487376             -0.428665            4.266690
| 36>   O                      2.630056             -0.194025            5.057445
| 37>   H                      2.762876             -0.876611            5.745413
| 38>   H                      1.308714             0.285588             3.519412
| 39>   H                      1.633911             -1.323911            3.744331
| 40>   H                      0.553844             -0.624710            4.835763
| 41>   C                    : 5.356239             0.575091             7.861730
| 42>   O                    : 5.092971             1.322461             6.696982
| 43>   H                    : 4.968646             0.716571             5.949532
| 44>   H                    : 5.774221             1.189268             8.691426
| 45>   H                    : 4.499093             0.072589             8.225889
| 46>   H                    : 6.158912             -0.140826            7.547524
| 47> *
| 48>
| 49> #Run DFT-D3 single point of the particle with dimer basis set
| 50> $new_job
| 51> %base "9-14_DFT_B"
| 52> ! wB97X-D3 def2-TZVP TIGHTSCF CHELPG PMODEL
| 53>
| 54> %scf
| 55> MaxIter 1000
| 56> end
| 57>
| 58> * xyz 0 1
| 59>   C                    : 1.487376             -0.428665            4.266690
| 60>   O                    : 2.630056             -0.194025            5.057445
| 61>   H                    : 2.762876             -0.876611            5.745413
| 62>   H                    : 1.308714             0.285588             3.519412
| 63>   H                    : 1.633911             -1.323911            3.744331
| 64>   H                    : 0.553844             -0.624710            4.835763
| 65>   C                      5.356239             0.575091             7.861730
| 66>   O                      5.092971             1.322461             6.696982
| 67>   H                      4.968646             0.716571             5.949532
| 68>   H                      5.774221             1.189268             8.691426
| 69>   H                      4.499093             0.072589             8.225889
| 70>   H                      6.158912             -0.140826            7.547524
| 71> *
| 72>
| 73>                          ****END OF INPUT****
 Total Charge           Charge          ....    0
 Multiplicity           Mult            ....    1
 Number of Electrons    NEL             ....   36
Dispersion correction           -0.001385556
FINAL SINGLE POINT ENERGY      -231.463941816213
Dispersion correction           -0.000243512
FINAL SINGLE POINT ENERGY      -115.729748021615

CARTESIAN COORDINATES (ANGSTROEM)
---------------------------------
  C      1.487376   -0.428665    4.266690
  O      2.630056   -0.194025    5.057445
  H      2.762876   -0.876611    5.745413
  H      1.308714    0.285588    3.519412
  H      1.633911   -1.323911    3.744331
  H      0.553844   -0.624710    4.835763
  C      5.356239    0.575091    7.861730
  O      5.092971    1.322461    6.696982
  H      4.968646    0.716571    5.949532
  H      5.774221    1.189268    8.691426
  H      4.499093    0.072589    8.225889
  H      6.158912   -0.140826    7.547524

 Multiplicity           Mult            ....    1
 Number of Electrons    NEL             ....   18
 Basis Dimension        Dim             ....  172

ORBITAL ENERGIES
----------------

  NO   OCC          E(Eh)            E(eV)
   0   2.0000     -19.228349      -523.2300
   1   2.0000     -10.313943      -280.6566
   2   2.0000      -1.134768       -30.8786
   3   2.0000      -0.793115       -21.5818
   4   2.0000      -0.607149       -16.5214
   5   2.0000      -0.549641       -14.9565
   6   2.0000      -0.530187       -14.4271
   7   2.0000      -0.424465       -11.5503
   8   2.0000      -0.372303       -10.1309
   9   0.0000       0.077721         2.1149
  10   0.0000       0.116962         3.1827
  11   0.0000       0.152498         4.1497
  12   0.0000       0.170998         4.6531
  13   0.0000       0.196513         5.3474

MULLIKEN ATOMIC CHARGES
-----------------------
   0 C :   -0.001016
   1 O :   -0.002691
   2 H :   -0.000823
   3 H :    0.000071
   4 H :    0.000018
   5 H :    0.000021
   6 C :   -0.164079
   7 O :   -0.478795
   8 H :    0.319453
   9 H :    0.120711
  10 H :    0.107590
  11 H :    0.099541
Sum of atomic charges:   -0.0000000

LOEWDIN ATOMIC CHARGES
----------------------
   0 C :   -0.000354
   1 O :   -0.004598
   2 H :   -0.001495
   3 H :   -0.000007
   4 H :   -0.000012
   5 H :   -0.000008
   6 C :   -0.387853
   7 O :   -0.080046
   8 H :    0.174599
   9 H :    0.112287
  10 H :    0.085291
  11 H :    0.102196

  Mayer bond orders larger than 0.1
B(  6-C ,  7-O ) :   0.9958 B(  6-C ,  9-H ) :   0.9701 B(  6-C , 10-H ) :   0.9686
B(  6-C , 11-H ) :   0.9946 B(  7-O ,  8-H ) :   0.8945

Dispersion correction           -0.000228374
FINAL SINGLE POINT ENERGY      -115.732651484908

DIPOLE MOMENT
-------------
                                X             Y             Z
Electronic contribution:     -0.44101       1.10082      -1.32278
Nuclear contribution   :      0.47162      -1.77418       1.32752
                        -----------------------------------------
Total Dipole Moment    :      0.03060      -0.67335       0.00474
                        -----------------------------------------
Magnitude (a.u.)       :      0.67407
Magnitude (Debye)      :      1.71334

Rotational constants in cm-1:     4.256391     0.836598     0.807824
Rotational constants in MHz : 127603.396536 25080.574443 24217.939613

                             ****ORCA TERMINATED NORMALLY****
TOTAL RUN TIME: 0 days 0 hours 0 minutes 42 seconds 236 msec
