                         Program Version 4.1.2  - RELEASE  -
|  1> #Run DFT-D3 single point of the dimer
|  2> ! wB97X-D3 def2-TZVP TIGHTSCF CHELPG PMODEL PAL8
|  3>
|  4> %base "21-12_DFT_AB"
|  5>
|  6> %scf
|  7> MaxIter 1000
|  8> end
|  9>
| 10> * xyz 0 1
| 11>   C                      7.010154             -0.039045            -9.433605
| 12>   O                      8.270154             0.587972             -9.839625
| 13>   H                      8.487820             0.297724             -10.722834
| 14>   H                      6.245528             0.058010             -10.219982
| 15>   H                      7.161661             -1.110750            -9.489318
| 16>   H                      6.696794             0.214839             -8.443639
| 17>   C                      11.474556            2.102910             -9.297509
| 18>   O                      10.307835            2.200152             -8.489772
| 19>   H                      9.766941             1.402733             -8.572671
| 20>   H                      11.357470            1.455794             -10.216754
| 21>   H                      11.682326            3.060955             -9.649247
| 22>   H                      12.259209            1.769761             -8.610688
| 23> *
| 24>
| 25> #Run DFT-D3 single point of the molecule with dimer basis set
| 26> $new_job
| 27> %base "21-12_DFT_A"
| 28> ! wB97X-D3 def2-TZVP TIGHTSCF CHELPG PMODEL
| 29>
| 30> %scf
| 31> MaxIter 1000
| 32> end
| 33>
| 34> * xyz 0 1
| 35>   C                      7.010154             -0.039045            -9.433605
| 36>   O                      8.270154             0.587972             -9.839625
| 37>   H                      8.487820             0.297724             -10.722834
| 38>   H                      6.245528             0.058010             -10.219982
| 39>   H                      7.161661             -1.110750            -9.489318
| 40>   H                      6.696794             0.214839             -8.443639
| 41>   C                    : 11.474556            2.102910             -9.297509
| 42>   O                    : 10.307835            2.200152             -8.489772
| 43>   H                    : 9.766941             1.402733             -8.572671
| 44>   H                    : 11.357470            1.455794             -10.216754
| 45>   H                    : 11.682326            3.060955             -9.649247
| 46>   H                    : 12.259209            1.769761             -8.610688
| 47> *
| 48>
| 49> #Run DFT-D3 single point of the particle with dimer basis set
| 50> $new_job
| 51> %base "21-12_DFT_B"
| 52> ! wB97X-D3 def2-TZVP TIGHTSCF CHELPG PMODEL
| 53>
| 54> %scf
| 55> MaxIter 1000
| 56> end
| 57>
| 58> * xyz 0 1
| 59>   C                    : 7.010154             -0.039045            -9.433605
| 60>   O                    : 8.270154             0.587972             -9.839625
| 61>   H                    : 8.487820             0.297724             -10.722834
| 62>   H                    : 6.245528             0.058010             -10.219982
| 63>   H                    : 7.161661             -1.110750            -9.489318
| 64>   H                    : 6.696794             0.214839             -8.443639
| 65>   C                      11.474556            2.102910             -9.297509
| 66>   O                      10.307835            2.200152             -8.489772
| 67>   H                      9.766941             1.402733             -8.572671
| 68>   H                      11.357470            1.455794             -10.216754
| 69>   H                      11.682326            3.060955             -9.649247
| 70>   H                      12.259209            1.769761             -8.610688
| 71> *
| 72>
| 73>                          ****END OF INPUT****
 Total Charge           Charge          ....    0
 Multiplicity           Mult            ....    1
 Number of Electrons    NEL             ....   36
Dispersion correction           -0.001593839
FINAL SINGLE POINT ENERGY      -231.467327864644
Dispersion correction           -0.000245159
FINAL SINGLE POINT ENERGY      -115.729718775490

CARTESIAN COORDINATES (ANGSTROEM)
---------------------------------
  C      7.010154   -0.039045   -9.433605
  O      8.270154    0.587972   -9.839625
  H      8.487820    0.297724  -10.722834
  H      6.245528    0.058010  -10.219982
  H      7.161661   -1.110750   -9.489318
  H      6.696794    0.214839   -8.443639
  C     11.474556    2.102910   -9.297509
  O     10.307835    2.200152   -8.489772
  H      9.766941    1.402733   -8.572671
  H     11.357470    1.455794  -10.216754
  H     11.682326    3.060955   -9.649247
  H     12.259209    1.769761   -8.610688

 Multiplicity           Mult            ....    1
 Number of Electrons    NEL             ....   18
 Basis Dimension        Dim             ....  172

ORBITAL ENERGIES
----------------

  NO   OCC          E(Eh)            E(eV)
   0   2.0000     -19.227034      -523.1942
   1   2.0000     -10.311318      -280.5852
   2   2.0000      -1.129384       -30.7321
   3   2.0000      -0.797366       -21.6974
   4   2.0000      -0.604135       -16.4394
   5   2.0000      -0.549126       -14.9425
   6   2.0000      -0.523437       -14.2435
   7   2.0000      -0.431113       -11.7312
   8   2.0000      -0.371610       -10.1120
   9   0.0000       0.071558         1.9472
  10   0.0000       0.126538         3.4433
  11   0.0000       0.150364         4.0916
  12   0.0000       0.168496         4.5850
  13   0.0000       0.192359         5.2344

MULLIKEN ATOMIC CHARGES
-----------------------
   0 C :   -0.002469
   1 O :   -0.005422
   2 H :   -0.000221
   3 H :    0.000079
   4 H :    0.000079
   5 H :    0.000069
   6 C :   -0.156069
   7 O :   -0.482865
   8 H :    0.316913
   9 H :    0.101975
  10 H :    0.117301
  11 H :    0.110630
Sum of atomic charges:    0.0000000

LOEWDIN ATOMIC CHARGES
----------------------
   0 C :   -0.001903
   1 O :   -0.015114
   2 H :   -0.001110
   3 H :   -0.000042
   4 H :   -0.000039
   5 H :   -0.000124
   6 C :   -0.371524
   7 O :   -0.081232
   8 H :    0.173481
   9 H :    0.103857
  10 H :    0.092882
  11 H :    0.100868

  Mayer bond orders larger than 0.1
B(  6-C ,  7-O ) :   0.9890 B(  6-C ,  9-H ) :   0.9725 B(  6-C , 10-H ) :   0.9736
B(  6-C , 11-H ) :   0.9856 B(  7-O ,  8-H ) :   0.8994

Dispersion correction           -0.000247817
FINAL SINGLE POINT ENERGY      -115.732342013142

DIPOLE MOMENT
-------------
                                X             Y             Z
Electronic contribution:     -1.36485       0.25628       0.99936
Nuclear contribution   :      1.49535      -0.77361      -1.39223
                        -----------------------------------------
Total Dipole Moment    :      0.13050      -0.51733      -0.39287
                        -----------------------------------------
Magnitude (a.u.)       :      0.66258
Magnitude (Debye)      :      1.68414

Rotational constants in cm-1:     4.263815     0.826597     0.800892
Rotational constants in MHz : 127825.959652 24780.742091 24010.140605

                             ****ORCA TERMINATED NORMALLY****
TOTAL RUN TIME: 0 days 0 hours 1 minutes 2 seconds 8 msec
