                         Program Version 4.1.2  - RELEASE  -
|  1> #Run DFT-D3 single point of the dimer
|  2> ! wB97X-D3 def2-TZVP TIGHTSCF CHELPG PMODEL PAL8
|  3>
|  4> %base "21-129_DFT_AB"
|  5>
|  6> %scf
|  7> MaxIter 1000
|  8> end
|  9>
| 10> * xyz 0 1
| 11>   C                      -5.919274            -3.266028            -9.765933
| 12>   O                      -7.007712            -2.477800            -10.131426
| 13>   H                      -7.419284            -2.264709            -9.271346
| 14>   H                      -5.092639            -3.122663            -10.527099
| 15>   H                      -5.501222            -2.933932            -8.783267
| 16>   H                      -6.205399            -4.343898            -9.720369
| 17>   C                      -6.785721            -2.843812            -5.782350
| 18>   O                      -7.433503            -2.616658            -7.021264
| 19>   H                      -8.352926            -2.300453            -6.878506
| 20>   H                      -6.414651            -1.937600            -5.388781
| 21>   H                      -7.427972            -3.295129            -4.999299
| 22>   H                      -5.988792            -3.495680            -5.886320
| 23> *
| 24>
| 25> #Run DFT-D3 single point of the molecule with dimer basis set
| 26> $new_job
| 27> %base "21-129_DFT_A"
| 28> ! wB97X-D3 def2-TZVP TIGHTSCF CHELPG PMODEL
| 29>
| 30> %scf
| 31> MaxIter 1000
| 32> end
| 33>
| 34> * xyz 0 1
| 35>   C                      -5.919274            -3.266028            -9.765933
| 36>   O                      -7.007712            -2.477800            -10.131426
| 37>   H                      -7.419284            -2.264709            -9.271346
| 38>   H                      -5.092639            -3.122663            -10.527099
| 39>   H                      -5.501222            -2.933932            -8.783267
| 40>   H                      -6.205399            -4.343898            -9.720369
| 41>   C                    : -6.785721            -2.843812            -5.782350
| 42>   O                    : -7.433503            -2.616658            -7.021264
| 43>   H                    : -8.352926            -2.300453            -6.878506
| 44>   H                    : -6.414651            -1.937600            -5.388781
| 45>   H                    : -7.427972            -3.295129            -4.999299
| 46>   H                    : -5.988792            -3.495680            -5.886320
| 47> *
| 48>
| 49> #Run DFT-D3 single point of the particle with dimer basis set
| 50> $new_job
| 51> %base "21-129_DFT_B"
| 52> ! wB97X-D3 def2-TZVP TIGHTSCF CHELPG PMODEL
| 53>
| 54> %scf
| 55> MaxIter 1000
| 56> end
| 57>
| 58> * xyz 0 1
| 59>   C                    : -5.919274            -3.266028            -9.765933
| 60>   O                    : -7.007712            -2.477800            -10.131426
| 61>   H                    : -7.419284            -2.264709            -9.271346
| 62>   H                    : -5.092639            -3.122663            -10.527099
| 63>   H                    : -5.501222            -2.933932            -8.783267
| 64>   H                    : -6.205399            -4.343898            -9.720369
| 65>   C                      -6.785721            -2.843812            -5.782350
| 66>   O                      -7.433503            -2.616658            -7.021264
| 67>   H                      -8.352926            -2.300453            -6.878506
| 68>   H                      -6.414651            -1.937600            -5.388781
| 69>   H                      -7.427972            -3.295129            -4.999299
| 70>   H                      -5.988792            -3.495680            -5.886320
| 71> *
| 72>
| 73>                          ****END OF INPUT****
 Total Charge           Charge          ....    0
 Multiplicity           Mult            ....    1
 Number of Electrons    NEL             ....   36
Dispersion correction           -0.001909984
FINAL SINGLE POINT ENERGY      -231.472372019917
Dispersion correction           -0.000230944
FINAL SINGLE POINT ENERGY      -115.733386562057

CARTESIAN COORDINATES (ANGSTROEM)
---------------------------------
  C     -5.919274   -3.266028   -9.765933
  O     -7.007712   -2.477800  -10.131426
  H     -7.419284   -2.264709   -9.271346
  H     -5.092639   -3.122663  -10.527099
  H     -5.501222   -2.933932   -8.783267
  H     -6.205399   -4.343898   -9.720369
  C     -6.785721   -2.843812   -5.782350
  O     -7.433503   -2.616658   -7.021264
  H     -8.352926   -2.300453   -6.878506
  H     -6.414651   -1.937600   -5.388781
  H     -7.427972   -3.295129   -4.999299
  H     -5.988792   -3.495680   -5.886320

 Multiplicity           Mult            ....    1
 Number of Electrons    NEL             ....   18
 Basis Dimension        Dim             ....  172

ORBITAL ENERGIES
----------------

  NO   OCC          E(Eh)            E(eV)
   0   2.0000     -19.231614      -523.3188
   1   2.0000     -10.304199      -280.3915
   2   2.0000      -1.129295       -30.7297
   3   2.0000      -0.803441       -21.8627
   4   2.0000      -0.609175       -16.5765
   5   2.0000      -0.545979       -14.8568
   6   2.0000      -0.530105       -14.4249
   7   2.0000      -0.432130       -11.7589
   8   2.0000      -0.373850       -10.1730
   9   0.0000       0.100283         2.7288
  10   0.0000       0.127802         3.4777
  11   0.0000       0.150284         4.0894
  12   0.0000       0.191916         5.2223
  13   0.0000       0.199193         5.4203

MULLIKEN ATOMIC CHARGES
-----------------------
   0 C :    0.006113
   1 O :   -0.000315
   2 H :   -0.009106
   3 H :   -0.000282
   4 H :   -0.004694
   5 H :   -0.001780
   6 C :   -0.154459
   7 O :   -0.478639
   8 H :    0.318267
   9 H :    0.100202
  10 H :    0.101392
  11 H :    0.123301
Sum of atomic charges:    0.0000000

LOEWDIN ATOMIC CHARGES
----------------------
   0 C :   -0.010756
   1 O :   -0.001881
   2 H :   -0.018073
   3 H :   -0.000100
   4 H :   -0.005028
   5 H :   -0.000672
   6 C :   -0.370809
   7 O :   -0.059738
   8 H :    0.183034
   9 H :    0.088276
  10 H :    0.100916
  11 H :    0.094832

  Mayer bond orders larger than 0.1
B(  6-C ,  7-O ) :   0.9955 B(  6-C ,  9-H ) :   0.9802 B(  6-C , 10-H ) :   0.9748
B(  6-C , 11-H ) :   0.9772 B(  7-O ,  8-H ) :   0.8907

Dispersion correction           -0.000247594
FINAL SINGLE POINT ENERGY      -115.732615204537

DIPOLE MOMENT
-------------
                                X             Y             Z
Electronic contribution:     -0.66540       0.23736      -1.68162
Nuclear contribution   :      0.35537      -0.14004       2.29301
                        -----------------------------------------
Total Dipole Moment    :     -0.31003       0.09732       0.61139
                        -----------------------------------------
Magnitude (a.u.)       :      0.69238
Magnitude (Debye)      :      1.75988

Rotational constants in cm-1:     4.528570     0.824593     0.796146
Rotational constants in MHz : 135763.116331 24720.682069 23867.859451

                             ****ORCA TERMINATED NORMALLY****
TOTAL RUN TIME: 0 days 0 hours 1 minutes 3 seconds 712 msec
