                         Program Version 4.1.2  - RELEASE  -
|  1> #Run DFT-D3 single point of the dimer
|  2> ! wB97X-D3 def2-TZVP TIGHTSCF CHELPG PMODEL PAL8
|  3>
|  4> %base "12-117_DFT_AB"
|  5>
|  6> %scf
|  7> MaxIter 1000
|  8> end
|  9>
| 10> * xyz 0 1
| 11>   C                      0.458656             -0.930274            -4.011846
| 12>   O                      1.515919             -0.989407            -3.097757
| 13>   H                      2.343066             -1.128490            -3.561394
| 14>   H                      0.659038             -0.054227            -4.714166
| 15>   H                      0.496070             -1.799020            -4.676867
| 16>   H                      -0.554769            -0.926448            -3.628725
| 17>   C                      3.238271             1.333997             -1.199064
| 18>   O                      2.889391             -0.025859            -0.848731
| 19>   H                      2.072859             -0.201433            -1.398011
| 20>   H                      3.409819             1.369507             -2.252393
| 21>   H                      2.501612             2.119326             -0.895392
| 22>   H                      4.174190             1.637378             -0.678773
| 23> *
| 24>
| 25> #Run DFT-D3 single point of the molecule with dimer basis set
| 26> $new_job
| 27> %base "12-117_DFT_A"
| 28> ! wB97X-D3 def2-TZVP TIGHTSCF CHELPG PMODEL
| 29>
| 30> %scf
| 31> MaxIter 1000
| 32> end
| 33>
| 34> * xyz 0 1
| 35>   C                      0.458656             -0.930274            -4.011846
| 36>   O                      1.515919             -0.989407            -3.097757
| 37>   H                      2.343066             -1.128490            -3.561394
| 38>   H                      0.659038             -0.054227            -4.714166
| 39>   H                      0.496070             -1.799020            -4.676867
| 40>   H                      -0.554769            -0.926448            -3.628725
| 41>   C                    : 3.238271             1.333997             -1.199064
| 42>   O                    : 2.889391             -0.025859            -0.848731
| 43>   H                    : 2.072859             -0.201433            -1.398011
| 44>   H                    : 3.409819             1.369507             -2.252393
| 45>   H                    : 2.501612             2.119326             -0.895392
| 46>   H                    : 4.174190             1.637378             -0.678773
| 47> *
| 48>
| 49> #Run DFT-D3 single point of the particle with dimer basis set
| 50> $new_job
| 51> %base "12-117_DFT_B"
| 52> ! wB97X-D3 def2-TZVP TIGHTSCF CHELPG PMODEL
| 53>
| 54> %scf
| 55> MaxIter 1000
| 56> end
| 57>
| 58> * xyz 0 1
| 59>   C                    : 0.458656             -0.930274            -4.011846
| 60>   O                    : 1.515919             -0.989407            -3.097757
| 61>   H                    : 2.343066             -1.128490            -3.561394
| 62>   H                    : 0.659038             -0.054227            -4.714166
| 63>   H                    : 0.496070             -1.799020            -4.676867
| 64>   H                    : -0.554769            -0.926448            -3.628725
| 65>   C                      3.238271             1.333997             -1.199064
| 66>   O                      2.889391             -0.025859            -0.848731
| 67>   H                      2.072859             -0.201433            -1.398011
| 68>   H                      3.409819             1.369507             -2.252393
| 69>   H                      2.501612             2.119326             -0.895392
| 70>   H                      4.174190             1.637378             -0.678773
| 71> *
| 72>
| 73>                          ****END OF INPUT****
 Total Charge           Charge          ....    0
 Multiplicity           Mult            ....    1
 Number of Electrons    NEL             ....   36
Dispersion correction           -0.001702827
FINAL SINGLE POINT ENERGY      -231.471306073683
Dispersion correction           -0.000231921
FINAL SINGLE POINT ENERGY      -115.730966424743

CARTESIAN COORDINATES (ANGSTROEM)
---------------------------------
  C      0.458656   -0.930274   -4.011846
  O      1.515919   -0.989407   -3.097757
  H      2.343066   -1.128490   -3.561394
  H      0.659038   -0.054227   -4.714166
  H      0.496070   -1.799020   -4.676867
  H     -0.554769   -0.926448   -3.628725
  C      3.238271    1.333997   -1.199064
  O      2.889391   -0.025859   -0.848731
  H      2.072859   -0.201433   -1.398011
  H      3.409819    1.369507   -2.252393
  H      2.501612    2.119326   -0.895392
  H      4.174190    1.637378   -0.678773

 Multiplicity           Mult            ....    1
 Number of Electrons    NEL             ....   18
 Basis Dimension        Dim             ....  172

ORBITAL ENERGIES
----------------

  NO   OCC          E(Eh)            E(eV)
   0   2.0000     -19.237649      -523.4831
   1   2.0000     -10.317208      -280.7455
   2   2.0000      -1.123276       -30.5659
   3   2.0000      -0.791366       -21.5342
   4   2.0000      -0.598930       -16.2977
   5   2.0000      -0.543885       -14.7999
   6   2.0000      -0.518037       -14.0965
   7   2.0000      -0.437696       -11.9103
   8   2.0000      -0.376662       -10.2495
   9   0.0000       0.069397         1.8884
  10   0.0000       0.128139         3.4868
  11   0.0000       0.146419         3.9843
  12   0.0000       0.162916         4.4332
  13   0.0000       0.189962         5.1691

MULLIKEN ATOMIC CHARGES
-----------------------
   0 C :   -0.001569
   1 O :   -0.006802
   2 H :   -0.002308
   3 H :    0.000027
   4 H :    0.000026
   5 H :    0.000102
   6 C :   -0.185985
   7 O :   -0.461015
   8 H :    0.315085
   9 H :    0.115509
  10 H :    0.107507
  11 H :    0.119422
Sum of atomic charges:    0.0000000

LOEWDIN ATOMIC CHARGES
----------------------
   0 C :   -0.002096
   1 O :   -0.022790
   2 H :   -0.003921
   3 H :   -0.000051
   4 H :   -0.000065
   5 H :   -0.000073
   6 C :   -0.372977
   7 O :   -0.100620
   8 H :    0.200012
   9 H :    0.090740
  10 H :    0.099573
  11 H :    0.112269

  Mayer bond orders larger than 0.1
B(  6-C ,  7-O ) :   1.0038 B(  6-C ,  9-H ) :   0.9763 B(  6-C , 10-H ) :   0.9712
B(  6-C , 11-H ) :   0.9733 B(  7-O ,  8-H ) :   0.8997

Dispersion correction           -0.000252492
FINAL SINGLE POINT ENERGY      -115.732909822656

DIPOLE MOMENT
-------------
                                X             Y             Z
Electronic contribution:     -0.32536      -1.75272       0.53722
Nuclear contribution   :     -0.00016       2.20095      -1.00492
                        -----------------------------------------
Total Dipole Moment    :     -0.32552       0.44822      -0.46770
                        -----------------------------------------
Magnitude (a.u.)       :      0.72499
Magnitude (Debye)      :      1.84279

Rotational constants in cm-1:     4.183550     0.799856     0.770364
Rotational constants in MHz : 125419.681124 23979.083321 23094.936060

                             ****ORCA TERMINATED NORMALLY****
TOTAL RUN TIME: 0 days 0 hours 1 minutes 13 seconds 545 msec
