                         Program Version 4.1.2  - RELEASE  -
|  1> #Run DFT-D3 single point of the dimer
|  2> ! wB97X-D3 def2-TZVP TIGHTSCF CHELPG PMODEL PAL8
|  3>
|  4> %base "5-93_DFT_AB"
|  5>
|  6> %scf
|  7> MaxIter 1000
|  8> end
|  9>
| 10> * xyz 0 1
| 11>   C                      3.523408             -5.923778            2.070169
| 12>   O                      3.834441             -4.576411            1.836301
| 13>   H                      4.763971             -4.562166            1.509061
| 14>   H                      2.729272             -5.991882            2.856450
| 15>   H                      3.330591             -6.484672            1.252621
| 16>   H                      4.446997             -6.457884            2.510366
| 17>   C                      2.151310             -9.375479            1.494125
| 18>   O                      1.398269             -9.213215            2.665177
| 19>   H                      0.489051             -9.614509            2.487930
| 20>   H                      3.081860             -8.821404            1.550915
| 21>   H                      2.262270             -10.438042           1.210438
| 22>   H                      1.555600             -8.862164            0.704413
| 23> *
| 24>
| 25> #Run DFT-D3 single point of the molecule with dimer basis set
| 26> $new_job
| 27> %base "5-93_DFT_A"
| 28> ! wB97X-D3 def2-TZVP TIGHTSCF CHELPG PMODEL
| 29>
| 30> %scf
| 31> MaxIter 1000
| 32> end
| 33>
| 34> * xyz 0 1
| 35>   C                      3.523408             -5.923778            2.070169
| 36>   O                      3.834441             -4.576411            1.836301
| 37>   H                      4.763971             -4.562166            1.509061
| 38>   H                      2.729272             -5.991882            2.856450
| 39>   H                      3.330591             -6.484672            1.252621
| 40>   H                      4.446997             -6.457884            2.510366
| 41>   C                    : 2.151310             -9.375479            1.494125
| 42>   O                    : 1.398269             -9.213215            2.665177
| 43>   H                    : 0.489051             -9.614509            2.487930
| 44>   H                    : 3.081860             -8.821404            1.550915
| 45>   H                    : 2.262270             -10.438042           1.210438
| 46>   H                    : 1.555600             -8.862164            0.704413
| 47> *
| 48>
| 49> #Run DFT-D3 single point of the particle with dimer basis set
| 50> $new_job
| 51> %base "5-93_DFT_B"
| 52> ! wB97X-D3 def2-TZVP TIGHTSCF CHELPG PMODEL
| 53>
| 54> %scf
| 55> MaxIter 1000
| 56> end
| 57>
| 58> * xyz 0 1
| 59>   C                    : 3.523408             -5.923778            2.070169
| 60>   O                    : 3.834441             -4.576411            1.836301
| 61>   H                    : 4.763971             -4.562166            1.509061
| 62>   H                    : 2.729272             -5.991882            2.856450
| 63>   H                    : 3.330591             -6.484672            1.252621
| 64>   H                    : 4.446997             -6.457884            2.510366
| 65>   C                      2.151310             -9.375479            1.494125
| 66>   O                      1.398269             -9.213215            2.665177
| 67>   H                      0.489051             -9.614509            2.487930
| 68>   H                      3.081860             -8.821404            1.550915
| 69>   H                      2.262270             -10.438042           1.210438
| 70>   H                      1.555600             -8.862164            0.704413
| 71> *
| 72>
| 73>                          ****END OF INPUT****
 Total Charge           Charge          ....    0
 Multiplicity           Mult            ....    1
 Number of Electrons    NEL             ....   36
Dispersion correction           -0.001574791
FINAL SINGLE POINT ENERGY      -231.458592070551
Dispersion correction           -0.000230739
FINAL SINGLE POINT ENERGY      -115.726390256737

CARTESIAN COORDINATES (ANGSTROEM)
---------------------------------
  C      3.523408   -5.923778    2.070169
  O      3.834441   -4.576411    1.836301
  H      4.763971   -4.562166    1.509061
  H      2.729272   -5.991882    2.856450
  H      3.330591   -6.484672    1.252621
  H      4.446997   -6.457884    2.510366
  C      2.151310   -9.375479    1.494125
  O      1.398269   -9.213215    2.665177
  H      0.489051   -9.614509    2.487930
  H      3.081860   -8.821404    1.550915
  H      2.262270  -10.438042    1.210438
  H      1.555600   -8.862164    0.704413

 Multiplicity           Mult            ....    1
 Number of Electrons    NEL             ....   18
 Basis Dimension        Dim             ....  172

ORBITAL ENERGIES
----------------

  NO   OCC          E(Eh)            E(eV)
   0   2.0000     -19.232020      -523.3299
   1   2.0000     -10.313808      -280.6530
   2   2.0000      -1.131691       -30.7949
   3   2.0000      -0.786903       -21.4127
   4   2.0000      -0.604830       -16.4583
   5   2.0000      -0.543698       -14.7948
   6   2.0000      -0.530018       -14.4225
   7   2.0000      -0.430615       -11.7176
   8   2.0000      -0.367427        -9.9982
   9   0.0000       0.088836         2.4173
  10   0.0000       0.110709         3.0125
  11   0.0000       0.155945         4.2435
  12   0.0000       0.174753         4.7553
  13   0.0000       0.190659         5.1881

MULLIKEN ATOMIC CHARGES
-----------------------
   0 C :    0.005121
   1 O :    0.000049
   2 H :    0.000012
   3 H :   -0.001982
   4 H :   -0.003733
   5 H :   -0.000707
   6 C :   -0.166161
   7 O :   -0.476055
   8 H :    0.318365
   9 H :    0.125398
  10 H :    0.103748
  11 H :    0.095945
Sum of atomic charges:   -0.0000000

LOEWDIN ATOMIC CHARGES
----------------------
   0 C :   -0.004669
   1 O :   -0.000022
   2 H :   -0.000003
   3 H :   -0.000992
   4 H :   -0.003477
   5 H :   -0.000556
   6 C :   -0.399269
   7 O :   -0.092926
   8 H :    0.198423
   9 H :    0.108933
  10 H :    0.095393
  11 H :    0.099165

  Mayer bond orders larger than 0.1
B(  6-C ,  7-O ) :   0.9933 B(  6-C ,  9-H ) :   0.9696 B(  6-C , 10-H ) :   0.9686
B(  6-C , 11-H ) :   0.9906 B(  7-O ,  8-H ) :   0.8903

Dispersion correction           -0.000221387
FINAL SINGLE POINT ENERGY      -115.731346819145

DIPOLE MOMENT
-------------
                                X             Y             Z
Electronic contribution:     -0.67305       0.20072       1.64493
Nuclear contribution   :      0.40838      -0.49481      -2.20431
                        -----------------------------------------
Total Dipole Moment    :     -0.26467      -0.29409      -0.55938
                        -----------------------------------------
Magnitude (a.u.)       :      0.68516
Magnitude (Debye)      :      1.74154

Rotational constants in cm-1:     4.099018     0.848664     0.814195
Rotational constants in MHz : 122885.454151 25442.301936 24408.955259

                             ****ORCA TERMINATED NORMALLY****
TOTAL RUN TIME: 0 days 0 hours 0 minutes 43 seconds 626 msec
