                         Program Version 4.1.2  - RELEASE  -
|  1> #Run DFT-D3 single point of the dimer
|  2> ! wB97X-D3 def2-TZVP TIGHTSCF CHELPG PMODEL PAL8
|  3>
|  4> %base "14-215_DFT_AB"
|  5>
|  6> %scf
|  7> MaxIter 1000
|  8> end
|  9>
| 10> * xyz 0 1
| 11>   C                      6.831958             6.294291             6.415026
| 12>   O                      7.505123             6.261990             5.193583
| 13>   H                      8.148449             6.962906             5.154953
| 14>   H                      7.482049             6.064620             7.250410
| 15>   H                      6.397184             7.314095             6.694785
| 16>   H                      5.952161             5.499594             6.404224
| 17>   C                      6.362767             6.570693             1.856183
| 18>   O                      7.477303             5.865457             2.256548
| 19>   H                      7.355264             5.746036             3.215383
| 20>   H                      6.230040             7.373288             2.453346
| 21>   H                      6.401769             6.890055             0.787321
| 22>   H                      5.589501             5.954421             1.999027
| 23> *
| 24>
| 25> #Run DFT-D3 single point of the molecule with dimer basis set
| 26> $new_job
| 27> %base "14-215_DFT_A"
| 28> ! wB97X-D3 def2-TZVP TIGHTSCF CHELPG PMODEL
| 29>
| 30> %scf
| 31> MaxIter 1000
| 32> end
| 33>
| 34> * xyz 0 1
| 35>   C                      6.831958             6.294291             6.415026
| 36>   O                      7.505123             6.261990             5.193583
| 37>   H                      8.148449             6.962906             5.154953
| 38>   H                      7.482049             6.064620             7.250410
| 39>   H                      6.397184             7.314095             6.694785
| 40>   H                      5.952161             5.499594             6.404224
| 41>   C                    : 6.362767             6.570693             1.856183
| 42>   O                    : 7.477303             5.865457             2.256548
| 43>   H                    : 7.355264             5.746036             3.215383
| 44>   H                    : 6.230040             7.373288             2.453346
| 45>   H                    : 6.401769             6.890055             0.787321
| 46>   H                    : 5.589501             5.954421             1.999027
| 47> *
| 48>
| 49> #Run DFT-D3 single point of the particle with dimer basis set
| 50> $new_job
| 51> %base "14-215_DFT_B"
| 52> ! wB97X-D3 def2-TZVP TIGHTSCF CHELPG PMODEL
| 53>
| 54> %scf
| 55> MaxIter 1000
| 56> end
| 57>
| 58> * xyz 0 1
| 59>   C                    : 6.831958             6.294291             6.415026
| 60>   O                    : 7.505123             6.261990             5.193583
| 61>   H                    : 8.148449             6.962906             5.154953
| 62>   H                    : 7.482049             6.064620             7.250410
| 63>   H                    : 6.397184             7.314095             6.694785
| 64>   H                    : 5.952161             5.499594             6.404224
| 65>   C                      6.362767             6.570693             1.856183
| 66>   O                      7.477303             5.865457             2.256548
| 67>   H                      7.355264             5.746036             3.215383
| 68>   H                      6.230040             7.373288             2.453346
| 69>   H                      6.401769             6.890055             0.787321
| 70>   H                      5.589501             5.954421             1.999027
| 71> *
| 72>
| 73>                          ****END OF INPUT****
 Total Charge           Charge          ....    0
 Multiplicity           Mult            ....    1
 Number of Electrons    NEL             ....   36
Dispersion correction           -0.001613192
FINAL SINGLE POINT ENERGY      -231.459154446463
Dispersion correction           -0.000259673
FINAL SINGLE POINT ENERGY      -115.730802555065

CARTESIAN COORDINATES (ANGSTROEM)
---------------------------------
  C      6.831958    6.294291    6.415026
  O      7.505123    6.261990    5.193583
  H      8.148449    6.962906    5.154953
  H      7.482049    6.064620    7.250410
  H      6.397184    7.314095    6.694785
  H      5.952161    5.499594    6.404224
  C      6.362767    6.570693    1.856183
  O      7.477303    5.865457    2.256548
  H      7.355264    5.746036    3.215383
  H      6.230040    7.373288    2.453346
  H      6.401769    6.890055    0.787321
  H      5.589501    5.954421    1.999027

 Multiplicity           Mult            ....    1
 Number of Electrons    NEL             ....   18
 Basis Dimension        Dim             ....  172

ORBITAL ENERGIES
----------------

  NO   OCC          E(Eh)            E(eV)
   0   2.0000     -19.226703      -523.1852
   1   2.0000     -10.290744      -280.0254
   2   2.0000      -1.146419       -31.1957
   3   2.0000      -0.801632       -21.8135
   4   2.0000      -0.619224       -16.8499
   5   2.0000      -0.562812       -15.3149
   6   2.0000      -0.531113       -14.4523
   7   2.0000      -0.434821       -11.8321
   8   2.0000      -0.369676       -10.0594
   9   0.0000       0.067896         1.8475
  10   0.0000       0.129254         3.5172
  11   0.0000       0.155704         4.2369
  12   0.0000       0.163943         4.4611
  13   0.0000       0.194023         5.2796

MULLIKEN ATOMIC CHARGES
-----------------------
   0 C :   -0.000623
   1 O :   -0.004148
   2 H :   -0.001824
   3 H :    0.000012
   4 H :   -0.000017
   5 H :   -0.000016
   6 C :   -0.153318
   7 O :   -0.471422
   8 H :    0.312733
   9 H :    0.101864
  10 H :    0.110045
  11 H :    0.106714
Sum of atomic charges:    0.0000000

LOEWDIN ATOMIC CHARGES
----------------------
   0 C :   -0.001336
   1 O :   -0.016046
   2 H :   -0.002676
   3 H :   -0.000036
   4 H :   -0.000026
   5 H :   -0.000078
   6 C :   -0.389660
   7 O :   -0.048861
   8 H :    0.188123
   9 H :    0.077293
  10 H :    0.116552
  11 H :    0.076752

  Mayer bond orders larger than 0.1
B(  6-C ,  7-O ) :   0.9866 B(  6-C ,  9-H ) :   0.9838 B(  6-C , 10-H ) :   0.9694
B(  6-C , 11-H ) :   0.9971 B(  7-O ,  8-H ) :   0.9032

Dispersion correction           -0.000179061
FINAL SINGLE POINT ENERGY      -115.720122935209

DIPOLE MOMENT
-------------
                                X             Y             Z
Electronic contribution:      1.44377      -0.84904       0.34865
Nuclear contribution   :     -1.97727       1.05479       0.09730
                        -----------------------------------------
Total Dipole Moment    :     -0.53350       0.20575       0.44595
                        -----------------------------------------
Magnitude (a.u.)       :      0.72514
Magnitude (Debye)      :      1.84315

Rotational constants in cm-1:     4.555213     0.894300     0.846899
Rotational constants in MHz : 136561.863774 26810.439858 25389.383604

                             ****ORCA TERMINATED NORMALLY****
TOTAL RUN TIME: 0 days 0 hours 1 minutes 10 seconds 465 msec
