                         Program Version 4.1.2  - RELEASE  -
|  1> #Run DFT-D3 single point of the dimer
|  2> ! wB97X-D3 def2-TZVP TIGHTSCF CHELPG PMODEL PAL8
|  3>
|  4> %base "20-27_DFT_AB"
|  5>
|  6> %scf
|  7> MaxIter 1000
|  8> end
|  9>
| 10> * xyz 0 1
| 11>   C                      7.022081             -8.326697            9.853911
| 12>   O                      7.322670             -8.141552            11.271273
| 13>   H                      6.715127             -8.811474            11.650271
| 14>   H                      7.204798             -7.429468            9.312744
| 15>   H                      7.707695             -9.087207            9.380179
| 16>   H                      5.996552             -8.662078            9.599881
| 17>   C                      7.696313             -10.211434           5.007463
| 18>   O                      7.958218             -9.042702            5.736758
| 19>   H                      8.873742             -9.166333            6.057190
| 20>   H                      8.414789             -10.235438           4.185334
| 21>   H                      7.970635             -11.061335           5.693218
| 22>   H                      6.696710             -10.332449           4.645116
| 23> *
| 24>
| 25> #Run DFT-D3 single point of the molecule with dimer basis set
| 26> $new_job
| 27> %base "20-27_DFT_A"
| 28> ! wB97X-D3 def2-TZVP TIGHTSCF CHELPG PMODEL
| 29>
| 30> %scf
| 31> MaxIter 1000
| 32> end
| 33>
| 34> * xyz 0 1
| 35>   C                      7.022081             -8.326697            9.853911
| 36>   O                      7.322670             -8.141552            11.271273
| 37>   H                      6.715127             -8.811474            11.650271
| 38>   H                      7.204798             -7.429468            9.312744
| 39>   H                      7.707695             -9.087207            9.380179
| 40>   H                      5.996552             -8.662078            9.599881
| 41>   C                    : 7.696313             -10.211434           5.007463
| 42>   O                    : 7.958218             -9.042702            5.736758
| 43>   H                    : 8.873742             -9.166333            6.057190
| 44>   H                    : 8.414789             -10.235438           4.185334
| 45>   H                    : 7.970635             -11.061335           5.693218
| 46>   H                    : 6.696710             -10.332449           4.645116
| 47> *
| 48>
| 49> #Run DFT-D3 single point of the particle with dimer basis set
| 50> $new_job
| 51> %base "20-27_DFT_B"
| 52> ! wB97X-D3 def2-TZVP TIGHTSCF CHELPG PMODEL
| 53>
| 54> %scf
| 55> MaxIter 1000
| 56> end
| 57>
| 58> * xyz 0 1
| 59>   C                    : 7.022081             -8.326697            9.853911
| 60>   O                    : 7.322670             -8.141552            11.271273
| 61>   H                    : 6.715127             -8.811474            11.650271
| 62>   H                    : 7.204798             -7.429468            9.312744
| 63>   H                    : 7.707695             -9.087207            9.380179
| 64>   H                    : 5.996552             -8.662078            9.599881
| 65>   C                      7.696313             -10.211434           5.007463
| 66>   O                      7.958218             -9.042702            5.736758
| 67>   H                      8.873742             -9.166333            6.057190
| 68>   H                      8.414789             -10.235438           4.185334
| 69>   H                      7.970635             -11.061335           5.693218
| 70>   H                      6.696710             -10.332449           4.645116
| 71> *
| 72>
| 73>                          ****END OF INPUT****
 Total Charge           Charge          ....    0
 Multiplicity           Mult            ....    1
 Number of Electrons    NEL             ....   36
Dispersion correction           -0.000904569
FINAL SINGLE POINT ENERGY      -231.462219909544
Dispersion correction           -0.000267013
FINAL SINGLE POINT ENERGY      -115.730388559572

CARTESIAN COORDINATES (ANGSTROEM)
---------------------------------
  C      7.022081   -8.326697    9.853911
  O      7.322670   -8.141552   11.271273
  H      6.715127   -8.811474   11.650271
  H      7.204798   -7.429468    9.312744
  H      7.707695   -9.087207    9.380179
  H      5.996552   -8.662078    9.599881
  C      7.696313  -10.211434    5.007463
  O      7.958218   -9.042702    5.736758
  H      8.873742   -9.166333    6.057190
  H      8.414789  -10.235438    4.185334
  H      7.970635  -11.061335    5.693218
  H      6.696710  -10.332449    4.645116

 Multiplicity           Mult            ....    1
 Number of Electrons    NEL             ....   18
 Basis Dimension        Dim             ....  172

ORBITAL ENERGIES
----------------

  NO   OCC          E(Eh)            E(eV)
   0   2.0000     -19.229865      -523.2712
   1   2.0000     -10.313750      -280.6514
   2   2.0000      -1.139405       -31.0048
   3   2.0000      -0.789985       -21.4966
   4   2.0000      -0.608102       -16.5473
   5   2.0000      -0.542845       -14.7716
   6   2.0000      -0.538827       -14.6622
   7   2.0000      -0.434781       -11.8310
   8   2.0000      -0.366866        -9.9829
   9   0.0000       0.088635         2.4119
  10   0.0000       0.113292         3.0828
  11   0.0000       0.156591         4.2611
  12   0.0000       0.179381         4.8812
  13   0.0000       0.192572         5.2401

MULLIKEN ATOMIC CHARGES
-----------------------
   0 C :    0.000687
   1 O :   -0.000062
   2 H :   -0.000024
   3 H :   -0.000408
   4 H :   -0.003136
   5 H :   -0.000169
   6 C :   -0.165190
   7 O :   -0.470333
   8 H :    0.319412
   9 H :    0.098733
  10 H :    0.095401
  11 H :    0.125089
Sum of atomic charges:    0.0000000

LOEWDIN ATOMIC CHARGES
----------------------
   0 C :   -0.001564
   1 O :   -0.000015
   2 H :   -0.000010
   3 H :   -0.000247
   4 H :   -0.001234
   5 H :   -0.000071
   6 C :   -0.393925
   7 O :   -0.082047
   8 H :    0.184258
   9 H :    0.093097
  10 H :    0.100212
  11 H :    0.101546

  Mayer bond orders larger than 0.1
B(  6-C ,  7-O ) :   0.9877 B(  6-C ,  9-H ) :   0.9819 B(  6-C , 10-H ) :   0.9883
B(  6-C , 11-H ) :   0.9686 B(  7-O ,  8-H ) :   0.8948

Dispersion correction           -0.000202963
FINAL SINGLE POINT ENERGY      -115.730813754400

DIPOLE MOMENT
-------------
                                X             Y             Z
Electronic contribution:     -0.01778       1.61399       0.80611
Nuclear contribution   :      0.47070      -2.14016      -0.90950
                        -----------------------------------------
Total Dipole Moment    :      0.45291      -0.52616      -0.10339
                        -----------------------------------------
Magnitude (a.u.)       :      0.70190
Magnitude (Debye)      :      1.78409

Rotational constants in cm-1:     4.174211     0.855014     0.818906
Rotational constants in MHz : 125139.694618 25632.687133 24550.173824

                             ****ORCA TERMINATED NORMALLY****
TOTAL RUN TIME: 0 days 0 hours 1 minutes 1 seconds 339 msec
