                         Program Version 4.1.2  - RELEASE  -
|  1> #Run DFT-D3 single point of the dimer
|  2> ! wB97X-D3 def2-TZVP TIGHTSCF CHELPG PMODEL PAL8
|  3>
|  4> %base "5-200_DFT_AB"
|  5>
|  6> %scf
|  7> MaxIter 1000
|  8> end
|  9>
| 10> * xyz 0 1
| 11>   C                      -0.177212            -3.464075            -5.008626
| 12>   O                      0.599243             -4.170282            -5.964657
| 13>   H                      0.221244             -3.985069            -6.835843
| 14>   H                      -0.052295            -2.377234            -5.075351
| 15>   H                      -1.279764            -3.683136            -5.182851
| 16>   H                      0.041622             -3.838165            -4.030560
| 17>   C                      2.145759             -7.640377            -5.295091
| 18>   O                      1.602418             -6.643994            -4.406657
| 19>   H                      1.492877             -5.865634            -4.983985
| 20>   H                      2.613263             -8.329677            -4.566801
| 21>   H                      1.370464             -8.215374            -5.818654
| 22>   H                      2.981365             -7.362654            -5.935000
| 23> *
| 24>
| 25> #Run DFT-D3 single point of the molecule with dimer basis set
| 26> $new_job
| 27> %base "5-200_DFT_A"
| 28> ! wB97X-D3 def2-TZVP TIGHTSCF CHELPG PMODEL
| 29>
| 30> %scf
| 31> MaxIter 1000
| 32> end
| 33>
| 34> * xyz 0 1
| 35>   C                      -0.177212            -3.464075            -5.008626
| 36>   O                      0.599243             -4.170282            -5.964657
| 37>   H                      0.221244             -3.985069            -6.835843
| 38>   H                      -0.052295            -2.377234            -5.075351
| 39>   H                      -1.279764            -3.683136            -5.182851
| 40>   H                      0.041622             -3.838165            -4.030560
| 41>   C                    : 2.145759             -7.640377            -5.295091
| 42>   O                    : 1.602418             -6.643994            -4.406657
| 43>   H                    : 1.492877             -5.865634            -4.983985
| 44>   H                    : 2.613263             -8.329677            -4.566801
| 45>   H                    : 1.370464             -8.215374            -5.818654
| 46>   H                    : 2.981365             -7.362654            -5.935000
| 47> *
| 48>
| 49> #Run DFT-D3 single point of the particle with dimer basis set
| 50> $new_job
| 51> %base "5-200_DFT_B"
| 52> ! wB97X-D3 def2-TZVP TIGHTSCF CHELPG PMODEL
| 53>
| 54> %scf
| 55> MaxIter 1000
| 56> end
| 57>
| 58> * xyz 0 1
| 59>   C                    : -0.177212            -3.464075            -5.008626
| 60>   O                    : 0.599243             -4.170282            -5.964657
| 61>   H                    : 0.221244             -3.985069            -6.835843
| 62>   H                    : -0.052295            -2.377234            -5.075351
| 63>   H                    : -1.279764            -3.683136            -5.182851
| 64>   H                    : 0.041622             -3.838165            -4.030560
| 65>   C                      2.145759             -7.640377            -5.295091
| 66>   O                      1.602418             -6.643994            -4.406657
| 67>   H                      1.492877             -5.865634            -4.983985
| 68>   H                      2.613263             -8.329677            -4.566801
| 69>   H                      1.370464             -8.215374            -5.818654
| 70>   H                      2.981365             -7.362654            -5.935000
| 71> *
| 72>
| 73>                          ****END OF INPUT****
 Total Charge           Charge          ....    0
 Multiplicity           Mult            ....    1
 Number of Electrons    NEL             ....   36
Dispersion correction           -0.001573089
FINAL SINGLE POINT ENERGY      -231.474849705984
Dispersion correction           -0.000240475
FINAL SINGLE POINT ENERGY      -115.735682412310

CARTESIAN COORDINATES (ANGSTROEM)
---------------------------------
  C     -0.177212   -3.464075   -5.008626
  O      0.599243   -4.170282   -5.964657
  H      0.221244   -3.985069   -6.835843
  H     -0.052295   -2.377234   -5.075351
  H     -1.279764   -3.683136   -5.182851
  H      0.041622   -3.838165   -4.030560
  C      2.145759   -7.640377   -5.295091
  O      1.602418   -6.643994   -4.406657
  H      1.492877   -5.865634   -4.983985
  H      2.613263   -8.329677   -4.566801
  H      1.370464   -8.215374   -5.818654
  H      2.981365   -7.362654   -5.935000

 Multiplicity           Mult            ....    1
 Number of Electrons    NEL             ....   18
 Basis Dimension        Dim             ....  172

ORBITAL ENERGIES
----------------

  NO   OCC          E(Eh)            E(eV)
   0   2.0000     -19.235807      -523.4329
   1   2.0000     -10.314937      -280.6837
   2   2.0000      -1.129550       -30.7366
   3   2.0000      -0.793645       -21.5962
   4   2.0000      -0.604908       -16.4604
   5   2.0000      -0.544791       -14.8245
   6   2.0000      -0.511688       -13.9237
   7   2.0000      -0.438295       -11.9266
   8   2.0000      -0.379051       -10.3145
   9   0.0000       0.074435         2.0255
  10   0.0000       0.128109         3.4860
  11   0.0000       0.151475         4.1218
  12   0.0000       0.167128         4.5478
  13   0.0000       0.190421         5.1816

MULLIKEN ATOMIC CHARGES
-----------------------
   0 C :   -0.003893
   1 O :   -0.000195
   2 H :    0.000009
   3 H :    0.000023
   4 H :    0.000419
   5 H :   -0.000056
   6 C :   -0.187655
   7 O :   -0.461884
   8 H :    0.308333
   9 H :    0.120026
  10 H :    0.108631
  11 H :    0.116241
Sum of atomic charges:   -0.0000000

LOEWDIN ATOMIC CHARGES
----------------------
   0 C :   -0.004621
   1 O :   -0.011962
   2 H :   -0.000598
   3 H :   -0.000081
   4 H :   -0.000069
   5 H :   -0.001216
   6 C :   -0.379971
   7 O :   -0.091041
   8 H :    0.181736
   9 H :    0.114178
  10 H :    0.097384
  11 H :    0.096260

  Mayer bond orders larger than 0.1
B(  6-C ,  7-O ) :   1.0000 B(  6-C ,  9-H ) :   0.9816 B(  6-C , 10-H ) :   0.9682
B(  6-C , 11-H ) :   0.9677 B(  7-O ,  8-H ) :   0.9081

Dispersion correction           -0.000261863
FINAL SINGLE POINT ENERGY      -115.731659156850

DIPOLE MOMENT
-------------
                                X             Y             Z
Electronic contribution:     -0.73545       1.28843       1.07248
Nuclear contribution   :      0.91156      -1.21359      -1.75985
                        -----------------------------------------
Total Dipole Moment    :      0.17611       0.07484      -0.68736
                        -----------------------------------------
Magnitude (a.u.)       :      0.71350
Magnitude (Debye)      :      1.81358

Rotational constants in cm-1:     4.230834     0.805623     0.783147
Rotational constants in MHz : 126837.208662 24151.979238 23478.161064

                             ****ORCA TERMINATED NORMALLY****
TOTAL RUN TIME: 0 days 0 hours 0 minutes 59 seconds 732 msec
