                         Program Version 4.1.2  - RELEASE  -
|  1> #Run DFT-D3 single point of the dimer
|  2> ! wB97X-D3 def2-TZVP TIGHTSCF CHELPG PMODEL PAL8
|  3>
|  4> %base "15-56_DFT_AB"
|  5>
|  6> %scf
|  7> MaxIter 1000
|  8> end
|  9>
| 10> * xyz 0 1
| 11>   C                      6.149197             0.279348             -9.433511
| 12>   O                      5.689921             -0.889510            -10.169131
| 13>   H                      5.935280             -1.668389            -9.656727
| 14>   H                      7.211657             0.500550             -9.393534
| 15>   H                      5.712407             1.245952             -9.815995
| 16>   H                      5.875382             0.154037             -8.369263
| 17>   C                      9.288198             -3.052421            -8.884761
| 18>   O                      8.371604             -2.728053            -7.886528
| 19>   H                      8.713731             -3.126191            -7.071835
| 20>   H                      10.161427            -3.539167            -8.422150
| 21>   H                      9.013080             -3.675182            -9.656898
| 22>   H                      9.634311             -2.149419            -9.448400
| 23> *
| 24>
| 25> #Run DFT-D3 single point of the molecule with dimer basis set
| 26> $new_job
| 27> %base "15-56_DFT_A"
| 28> ! wB97X-D3 def2-TZVP TIGHTSCF CHELPG PMODEL
| 29>
| 30> %scf
| 31> MaxIter 1000
| 32> end
| 33>
| 34> * xyz 0 1
| 35>   C                      6.149197             0.279348             -9.433511
| 36>   O                      5.689921             -0.889510            -10.169131
| 37>   H                      5.935280             -1.668389            -9.656727
| 38>   H                      7.211657             0.500550             -9.393534
| 39>   H                      5.712407             1.245952             -9.815995
| 40>   H                      5.875382             0.154037             -8.369263
| 41>   C                    : 9.288198             -3.052421            -8.884761
| 42>   O                    : 8.371604             -2.728053            -7.886528
| 43>   H                    : 8.713731             -3.126191            -7.071835
| 44>   H                    : 10.161427            -3.539167            -8.422150
| 45>   H                    : 9.013080             -3.675182            -9.656898
| 46>   H                    : 9.634311             -2.149419            -9.448400
| 47> *
| 48>
| 49> #Run DFT-D3 single point of the particle with dimer basis set
| 50> $new_job
| 51> %base "15-56_DFT_B"
| 52> ! wB97X-D3 def2-TZVP TIGHTSCF CHELPG PMODEL
| 53>
| 54> %scf
| 55> MaxIter 1000
| 56> end
| 57>
| 58> * xyz 0 1
| 59>   C                    : 6.149197             0.279348             -9.433511
| 60>   O                    : 5.689921             -0.889510            -10.169131
| 61>   H                    : 5.935280             -1.668389            -9.656727
| 62>   H                    : 7.211657             0.500550             -9.393534
| 63>   H                    : 5.712407             1.245952             -9.815995
| 64>   H                    : 5.875382             0.154037             -8.369263
| 65>   C                      9.288198             -3.052421            -8.884761
| 66>   O                      8.371604             -2.728053            -7.886528
| 67>   H                      8.713731             -3.126191            -7.071835
| 68>   H                      10.161427            -3.539167            -8.422150
| 69>   H                      9.013080             -3.675182            -9.656898
| 70>   H                      9.634311             -2.149419            -9.448400
| 71> *
| 72>
| 73>                          ****END OF INPUT****
 Total Charge           Charge          ....    0
 Multiplicity           Mult            ....    1
 Number of Electrons    NEL             ....   36
Dispersion correction           -0.001408314
FINAL SINGLE POINT ENERGY      -231.461903383245
Dispersion correction           -0.000278538
FINAL SINGLE POINT ENERGY      -115.730722743708

CARTESIAN COORDINATES (ANGSTROEM)
---------------------------------
  C      6.149197    0.279348   -9.433511
  O      5.689921   -0.889510  -10.169131
  H      5.935280   -1.668389   -9.656727
  H      7.211657    0.500550   -9.393534
  H      5.712407    1.245952   -9.815995
  H      5.875382    0.154037   -8.369263
  C      9.288198   -3.052421   -8.884761
  O      8.371604   -2.728053   -7.886528
  H      8.713731   -3.126191   -7.071835
  H     10.161427   -3.539167   -8.422150
  H      9.013080   -3.675182   -9.656898
  H      9.634311   -2.149419   -9.448400

 Multiplicity           Mult            ....    1
 Number of Electrons    NEL             ....   18
 Basis Dimension        Dim             ....  172

ORBITAL ENERGIES
----------------

  NO   OCC          E(Eh)            E(eV)
   0   2.0000     -19.234450      -523.3960
   1   2.0000     -10.308110      -280.4979
   2   2.0000      -1.144033       -31.1307
   3   2.0000      -0.798679       -21.7332
   4   2.0000      -0.618129       -16.8202
   5   2.0000      -0.546978       -14.8840
   6   2.0000      -0.530879       -14.4460
   7   2.0000      -0.432164       -11.7598
   8   2.0000      -0.373316       -10.1584
   9   0.0000       0.093273         2.5381
  10   0.0000       0.116909         3.1812
  11   0.0000       0.151646         4.1265
  12   0.0000       0.177167         4.8209
  13   0.0000       0.186858         5.0847

MULLIKEN ATOMIC CHARGES
-----------------------
   0 C :    0.000190
   1 O :    0.000391
   2 H :   -0.002007
   3 H :   -0.000725
   4 H :   -0.000098
   5 H :   -0.000652
   6 C :   -0.170345
   7 O :   -0.461145
   8 H :    0.321164
   9 H :    0.095861
  10 H :    0.115594
  11 H :    0.101771
Sum of atomic charges:    0.0000000

LOEWDIN ATOMIC CHARGES
----------------------
   0 C :   -0.001297
   1 O :   -0.000072
   2 H :   -0.001879
   3 H :   -0.000223
   4 H :   -0.000021
   5 H :   -0.000336
   6 C :   -0.402599
   7 O :   -0.061539
   8 H :    0.180937
   9 H :    0.099541
  10 H :    0.081955
  11 H :    0.105533

  Mayer bond orders larger than 0.1
B(  6-C ,  7-O ) :   1.0156 B(  6-C ,  9-H ) :   0.9933 B(  6-C , 10-H ) :   0.9701
B(  6-C , 11-H ) :   0.9804 B(  7-O ,  8-H ) :   0.8967

Dispersion correction           -0.000241685
FINAL SINGLE POINT ENERGY      -115.727824959844

DIPOLE MOMENT
-------------
                                X             Y             Z
Electronic contribution:     -1.44330       0.42909       1.23513
Nuclear contribution   :      2.01378      -0.83512      -1.09279
                        -----------------------------------------
Total Dipole Moment    :      0.57048      -0.40603       0.14234
                        -----------------------------------------
Magnitude (a.u.)       :      0.71454
Magnitude (Debye)      :      1.81622

Rotational constants in cm-1:     4.476285     0.851236     0.808204
Rotational constants in MHz : 134195.643153 25519.410580 24229.354669

                             ****ORCA TERMINATED NORMALLY****
TOTAL RUN TIME: 0 days 0 hours 0 minutes 54 seconds 665 msec
