                         Program Version 4.1.2  - RELEASE  -
|  1> #Run DFT-D3 single point of the dimer
|  2> ! wB97X-D3 def2-TZVP TIGHTSCF CHELPG PMODEL PAL8
|  3>
|  4> %base "17-210_DFT_AB"
|  5>
|  6> %scf
|  7> MaxIter 1000
|  8> end
|  9>
| 10> * xyz 0 1
| 11>   C                      4.294245             -7.367143            -6.150160
| 12>   O                      4.476665             -6.250817            -5.388786
| 13>   H                      4.724105             -5.603909            -6.035506
| 14>   H                      3.504387             -8.016956            -5.806962
| 15>   H                      4.175112             -7.146652            -7.235176
| 16>   H                      5.112388             -8.124913            -6.191092
| 17>   C                      4.285054             -4.118987            -8.771822
| 18>   O                      5.215044             -4.544347            -7.797496
| 19>   H                      6.041568             -4.361255            -8.291741
| 20>   H                      4.291076             -3.066954            -8.798043
| 21>   H                      4.511558             -4.496756            -9.780242
| 22>   H                      3.264107             -4.300645            -8.519207
| 23> *
| 24>
| 25> #Run DFT-D3 single point of the molecule with dimer basis set
| 26> $new_job
| 27> %base "17-210_DFT_A"
| 28> ! wB97X-D3 def2-TZVP TIGHTSCF CHELPG PMODEL
| 29>
| 30> %scf
| 31> MaxIter 1000
| 32> end
| 33>
| 34> * xyz 0 1
| 35>   C                      4.294245             -7.367143            -6.150160
| 36>   O                      4.476665             -6.250817            -5.388786
| 37>   H                      4.724105             -5.603909            -6.035506
| 38>   H                      3.504387             -8.016956            -5.806962
| 39>   H                      4.175112             -7.146652            -7.235176
| 40>   H                      5.112388             -8.124913            -6.191092
| 41>   C                    : 4.285054             -4.118987            -8.771822
| 42>   O                    : 5.215044             -4.544347            -7.797496
| 43>   H                    : 6.041568             -4.361255            -8.291741
| 44>   H                    : 4.291076             -3.066954            -8.798043
| 45>   H                    : 4.511558             -4.496756            -9.780242
| 46>   H                    : 3.264107             -4.300645            -8.519207
| 47> *
| 48>
| 49> #Run DFT-D3 single point of the particle with dimer basis set
| 50> $new_job
| 51> %base "17-210_DFT_B"
| 52> ! wB97X-D3 def2-TZVP TIGHTSCF CHELPG PMODEL
| 53>
| 54> %scf
| 55> MaxIter 1000
| 56> end
| 57>
| 58> * xyz 0 1
| 59>   C                    : 4.294245             -7.367143            -6.150160
| 60>   O                    : 4.476665             -6.250817            -5.388786
| 61>   H                    : 4.724105             -5.603909            -6.035506
| 62>   H                    : 3.504387             -8.016956            -5.806962
| 63>   H                    : 4.175112             -7.146652            -7.235176
| 64>   H                    : 5.112388             -8.124913            -6.191092
| 65>   C                      4.285054             -4.118987            -8.771822
| 66>   O                      5.215044             -4.544347            -7.797496
| 67>   H                      6.041568             -4.361255            -8.291741
| 68>   H                      4.291076             -3.066954            -8.798043
| 69>   H                      4.511558             -4.496756            -9.780242
| 70>   H                      3.264107             -4.300645            -8.519207
| 71> *
| 72>
| 73>                          ****END OF INPUT****
 Total Charge           Charge          ....    0
 Multiplicity           Mult            ....    1
 Number of Electrons    NEL             ....   36
Dispersion correction           -0.001835035
FINAL SINGLE POINT ENERGY      -231.466481413350
Dispersion correction           -0.000238376
FINAL SINGLE POINT ENERGY      -115.727827139308

CARTESIAN COORDINATES (ANGSTROEM)
---------------------------------
  C      4.294245   -7.367143   -6.150160
  O      4.476665   -6.250817   -5.388786
  H      4.724105   -5.603909   -6.035506
  H      3.504387   -8.016956   -5.806962
  H      4.175112   -7.146652   -7.235176
  H      5.112388   -8.124913   -6.191092
  C      4.285054   -4.118987   -8.771822
  O      5.215044   -4.544347   -7.797496
  H      6.041568   -4.361255   -8.291741
  H      4.291076   -3.066954   -8.798043
  H      4.511558   -4.496756   -9.780242
  H      3.264107   -4.300645   -8.519207

 Multiplicity           Mult            ....    1
 Number of Electrons    NEL             ....   18
 Basis Dimension        Dim             ....  172

ORBITAL ENERGIES
----------------

  NO   OCC          E(Eh)            E(eV)
   0   2.0000     -19.235515      -523.4250
   1   2.0000     -10.306647      -280.4581
   2   2.0000      -1.140035       -31.0219
   3   2.0000      -0.797382       -21.6979
   4   2.0000      -0.607988       -16.5442
   5   2.0000      -0.547438       -14.8965
   6   2.0000      -0.530913       -14.4469
   7   2.0000      -0.443442       -12.0667
   8   2.0000      -0.373264       -10.1570
   9   0.0000       0.098165         2.6712
  10   0.0000       0.123660         3.3650
  11   0.0000       0.154100         4.1933
  12   0.0000       0.188622         5.1327
  13   0.0000       0.202848         5.5198

MULLIKEN ATOMIC CHARGES
-----------------------
   0 C :    0.003299
   1 O :    0.000508
   2 H :   -0.011002
   3 H :   -0.000272
   4 H :   -0.004559
   5 H :   -0.000460
   6 C :   -0.183767
   7 O :   -0.448253
   8 H :    0.313572
   9 H :    0.110116
  10 H :    0.102573
  11 H :    0.118244
Sum of atomic charges:    0.0000000

LOEWDIN ATOMIC CHARGES
----------------------
   0 C :   -0.006193
   1 O :   -0.002432
   2 H :   -0.026626
   3 H :   -0.000067
   4 H :   -0.003792
   5 H :   -0.000118
   6 C :   -0.388875
   7 O :   -0.050143
   8 H :    0.187764
   9 H :    0.089139
  10 H :    0.098105
  11 H :    0.103238

  Mayer bond orders larger than 0.1
B(  6-C ,  7-O ) :   0.9862 B(  6-C ,  9-H ) :   0.9778 B(  6-C , 10-H ) :   0.9770
B(  6-C , 11-H ) :   0.9783 B(  7-O ,  8-H ) :   0.8983

Dispersion correction           -0.000209937
FINAL SINGLE POINT ENERGY      -115.729623640007

DIPOLE MOMENT
-------------
                                X             Y             Z
Electronic contribution:      1.06757      -0.69096       1.39274
Nuclear contribution   :     -0.94220       0.99907      -2.06595
                        -----------------------------------------
Total Dipole Moment    :      0.12537       0.30811      -0.67321
                        -----------------------------------------
Magnitude (a.u.)       :      0.75090
Magnitude (Debye)      :      1.90864

Rotational constants in cm-1:     4.369743     0.846217     0.807234
Rotational constants in MHz : 131001.591789 25368.946447 24200.278672

                             ****ORCA TERMINATED NORMALLY****
TOTAL RUN TIME: 0 days 0 hours 1 minutes 11 seconds 33 msec
