                         Program Version 4.1.2  - RELEASE  -
|  1> #Run DFT-D3 single point of the dimer
|  2> ! wB97X-D3 def2-TZVP TIGHTSCF CHELPG PMODEL PAL8
|  3>
|  4> %base "9-37_DFT_AB"
|  5>
|  6> %scf
|  7> MaxIter 1000
|  8> end
|  9>
| 10> * xyz 0 1
| 11>   C                      9.668153             -8.802298            3.443174
| 12>   O                      9.283030             -9.279826            2.182614
| 13>   H                      8.535800             -9.932465            2.235001
| 14>   H                      10.301862            -9.574787            3.917111
| 15>   H                      10.289359            -7.879110            3.349851
| 16>   H                      8.819729             -8.629750            4.115209
| 17>   C                      8.264590             -6.277719            5.998486
| 18>   O                      8.012149             -7.412224            6.761491
| 19>   H                      7.331496             -7.951314            6.315991
| 20>   H                      8.566802             -6.611189            4.969169
| 21>   H                      7.420928             -5.647078            5.856310
| 22>   H                      8.913490             -5.615857            6.512467
| 23> *
| 24>
| 25> #Run DFT-D3 single point of the molecule with dimer basis set
| 26> $new_job
| 27> %base "9-37_DFT_A"
| 28> ! wB97X-D3 def2-TZVP TIGHTSCF CHELPG PMODEL
| 29>
| 30> %scf
| 31> MaxIter 1000
| 32> end
| 33>
| 34> * xyz 0 1
| 35>   C                      9.668153             -8.802298            3.443174
| 36>   O                      9.283030             -9.279826            2.182614
| 37>   H                      8.535800             -9.932465            2.235001
| 38>   H                      10.301862            -9.574787            3.917111
| 39>   H                      10.289359            -7.879110            3.349851
| 40>   H                      8.819729             -8.629750            4.115209
| 41>   C                    : 8.264590             -6.277719            5.998486
| 42>   O                    : 8.012149             -7.412224            6.761491
| 43>   H                    : 7.331496             -7.951314            6.315991
| 44>   H                    : 8.566802             -6.611189            4.969169
| 45>   H                    : 7.420928             -5.647078            5.856310
| 46>   H                    : 8.913490             -5.615857            6.512467
| 47> *
| 48>
| 49> #Run DFT-D3 single point of the particle with dimer basis set
| 50> $new_job
| 51> %base "9-37_DFT_B"
| 52> ! wB97X-D3 def2-TZVP TIGHTSCF CHELPG PMODEL
| 53>
| 54> %scf
| 55> MaxIter 1000
| 56> end
| 57>
| 58> * xyz 0 1
| 59>   C                    : 9.668153             -8.802298            3.443174
| 60>   O                    : 9.283030             -9.279826            2.182614
| 61>   H                    : 8.535800             -9.932465            2.235001
| 62>   H                    : 10.301862            -9.574787            3.917111
| 63>   H                    : 10.289359            -7.879110            3.349851
| 64>   H                    : 8.819729             -8.629750            4.115209
| 65>   C                      8.264590             -6.277719            5.998486
| 66>   O                      8.012149             -7.412224            6.761491
| 67>   H                      7.331496             -7.951314            6.315991
| 68>   H                      8.566802             -6.611189            4.969169
| 69>   H                      7.420928             -5.647078            5.856310
| 70>   H                      8.913490             -5.615857            6.512467
| 71> *
| 72>
| 73>                          ****END OF INPUT****
 Total Charge           Charge          ....    0
 Multiplicity           Mult            ....    1
 Number of Electrons    NEL             ....   36
Dispersion correction           -0.001609942
FINAL SINGLE POINT ENERGY      -231.465274013273
Dispersion correction           -0.000248151
FINAL SINGLE POINT ENERGY      -115.733835911768

CARTESIAN COORDINATES (ANGSTROEM)
---------------------------------
  C      9.668153   -8.802298    3.443174
  O      9.283030   -9.279826    2.182614
  H      8.535800   -9.932465    2.235001
  H     10.301862   -9.574787    3.917111
  H     10.289359   -7.879110    3.349851
  H      8.819729   -8.629750    4.115209
  C      8.264590   -6.277719    5.998486
  O      8.012149   -7.412224    6.761491
  H      7.331496   -7.951314    6.315991
  H      8.566802   -6.611189    4.969169
  H      7.420928   -5.647078    5.856310
  H      8.913490   -5.615857    6.512467

 Multiplicity           Mult            ....    1
 Number of Electrons    NEL             ....   18
 Basis Dimension        Dim             ....  172

ORBITAL ENERGIES
----------------

  NO   OCC          E(Eh)            E(eV)
   0   2.0000     -19.230765      -523.2957
   1   2.0000     -10.307579      -280.4835
   2   2.0000      -1.140209       -31.0267
   3   2.0000      -0.798102       -21.7175
   4   2.0000      -0.615514       -16.7490
   5   2.0000      -0.552912       -15.0455
   6   2.0000      -0.524082       -14.2610
   7   2.0000      -0.433341       -11.7918
   8   2.0000      -0.369225       -10.0471
   9   0.0000       0.081955         2.2301
  10   0.0000       0.124698         3.3932
  11   0.0000       0.151420         4.1203
  12   0.0000       0.169094         4.6013
  13   0.0000       0.193745         5.2721

MULLIKEN ATOMIC CHARGES
-----------------------
   0 C :    0.004257
   1 O :    0.000163
   2 H :    0.000009
   3 H :   -0.000260
   4 H :   -0.001339
   5 H :   -0.005311
   6 C :   -0.147919
   7 O :   -0.471166
   8 H :    0.316559
   9 H :    0.082346
  10 H :    0.102649
  11 H :    0.120011
Sum of atomic charges:   -0.0000000

LOEWDIN ATOMIC CHARGES
----------------------
   0 C :   -0.007143
   1 O :   -0.000027
   2 H :   -0.000004
   3 H :   -0.000070
   4 H :   -0.001654
   5 H :   -0.005482
   6 C :   -0.395606
   7 O :   -0.064152
   8 H :    0.179996
   9 H :    0.104199
  10 H :    0.086919
  11 H :    0.103023

  Mayer bond orders larger than 0.1
B(  6-C ,  7-O ) :   1.0004 B(  6-C ,  9-H ) :   0.9823 B(  6-C , 10-H ) :   0.9785
B(  6-C , 11-H ) :   0.9749 B(  7-O ,  8-H ) :   0.8953

Dispersion correction           -0.000223906
FINAL SINGLE POINT ENERGY      -115.731061465710

DIPOLE MOMENT
-------------
                                X             Y             Z
Electronic contribution:     -0.15272      -1.40712       1.16052
Nuclear contribution   :     -0.20560       1.53171      -1.70274
                        -----------------------------------------
Total Dipole Moment    :     -0.35832       0.12459      -0.54222
                        -----------------------------------------
Magnitude (a.u.)       :      0.66175
Magnitude (Debye)      :      1.68204

Rotational constants in cm-1:     4.361933     0.859013     0.819983
Rotational constants in MHz : 130767.465030 25752.548722 24582.465365

                             ****ORCA TERMINATED NORMALLY****
TOTAL RUN TIME: 0 days 0 hours 0 minutes 43 seconds 208 msec
