                         Program Version 4.1.2  - RELEASE  -
|  1> #Run DFT-D3 single point of the dimer
|  2> ! wB97X-D3 def2-TZVP TIGHTSCF CHELPG PMODEL PAL8
|  3>
|  4> %base "13-128_DFT_AB"
|  5>
|  6> %scf
|  7> MaxIter 1000
|  8> end
|  9>
| 10> * xyz 0 1
| 11>   C                      7.004929             -6.565444            -6.108691
| 12>   O                      7.311226             -7.663960            -6.960760
| 13>   H                      6.495099             -8.068097            -7.257927
| 14>   H                      6.292944             -6.947194            -5.276311
| 15>   H                      7.848356             -6.265472            -5.567084
| 16>   H                      6.616340             -5.781074            -6.738117
| 17>   C                      2.434177             -5.195059            -8.076676
| 18>   O                      3.688224             -5.636364            -8.621875
| 19>   H                      3.862159             -6.538386            -8.220550
| 20>   H                      2.321819             -5.141944            -7.007522
| 21>   H                      2.162235             -4.174228            -8.419748
| 22>   H                      1.607918             -5.820516            -8.429680
| 23> *
| 24>
| 25> #Run DFT-D3 single point of the molecule with dimer basis set
| 26> $new_job
| 27> %base "13-128_DFT_A"
| 28> ! wB97X-D3 def2-TZVP TIGHTSCF CHELPG PMODEL
| 29>
| 30> %scf
| 31> MaxIter 1000
| 32> end
| 33>
| 34> * xyz 0 1
| 35>   C                      7.004929             -6.565444            -6.108691
| 36>   O                      7.311226             -7.663960            -6.960760
| 37>   H                      6.495099             -8.068097            -7.257927
| 38>   H                      6.292944             -6.947194            -5.276311
| 39>   H                      7.848356             -6.265472            -5.567084
| 40>   H                      6.616340             -5.781074            -6.738117
| 41>   C                    : 2.434177             -5.195059            -8.076676
| 42>   O                    : 3.688224             -5.636364            -8.621875
| 43>   H                    : 3.862159             -6.538386            -8.220550
| 44>   H                    : 2.321819             -5.141944            -7.007522
| 45>   H                    : 2.162235             -4.174228            -8.419748
| 46>   H                    : 1.607918             -5.820516            -8.429680
| 47> *
| 48>
| 49> #Run DFT-D3 single point of the particle with dimer basis set
| 50> $new_job
| 51> %base "13-128_DFT_B"
| 52> ! wB97X-D3 def2-TZVP TIGHTSCF CHELPG PMODEL
| 53>
| 54> %scf
| 55> MaxIter 1000
| 56> end
| 57>
| 58> * xyz 0 1
| 59>   C                    : 7.004929             -6.565444            -6.108691
| 60>   O                    : 7.311226             -7.663960            -6.960760
| 61>   H                    : 6.495099             -8.068097            -7.257927
| 62>   H                    : 6.292944             -6.947194            -5.276311
| 63>   H                    : 7.848356             -6.265472            -5.567084
| 64>   H                    : 6.616340             -5.781074            -6.738117
| 65>   C                      2.434177             -5.195059            -8.076676
| 66>   O                      3.688224             -5.636364            -8.621875
| 67>   H                      3.862159             -6.538386            -8.220550
| 68>   H                      2.321819             -5.141944            -7.007522
| 69>   H                      2.162235             -4.174228            -8.419748
| 70>   H                      1.607918             -5.820516            -8.429680
| 71> *
| 72>
| 73>                          ****END OF INPUT****
 Total Charge           Charge          ....    0
 Multiplicity           Mult            ....    1
 Number of Electrons    NEL             ....   36
Dispersion correction           -0.001144794
FINAL SINGLE POINT ENERGY      -231.462407872295
Dispersion correction           -0.000231200
FINAL SINGLE POINT ENERGY      -115.730505852438

CARTESIAN COORDINATES (ANGSTROEM)
---------------------------------
  C      7.004929   -6.565444   -6.108691
  O      7.311226   -7.663960   -6.960760
  H      6.495099   -8.068097   -7.257927
  H      6.292944   -6.947194   -5.276311
  H      7.848356   -6.265472   -5.567084
  H      6.616340   -5.781074   -6.738117
  C      2.434177   -5.195059   -8.076676
  O      3.688224   -5.636364   -8.621875
  H      3.862159   -6.538386   -8.220550
  H      2.321819   -5.141944   -7.007522
  H      2.162235   -4.174228   -8.419748
  H      1.607918   -5.820516   -8.429680

 Multiplicity           Mult            ....    1
 Number of Electrons    NEL             ....   18
 Basis Dimension        Dim             ....  172

ORBITAL ENERGIES
----------------

  NO   OCC          E(Eh)            E(eV)
   0   2.0000     -19.240111      -523.5500
   1   2.0000     -10.314692      -280.6770
   2   2.0000      -1.124971       -30.6120
   3   2.0000      -0.795627       -21.6501
   4   2.0000      -0.605081       -16.4651
   5   2.0000      -0.536726       -14.6050
   6   2.0000      -0.521873       -14.2009
   7   2.0000      -0.436627       -11.8812
   8   2.0000      -0.376784       -10.2528
   9   0.0000       0.078169         2.1271
  10   0.0000       0.123937         3.3725
  11   0.0000       0.144409         3.9296
  12   0.0000       0.170190         4.6311
  13   0.0000       0.194638         5.2964

MULLIKEN ATOMIC CHARGES
-----------------------
   0 C :   -0.000054
   1 O :    0.000213
   2 H :   -0.000137
   3 H :    0.000157
   4 H :   -0.000282
   5 H :   -0.004005
   6 C :   -0.179101
   7 O :   -0.470679
   8 H :    0.320848
   9 H :    0.110307
  10 H :    0.116288
  11 H :    0.106446
Sum of atomic charges:   -0.0000000

LOEWDIN ATOMIC CHARGES
----------------------
   0 C :   -0.001289
   1 O :   -0.000023
   2 H :   -0.000335
   3 H :   -0.000035
   4 H :   -0.000034
   5 H :   -0.002023
   6 C :   -0.383478
   7 O :   -0.104661
   8 H :    0.194207
   9 H :    0.090337
  10 H :    0.112015
  11 H :    0.095319

  Mayer bond orders larger than 0.1
B(  6-C ,  7-O ) :   1.0059 B(  6-C ,  9-H ) :   0.9668 B(  6-C , 10-H ) :   0.9744
B(  6-C , 11-H ) :   0.9794 B(  7-O ,  8-H ) :   0.8907

Dispersion correction           -0.000268700
FINAL SINGLE POINT ENERGY      -115.732056576590

DIPOLE MOMENT
-------------
                                X             Y             Z
Electronic contribution:      1.74721      -0.45942      -0.74244
Nuclear contribution   :     -2.16231       0.09018       1.20541
                        -----------------------------------------
Total Dipole Moment    :     -0.41510      -0.36924       0.46297
                        -----------------------------------------
Magnitude (a.u.)       :      0.72318
Magnitude (Debye)      :      1.83817

Rotational constants in cm-1:     4.365636     0.798030     0.767236
Rotational constants in MHz : 130878.478339 23924.346834 23001.157126

                             ****ORCA TERMINATED NORMALLY****
TOTAL RUN TIME: 0 days 0 hours 1 minutes 11 seconds 615 msec
