                         Program Version 4.1.2  - RELEASE  -
|  1> #Run DFT-D3 single point of the dimer
|  2> ! wB97X-D3 def2-TZVP TIGHTSCF CHELPG PMODEL PAL8
|  3>
|  4> %base "13-58_DFT_AB"
|  5>
|  6> %scf
|  7> MaxIter 1000
|  8> end
|  9>
| 10> * xyz 0 1
| 11>   C                      6.579677             -4.656054            2.098122
| 12>   O                      6.418017             -5.253259            3.379541
| 13>   H                      5.507121             -5.599913            3.333520
| 14>   H                      5.924402             -3.782596            1.864666
| 15>   H                      7.523478             -4.087973            1.999012
| 16>   H                      6.439044             -5.427651            1.315982
| 17>   C                      5.358170             -4.553323            8.289341
| 18>   O                      4.758662             -5.702051            7.788265
| 19>   H                      5.369109             -6.434928            7.839393
| 20>   H                      4.957496             -3.566630            7.869189
| 21>   H                      5.109407             -4.431742            9.340299
| 22>   H                      6.408784             -4.531158            8.178149
| 23> *
| 24>
| 25> #Run DFT-D3 single point of the molecule with dimer basis set
| 26> $new_job
| 27> %base "13-58_DFT_A"
| 28> ! wB97X-D3 def2-TZVP TIGHTSCF CHELPG PMODEL
| 29>
| 30> %scf
| 31> MaxIter 1000
| 32> end
| 33>
| 34> * xyz 0 1
| 35>   C                      6.579677             -4.656054            2.098122
| 36>   O                      6.418017             -5.253259            3.379541
| 37>   H                      5.507121             -5.599913            3.333520
| 38>   H                      5.924402             -3.782596            1.864666
| 39>   H                      7.523478             -4.087973            1.999012
| 40>   H                      6.439044             -5.427651            1.315982
| 41>   C                    : 5.358170             -4.553323            8.289341
| 42>   O                    : 4.758662             -5.702051            7.788265
| 43>   H                    : 5.369109             -6.434928            7.839393
| 44>   H                    : 4.957496             -3.566630            7.869189
| 45>   H                    : 5.109407             -4.431742            9.340299
| 46>   H                    : 6.408784             -4.531158            8.178149
| 47> *
| 48>
| 49> #Run DFT-D3 single point of the particle with dimer basis set
| 50> $new_job
| 51> %base "13-58_DFT_B"
| 52> ! wB97X-D3 def2-TZVP TIGHTSCF CHELPG PMODEL
| 53>
| 54> %scf
| 55> MaxIter 1000
| 56> end
| 57>
| 58> * xyz 0 1
| 59>   C                    : 6.579677             -4.656054            2.098122
| 60>   O                    : 6.418017             -5.253259            3.379541
| 61>   H                    : 5.507121             -5.599913            3.333520
| 62>   H                    : 5.924402             -3.782596            1.864666
| 63>   H                    : 7.523478             -4.087973            1.999012
| 64>   H                    : 6.439044             -5.427651            1.315982
| 65>   C                      5.358170             -4.553323            8.289341
| 66>   O                      4.758662             -5.702051            7.788265
| 67>   H                      5.369109             -6.434928            7.839393
| 68>   H                      4.957496             -3.566630            7.869189
| 69>   H                      5.109407             -4.431742            9.340299
| 70>   H                      6.408784             -4.531158            8.178149
| 71> *
| 72>
| 73>                          ****END OF INPUT****
 Total Charge           Charge          ....    0
 Multiplicity           Mult            ....    1
 Number of Electrons    NEL             ....   36
Dispersion correction           -0.000672486
FINAL SINGLE POINT ENERGY      -231.461746779651
Dispersion correction           -0.000250269
FINAL SINGLE POINT ENERGY      -115.729866930996

CARTESIAN COORDINATES (ANGSTROEM)
---------------------------------
  C      6.579677   -4.656054    2.098122
  O      6.418017   -5.253259    3.379541
  H      5.507121   -5.599913    3.333520
  H      5.924402   -3.782596    1.864666
  H      7.523478   -4.087973    1.999012
  H      6.439044   -5.427651    1.315982
  C      5.358170   -4.553323    8.289341
  O      4.758662   -5.702051    7.788265
  H      5.369109   -6.434928    7.839393
  H      4.957496   -3.566630    7.869189
  H      5.109407   -4.431742    9.340299
  H      6.408784   -4.531158    8.178149

 Multiplicity           Mult            ....    1
 Number of Electrons    NEL             ....   18
 Basis Dimension        Dim             ....  172

ORBITAL ENERGIES
----------------

  NO   OCC          E(Eh)            E(eV)
   0   2.0000     -19.231004      -523.3022
   1   2.0000     -10.311381      -280.5869
   2   2.0000      -1.144782       -31.1511
   3   2.0000      -0.796854       -21.6835
   4   2.0000      -0.621072       -16.9002
   5   2.0000      -0.544214       -14.8088
   6   2.0000      -0.527733       -14.3604
   7   2.0000      -0.431296       -11.7362
   8   2.0000      -0.370080       -10.0704
   9   0.0000       0.089052         2.4232
  10   0.0000       0.115473         3.1422
  11   0.0000       0.151542         4.1237
  12   0.0000       0.169639         4.6161
  13   0.0000       0.197876         5.3845

MULLIKEN ATOMIC CHARGES
-----------------------
   0 C :    0.000021
   1 O :   -0.000014
   2 H :   -0.000320
   3 H :   -0.000002
   4 H :    0.000001
   5 H :   -0.000001
   6 C :   -0.161988
   7 O :   -0.469662
   8 H :    0.318172
   9 H :    0.104346
  10 H :    0.099844
  11 H :    0.109603
Sum of atomic charges:    0.0000000

LOEWDIN ATOMIC CHARGES
----------------------
   0 C :   -0.000004
   1 O :   -0.000044
   2 H :   -0.000191
   3 H :   -0.000000
   4 H :   -0.000001
   5 H :   -0.000000
   6 C :   -0.407876
   7 O :   -0.055620
   8 H :    0.169534
   9 H :    0.114236
  10 H :    0.093176
  11 H :    0.086790

  Mayer bond orders larger than 0.1
B(  6-C ,  7-O ) :   1.0087 B(  6-C ,  9-H ) :   0.9720 B(  6-C , 10-H ) :   0.9803
B(  6-C , 11-H ) :   0.9808 B(  7-O ,  8-H ) :   0.8964

Dispersion correction           -0.000245187
FINAL SINGLE POINT ENERGY      -115.731167508935

DIPOLE MOMENT
-------------
                                X             Y             Z
Electronic contribution:     -0.80845      -1.56608      -0.76458
Nuclear contribution   :      1.45670       1.52826       0.99230
                        -----------------------------------------
Total Dipole Moment    :      0.64825      -0.03782       0.22772
                        -----------------------------------------
Magnitude (a.u.)       :      0.68812
Magnitude (Debye)      :      1.74906

Rotational constants in cm-1:     4.457475     0.844581     0.811088
Rotational constants in MHz : 133631.727461 25319.898494 24315.793204

                             ****ORCA TERMINATED NORMALLY****
TOTAL RUN TIME: 0 days 0 hours 1 minutes 11 seconds 417 msec
