                         Program Version 4.1.2  - RELEASE  -
|  1> #Run DFT-D3 single point of the dimer
|  2> ! wB97X-D3 def2-TZVP TIGHTSCF CHELPG PMODEL PAL8
|  3>
|  4> %base "12-8_DFT_AB"
|  5>
|  6> %scf
|  7> MaxIter 1000
|  8> end
|  9>
| 10> * xyz 0 1
| 11>   C                      -3.318311            -0.619609            -4.975786
| 12>   O                      -2.848868            -0.188945            -3.711665
| 13>   H                      -2.709265            0.711760             -3.772373
| 14>   H                      -2.662649            -0.195860            -5.703031
| 15>   H                      -3.228268            -1.702189            -5.124246
| 16>   H                      -4.392851            -0.308560            -5.145854
| 17>   C                      -3.023013            -3.629306            -2.563117
| 18>   O                      -2.579390            -2.375114            -1.974566
| 19>   H                      -2.783467            -1.640467            -2.546963
| 20>   H                      -2.217217            -4.132309            -3.100872
| 21>   H                      -3.460692            -4.337143            -1.858071
| 22>   H                      -3.910047            -3.564153            -3.228729
| 23> *
| 24>
| 25> #Run DFT-D3 single point of the molecule with dimer basis set
| 26> $new_job
| 27> %base "12-8_DFT_A"
| 28> ! wB97X-D3 def2-TZVP TIGHTSCF CHELPG PMODEL
| 29>
| 30> %scf
| 31> MaxIter 1000
| 32> end
| 33>
| 34> * xyz 0 1
| 35>   C                      -3.318311            -0.619609            -4.975786
| 36>   O                      -2.848868            -0.188945            -3.711665
| 37>   H                      -2.709265            0.711760             -3.772373
| 38>   H                      -2.662649            -0.195860            -5.703031
| 39>   H                      -3.228268            -1.702189            -5.124246
| 40>   H                      -4.392851            -0.308560            -5.145854
| 41>   C                    : -3.023013            -3.629306            -2.563117
| 42>   O                    : -2.579390            -2.375114            -1.974566
| 43>   H                    : -2.783467            -1.640467            -2.546963
| 44>   H                    : -2.217217            -4.132309            -3.100872
| 45>   H                    : -3.460692            -4.337143            -1.858071
| 46>   H                    : -3.910047            -3.564153            -3.228729
| 47> *
| 48>
| 49> #Run DFT-D3 single point of the particle with dimer basis set
| 50> $new_job
| 51> %base "12-8_DFT_B"
| 52> ! wB97X-D3 def2-TZVP TIGHTSCF CHELPG PMODEL
| 53>
| 54> %scf
| 55> MaxIter 1000
| 56> end
| 57>
| 58> * xyz 0 1
| 59>   C                    : -3.318311            -0.619609            -4.975786
| 60>   O                    : -2.848868            -0.188945            -3.711665
| 61>   H                    : -2.709265            0.711760             -3.772373
| 62>   H                    : -2.662649            -0.195860            -5.703031
| 63>   H                    : -3.228268            -1.702189            -5.124246
| 64>   H                    : -4.392851            -0.308560            -5.145854
| 65>   C                      -3.023013            -3.629306            -2.563117
| 66>   O                      -2.579390            -2.375114            -1.974566
| 67>   H                      -2.783467            -1.640467            -2.546963
| 68>   H                      -2.217217            -4.132309            -3.100872
| 69>   H                      -3.460692            -4.337143            -1.858071
| 70>   H                      -3.910047            -3.564153            -3.228729
| 71> *
| 72>
| 73>                          ****END OF INPUT****
 Total Charge           Charge          ....    0
 Multiplicity           Mult            ....    1
 Number of Electrons    NEL             ....   36
Dispersion correction           -0.002003115
FINAL SINGLE POINT ENERGY      -231.469374739197
Dispersion correction           -0.000229502
FINAL SINGLE POINT ENERGY      -115.731818188891

CARTESIAN COORDINATES (ANGSTROEM)
---------------------------------
  C     -3.318311   -0.619609   -4.975786
  O     -2.848868   -0.188945   -3.711665
  H     -2.709265    0.711760   -3.772373
  H     -2.662649   -0.195860   -5.703031
  H     -3.228268   -1.702189   -5.124246
  H     -4.392851   -0.308560   -5.145854
  C     -3.023013   -3.629306   -2.563117
  O     -2.579390   -2.375114   -1.974566
  H     -2.783467   -1.640467   -2.546963
  H     -2.217217   -4.132309   -3.100872
  H     -3.460692   -4.337143   -1.858071
  H     -3.910047   -3.564153   -3.228729

 Multiplicity           Mult            ....    1
 Number of Electrons    NEL             ....   18
 Basis Dimension        Dim             ....  172

ORBITAL ENERGIES
----------------

  NO   OCC          E(Eh)            E(eV)
   0   2.0000     -19.233092      -523.3590
   1   2.0000     -10.318658      -280.7850
   2   2.0000      -1.125255       -30.6198
   3   2.0000      -0.801498       -21.8099
   4   2.0000      -0.607857       -16.5406
   5   2.0000      -0.541702       -14.7405
   6   2.0000      -0.517336       -14.0774
   7   2.0000      -0.427692       -11.6381
   8   2.0000      -0.380317       -10.3489
   9   0.0000       0.069823         1.9000
  10   0.0000       0.134199         3.6517
  11   0.0000       0.144713         3.9378
  12   0.0000       0.172681         4.6989
  13   0.0000       0.182909         4.9772

MULLIKEN ATOMIC CHARGES
-----------------------
   0 C :   -0.006202
   1 O :   -0.003600
   2 H :   -0.000429
   3 H :    0.000262
   4 H :    0.001555
   5 H :    0.000224
   6 C :   -0.183260
   7 O :   -0.476026
   8 H :    0.319119
   9 H :    0.115222
  10 H :    0.124198
  11 H :    0.108937
Sum of atomic charges:    0.0000000

LOEWDIN ATOMIC CHARGES
----------------------
   0 C :   -0.007542
   1 O :   -0.023547
   2 H :   -0.001066
   3 H :   -0.000122
   4 H :   -0.002251
   5 H :   -0.000108
   6 C :   -0.362586
   7 O :   -0.084459
   8 H :    0.174166
   9 H :    0.098620
  10 H :    0.106391
  11 H :    0.102504

  Mayer bond orders larger than 0.1
B(  6-C ,  7-O ) :   0.9934 B(  6-C ,  9-H ) :   0.9747 B(  6-C , 10-H ) :   0.9713
B(  6-C , 11-H ) :   0.9734 B(  7-O ,  8-H ) :   0.9045

Dispersion correction           -0.000292471
FINAL SINGLE POINT ENERGY      -115.730463143162

DIPOLE MOMENT
-------------
                                X             Y             Z
Electronic contribution:      0.70426       1.58663       0.88383
Nuclear contribution   :     -1.05695      -1.64969      -1.49367
                        -----------------------------------------
Total Dipole Moment    :     -0.35270      -0.06307      -0.60983
                        -----------------------------------------
Magnitude (a.u.)       :      0.70730
Magnitude (Debye)      :      1.79781

Rotational constants in cm-1:     4.487376     0.771069     0.756285
Rotational constants in MHz : 134528.150905 23116.081671 22672.843916

                             ****ORCA TERMINATED NORMALLY****
TOTAL RUN TIME: 0 days 0 hours 1 minutes 9 seconds 466 msec
