                         Program Version 4.1.2  - RELEASE  -
|  1> #Run DFT-D3 single point of the dimer
|  2> ! wB97X-D3 def2-TZVP TIGHTSCF CHELPG PMODEL PAL8
|  3>
|  4> %base "22-53_DFT_AB"
|  5>
|  6> %scf
|  7> MaxIter 1000
|  8> end
|  9>
| 10> * xyz 0 1
| 11>   C                      5.509219             -5.286384            -2.629828
| 12>   O                      6.356411             -4.322206            -3.312786
| 13>   H                      5.806492             -3.659072            -3.753185
| 14>   H                      4.710320             -5.785805            -3.279945
| 15>   H                      6.199272             -6.152955            -2.356879
| 16>   H                      4.910016             -4.863904            -1.771712
| 17>   C                      1.758582             -1.437780            -2.185095
| 18>   O                      1.633150             -0.040761            -2.412999
| 19>   H                      1.922239             0.409102             -1.638238
| 20>   H                      2.724347             -1.540067            -1.692715
| 21>   H                      0.986000             -1.690466            -1.515458
| 22>   H                      1.769196             -1.988602            -3.101469
| 23> *
| 24>
| 25> #Run DFT-D3 single point of the molecule with dimer basis set
| 26> $new_job
| 27> %base "22-53_DFT_A"
| 28> ! wB97X-D3 def2-TZVP TIGHTSCF CHELPG PMODEL
| 29>
| 30> %scf
| 31> MaxIter 1000
| 32> end
| 33>
| 34> * xyz 0 1
| 35>   C                      5.509219             -5.286384            -2.629828
| 36>   O                      6.356411             -4.322206            -3.312786
| 37>   H                      5.806492             -3.659072            -3.753185
| 38>   H                      4.710320             -5.785805            -3.279945
| 39>   H                      6.199272             -6.152955            -2.356879
| 40>   H                      4.910016             -4.863904            -1.771712
| 41>   C                    : 1.758582             -1.437780            -2.185095
| 42>   O                    : 1.633150             -0.040761            -2.412999
| 43>   H                    : 1.922239             0.409102             -1.638238
| 44>   H                    : 2.724347             -1.540067            -1.692715
| 45>   H                    : 0.986000             -1.690466            -1.515458
| 46>   H                    : 1.769196             -1.988602            -3.101469
| 47> *
| 48>
| 49> #Run DFT-D3 single point of the particle with dimer basis set
| 50> $new_job
| 51> %base "22-53_DFT_B"
| 52> ! wB97X-D3 def2-TZVP TIGHTSCF CHELPG PMODEL
| 53>
| 54> %scf
| 55> MaxIter 1000
| 56> end
| 57>
| 58> * xyz 0 1
| 59>   C                    : 5.509219             -5.286384            -2.629828
| 60>   O                    : 6.356411             -4.322206            -3.312786
| 61>   H                    : 5.806492             -3.659072            -3.753185
| 62>   H                    : 4.710320             -5.785805            -3.279945
| 63>   H                    : 6.199272             -6.152955            -2.356879
| 64>   H                    : 4.910016             -4.863904            -1.771712
| 65>   C                      1.758582             -1.437780            -2.185095
| 66>   O                      1.633150             -0.040761            -2.412999
| 67>   H                      1.922239             0.409102             -1.638238
| 68>   H                      2.724347             -1.540067            -1.692715
| 69>   H                      0.986000             -1.690466            -1.515458
| 70>   H                      1.769196             -1.988602            -3.101469
| 71> *
| 72>
| 73>                          ****END OF INPUT****
 Total Charge           Charge          ....    0
 Multiplicity           Mult            ....    1
 Number of Electrons    NEL             ....   36
Dispersion correction           -0.000735309
FINAL SINGLE POINT ENERGY      -231.461238860082
Dispersion correction           -0.000300120
FINAL SINGLE POINT ENERGY      -115.729985183508

CARTESIAN COORDINATES (ANGSTROEM)
---------------------------------
  C      5.509219   -5.286384   -2.629828
  O      6.356411   -4.322206   -3.312786
  H      5.806492   -3.659072   -3.753185
  H      4.710320   -5.785805   -3.279945
  H      6.199272   -6.152955   -2.356879
  H      4.910016   -4.863904   -1.771712
  C      1.758582   -1.437780   -2.185095
  O      1.633150   -0.040761   -2.412999
  H      1.922239    0.409102   -1.638238
  H      2.724347   -1.540067   -1.692715
  H      0.986000   -1.690466   -1.515458
  H      1.769196   -1.988602   -3.101469

 Multiplicity           Mult            ....    1
 Number of Electrons    NEL             ....   18
 Basis Dimension        Dim             ....  172

ORBITAL ENERGIES
----------------

  NO   OCC          E(Eh)            E(eV)
   0   2.0000     -19.219786      -522.9970
   1   2.0000     -10.305802      -280.4351
   2   2.0000      -1.134750       -30.8781
   3   2.0000      -0.799437       -21.7538
   4   2.0000      -0.606841       -16.5130
   5   2.0000      -0.553913       -15.0727
   6   2.0000      -0.533100       -14.5064
   7   2.0000      -0.429515       -11.6877
   8   2.0000      -0.369499       -10.0546
   9   0.0000       0.081519         2.2182
  10   0.0000       0.116229         3.1627
  11   0.0000       0.152612         4.1528
  12   0.0000       0.165487         4.5031
  13   0.0000       0.185456         5.0465

MULLIKEN ATOMIC CHARGES
-----------------------
   0 C :    0.000083
   1 O :    0.000007
   2 H :   -0.000046
   3 H :   -0.000011
   4 H :   -0.000006
   5 H :   -0.000200
   6 C :   -0.161211
   7 O :   -0.483612
   8 H :    0.310252
   9 H :    0.100568
  10 H :    0.110288
  11 H :    0.123889
Sum of atomic charges:    0.0000000

LOEWDIN ATOMIC CHARGES
----------------------
   0 C :   -0.000057
   1 O :   -0.000003
   2 H :   -0.000032
   3 H :   -0.000003
   4 H :   -0.000001
   5 H :   -0.000108
   6 C :   -0.360963
   7 O :   -0.083411
   8 H :    0.154035
   9 H :    0.097637
  10 H :    0.089239
  11 H :    0.103668

  Mayer bond orders larger than 0.1
B(  6-C ,  7-O ) :   0.9821 B(  6-C ,  9-H ) :   0.9934 B(  6-C , 10-H ) :   0.9795
B(  6-C , 11-H ) :   0.9698 B(  7-O ,  8-H ) :   0.9051

Dispersion correction           -0.000199885
FINAL SINGLE POINT ENERGY      -115.731064273876

DIPOLE MOMENT
-------------
                                X             Y             Z
Electronic contribution:     -0.28880       1.54016      -0.48631
Nuclear contribution   :      0.53529      -1.83599       1.07493
                        -----------------------------------------
Total Dipole Moment    :      0.24649      -0.29583       0.58862
                        -----------------------------------------
Magnitude (a.u.)       :      0.70338
Magnitude (Debye)      :      1.78786

Rotational constants in cm-1:     4.345106     0.844837     0.814861
Rotational constants in MHz : 130263.014268 25327.576050 24428.921486

                             ****ORCA TERMINATED NORMALLY****
TOTAL RUN TIME: 0 days 0 hours 0 minutes 50 seconds 277 msec
