                         Program Version 4.1.2  - RELEASE  -
|  1> #Run DFT-D3 single point of the dimer
|  2> ! wB97X-D3 def2-TZVP TIGHTSCF CHELPG PMODEL PAL8
|  3>
|  4> %base "4-115_DFT_AB"
|  5>
|  6> %scf
|  7> MaxIter 1000
|  8> end
|  9>
| 10> * xyz 0 1
| 11>   C                      2.306363             7.977900             -7.049044
| 12>   O                      3.680497             7.508819             -7.003539
| 13>   H                      3.822370             6.627895             -7.386926
| 14>   H                      2.324172             9.011762             -7.391483
| 15>   H                      1.650519             7.439648             -7.782240
| 16>   H                      1.747418             7.886337             -6.125104
| 17>   C                      1.931775             5.491630             -10.433434
| 18>   O                      0.661164             6.105191             -10.406936
| 19>   H                      0.690918             6.799137             -11.068772
| 20>   H                      2.215781             5.209493             -11.455217
| 21>   H                      2.777286             6.179183             -10.091262
| 22>   H                      1.895661             4.652288             -9.705985
| 23> *
| 24>
| 25> #Run DFT-D3 single point of the molecule with dimer basis set
| 26> $new_job
| 27> %base "4-115_DFT_A"
| 28> ! wB97X-D3 def2-TZVP TIGHTSCF CHELPG PMODEL
| 29>
| 30> %scf
| 31> MaxIter 1000
| 32> end
| 33>
| 34> * xyz 0 1
| 35>   C                      2.306363             7.977900             -7.049044
| 36>   O                      3.680497             7.508819             -7.003539
| 37>   H                      3.822370             6.627895             -7.386926
| 38>   H                      2.324172             9.011762             -7.391483
| 39>   H                      1.650519             7.439648             -7.782240
| 40>   H                      1.747418             7.886337             -6.125104
| 41>   C                    : 1.931775             5.491630             -10.433434
| 42>   O                    : 0.661164             6.105191             -10.406936
| 43>   H                    : 0.690918             6.799137             -11.068772
| 44>   H                    : 2.215781             5.209493             -11.455217
| 45>   H                    : 2.777286             6.179183             -10.091262
| 46>   H                    : 1.895661             4.652288             -9.705985
| 47> *
| 48>
| 49> #Run DFT-D3 single point of the particle with dimer basis set
| 50> $new_job
| 51> %base "4-115_DFT_B"
| 52> ! wB97X-D3 def2-TZVP TIGHTSCF CHELPG PMODEL
| 53>
| 54> %scf
| 55> MaxIter 1000
| 56> end
| 57>
| 58> * xyz 0 1
| 59>   C                    : 2.306363             7.977900             -7.049044
| 60>   O                    : 3.680497             7.508819             -7.003539
| 61>   H                    : 3.822370             6.627895             -7.386926
| 62>   H                    : 2.324172             9.011762             -7.391483
| 63>   H                    : 1.650519             7.439648             -7.782240
| 64>   H                    : 1.747418             7.886337             -6.125104
| 65>   C                      1.931775             5.491630             -10.433434
| 66>   O                      0.661164             6.105191             -10.406936
| 67>   H                      0.690918             6.799137             -11.068772
| 68>   H                      2.215781             5.209493             -11.455217
| 69>   H                      2.777286             6.179183             -10.091262
| 70>   H                      1.895661             4.652288             -9.705985
| 71> *
| 72>
| 73>                          ****END OF INPUT****
 Total Charge           Charge          ....    0
 Multiplicity           Mult            ....    1
 Number of Electrons    NEL             ....   36
Dispersion correction           -0.001664462
FINAL SINGLE POINT ENERGY      -231.468419816066
Dispersion correction           -0.000293986
FINAL SINGLE POINT ENERGY      -115.731707428297

CARTESIAN COORDINATES (ANGSTROEM)
---------------------------------
  C      2.306363    7.977900   -7.049044
  O      3.680497    7.508819   -7.003539
  H      3.822370    6.627895   -7.386926
  H      2.324172    9.011762   -7.391483
  H      1.650519    7.439648   -7.782240
  H      1.747418    7.886337   -6.125104
  C      1.931775    5.491630  -10.433434
  O      0.661164    6.105191  -10.406936
  H      0.690918    6.799137  -11.068772
  H      2.215781    5.209493  -11.455217
  H      2.777286    6.179183  -10.091262
  H      1.895661    4.652288   -9.705985

 Multiplicity           Mult            ....    1
 Number of Electrons    NEL             ....   18
 Basis Dimension        Dim             ....  172

ORBITAL ENERGIES
----------------

  NO   OCC          E(Eh)            E(eV)
   0   2.0000     -19.232854      -523.3526
   1   2.0000     -10.320896      -280.8459
   2   2.0000      -1.140277       -31.0285
   3   2.0000      -0.789367       -21.4798
   4   2.0000      -0.614841       -16.7307
   5   2.0000      -0.536458       -14.5978
   6   2.0000      -0.521922       -14.2022
   7   2.0000      -0.441226       -12.0064
   8   2.0000      -0.371496       -10.1089
   9   0.0000       0.087510         2.3813
  10   0.0000       0.120514         3.2794
  11   0.0000       0.146986         3.9997
  12   0.0000       0.181580         4.9410
  13   0.0000       0.188940         5.1413

MULLIKEN ATOMIC CHARGES
-----------------------
   0 C :    0.000329
   1 O :   -0.000058
   2 H :   -0.000394
   3 H :   -0.000070
   4 H :   -0.002347
   5 H :   -0.000013
   6 C :   -0.165607
   7 O :   -0.468314
   8 H :    0.313210
   9 H :    0.106162
  10 H :    0.096744
  11 H :    0.120358
Sum of atomic charges:    0.0000000

LOEWDIN ATOMIC CHARGES
----------------------
   0 C :   -0.001378
   1 O :   -0.000235
   2 H :   -0.001296
   3 H :   -0.000022
   4 H :   -0.003246
   5 H :   -0.000006
   6 C :   -0.396701
   7 O :   -0.071956
   8 H :    0.168844
   9 H :    0.093490
  10 H :    0.099378
  11 H :    0.113127

  Mayer bond orders larger than 0.1
B(  6-C ,  7-O ) :   0.9858 B(  6-C ,  9-H ) :   0.9734 B(  6-C , 10-H ) :   0.9707
B(  6-C , 11-H ) :   0.9761 B(  7-O ,  8-H ) :   0.9008

Dispersion correction           -0.000241164
FINAL SINGLE POINT ENERGY      -115.734797451127

DIPOLE MOMENT
-------------
                                X             Y             Z
Electronic contribution:     -1.75685       0.62092       0.09373
Nuclear contribution   :      2.25057      -0.42910      -0.53100
                        -----------------------------------------
Total Dipole Moment    :      0.49372       0.19182      -0.43727
                        -----------------------------------------
Magnitude (a.u.)       :      0.68685
Magnitude (Debye)      :      1.74582

Rotational constants in cm-1:     4.117328     0.837687     0.798758
Rotational constants in MHz : 123434.403025 25113.233002 23946.158658

                             ****ORCA TERMINATED NORMALLY****
TOTAL RUN TIME: 0 days 0 hours 1 minutes 25 seconds 547 msec
