                         Program Version 4.1.2  - RELEASE  -
|  1> #Run DFT-D3 single point of the dimer
|  2> ! wB97X-D3 def2-TZVP TIGHTSCF CHELPG PMODEL PAL8
|  3>
|  4> %base "17-91_DFT_AB"
|  5>
|  6> %scf
|  7> MaxIter 1000
|  8> end
|  9>
| 10> * xyz 0 1
| 11>   C                      6.352193             4.195746             -4.190666
| 12>   O                      5.100575             4.500113             -4.616961
| 13>   H                      4.495087             4.304367             -3.860152
| 14>   H                      7.093230             4.700914             -4.815245
| 15>   H                      6.551793             4.589563             -3.174605
| 16>   H                      6.623159             3.143777             -4.209572
| 17>   C                      2.138114             7.553743             -3.607472
| 18>   O                      2.033165             8.634707             -2.745587
| 19>   H                      1.551235             9.341516             -3.242946
| 20>   H                      2.661205             6.794591             -3.034214
| 21>   H                      1.144059             7.065508             -3.824194
| 22>   H                      2.753719             7.638786             -4.459255
| 23> *
| 24>
| 25> #Run DFT-D3 single point of the molecule with dimer basis set
| 26> $new_job
| 27> %base "17-91_DFT_A"
| 28> ! wB97X-D3 def2-TZVP TIGHTSCF CHELPG PMODEL
| 29>
| 30> %scf
| 31> MaxIter 1000
| 32> end
| 33>
| 34> * xyz 0 1
| 35>   C                      6.352193             4.195746             -4.190666
| 36>   O                      5.100575             4.500113             -4.616961
| 37>   H                      4.495087             4.304367             -3.860152
| 38>   H                      7.093230             4.700914             -4.815245
| 39>   H                      6.551793             4.589563             -3.174605
| 40>   H                      6.623159             3.143777             -4.209572
| 41>   C                    : 2.138114             7.553743             -3.607472
| 42>   O                    : 2.033165             8.634707             -2.745587
| 43>   H                    : 1.551235             9.341516             -3.242946
| 44>   H                    : 2.661205             6.794591             -3.034214
| 45>   H                    : 1.144059             7.065508             -3.824194
| 46>   H                    : 2.753719             7.638786             -4.459255
| 47> *
| 48>
| 49> #Run DFT-D3 single point of the particle with dimer basis set
| 50> $new_job
| 51> %base "17-91_DFT_B"
| 52> ! wB97X-D3 def2-TZVP TIGHTSCF CHELPG PMODEL
| 53>
| 54> %scf
| 55> MaxIter 1000
| 56> end
| 57>
| 58> * xyz 0 1
| 59>   C                    : 6.352193             4.195746             -4.190666
| 60>   O                    : 5.100575             4.500113             -4.616961
| 61>   H                    : 4.495087             4.304367             -3.860152
| 62>   H                    : 7.093230             4.700914             -4.815245
| 63>   H                    : 6.551793             4.589563             -3.174605
| 64>   H                    : 6.623159             3.143777             -4.209572
| 65>   C                      2.138114             7.553743             -3.607472
| 66>   O                      2.033165             8.634707             -2.745587
| 67>   H                      1.551235             9.341516             -3.242946
| 68>   H                      2.661205             6.794591             -3.034214
| 69>   H                      1.144059             7.065508             -3.824194
| 70>   H                      2.753719             7.638786             -4.459255
| 71> *
| 72>
| 73>                          ****END OF INPUT****
 Total Charge           Charge          ....    0
 Multiplicity           Mult            ....    1
 Number of Electrons    NEL             ....   36
Dispersion correction           -0.000906610
FINAL SINGLE POINT ENERGY      -231.464847015477
Dispersion correction           -0.000226117
FINAL SINGLE POINT ENERGY      -115.733327507334

CARTESIAN COORDINATES (ANGSTROEM)
---------------------------------
  C      6.352193    4.195746   -4.190666
  O      5.100575    4.500113   -4.616961
  H      4.495087    4.304367   -3.860152
  H      7.093230    4.700914   -4.815245
  H      6.551793    4.589563   -3.174605
  H      6.623159    3.143777   -4.209572
  C      2.138114    7.553743   -3.607472
  O      2.033165    8.634707   -2.745587
  H      1.551235    9.341516   -3.242946
  H      2.661205    6.794591   -3.034214
  H      1.144059    7.065508   -3.824194
  H      2.753719    7.638786   -4.459255

 Multiplicity           Mult            ....    1
 Number of Electrons    NEL             ....   18
 Basis Dimension        Dim             ....  172

ORBITAL ENERGIES
----------------

  NO   OCC          E(Eh)            E(eV)
   0   2.0000     -19.236246      -523.4449
   1   2.0000     -10.307113      -280.4708
   2   2.0000      -1.141932       -31.0736
   3   2.0000      -0.794920       -21.6309
   4   2.0000      -0.612322       -16.6621
   5   2.0000      -0.549356       -14.9487
   6   2.0000      -0.525218       -14.2919
   7   2.0000      -0.426679       -11.6105
   8   2.0000      -0.377220       -10.2647
   9   0.0000       0.084982         2.3125
  10   0.0000       0.114759         3.1227
  11   0.0000       0.139954         3.8083
  12   0.0000       0.179500         4.8844
  13   0.0000       0.190035         5.1711

MULLIKEN ATOMIC CHARGES
-----------------------
   0 C :   -0.000009
   1 O :    0.000044
   2 H :   -0.000266
   3 H :    0.000003
   4 H :   -0.000017
   5 H :   -0.000003
   6 C :   -0.161977
   7 O :   -0.462687
   8 H :    0.315143
   9 H :    0.113977
  10 H :    0.092099
  11 H :    0.103694
Sum of atomic charges:   -0.0000000

LOEWDIN ATOMIC CHARGES
----------------------
   0 C :   -0.000035
   1 O :   -0.000117
   2 H :   -0.000603
   3 H :   -0.000001
   4 H :   -0.000006
   5 H :   -0.000001
   6 C :   -0.418858
   7 O :   -0.063881
   8 H :    0.188110
   9 H :    0.109779
  10 H :    0.100388
  11 H :    0.085225

  Mayer bond orders larger than 0.1
B(  6-C ,  7-O ) :   1.0169 B(  6-C ,  9-H ) :   0.9780 B(  6-C , 10-H ) :   0.9769
B(  6-C , 11-H ) :   0.9671 B(  7-O ,  8-H ) :   0.8960

Dispersion correction           -0.000245636
FINAL SINGLE POINT ENERGY      -115.730757984707

DIPOLE MOMENT
-------------
                                X             Y             Z
Electronic contribution:     -0.05773       1.53083       1.10324
Nuclear contribution   :     -0.16661      -1.50484      -1.71574
                        -----------------------------------------
Total Dipole Moment    :     -0.22434       0.02598      -0.61250
                        -----------------------------------------
Magnitude (a.u.)       :      0.65281
Magnitude (Debye)      :      1.65931

Rotational constants in cm-1:     4.344881     0.849274     0.826651
Rotational constants in MHz : 130256.241298 25460.601657 24782.376045

                             ****ORCA TERMINATED NORMALLY****
TOTAL RUN TIME: 0 days 0 hours 1 minutes 8 seconds 495 msec
