                         Program Version 4.1.2  - RELEASE  -
|  1> #Run DFT-D3 single point of the dimer
|  2> ! wB97X-D3 def2-TZVP TIGHTSCF CHELPG PMODEL PAL8
|  3>
|  4> %base "21-176_DFT_AB"
|  5>
|  6> %scf
|  7> MaxIter 1000
|  8> end
|  9>
| 10> * xyz 0 1
| 11>   C                      -6.673533            8.941013             8.322950
| 12>   O                      -7.607225            9.265425             9.385371
| 13>   H                      -8.052914            10.112277            9.187833
| 14>   H                      -6.085466            9.849589             8.023670
| 15>   H                      -5.902322            8.192720             8.462052
| 16>   H                      -7.210460            8.593741             7.409112
| 17>   C                      -10.253338           8.347335             6.942022
| 18>   O                      -9.418071            9.346424             6.297491
| 19>   H                      -9.437973            10.137026            6.848998
| 20>   H                      -9.919983            8.134863             7.985485
| 21>   H                      -11.314948           8.724835             6.982618
| 22>   H                      -10.287424           7.362823             6.514941
| 23> *
| 24>
| 25> #Run DFT-D3 single point of the molecule with dimer basis set
| 26> $new_job
| 27> %base "21-176_DFT_A"
| 28> ! wB97X-D3 def2-TZVP TIGHTSCF CHELPG PMODEL
| 29>
| 30> %scf
| 31> MaxIter 1000
| 32> end
| 33>
| 34> * xyz 0 1
| 35>   C                      -6.673533            8.941013             8.322950
| 36>   O                      -7.607225            9.265425             9.385371
| 37>   H                      -8.052914            10.112277            9.187833
| 38>   H                      -6.085466            9.849589             8.023670
| 39>   H                      -5.902322            8.192720             8.462052
| 40>   H                      -7.210460            8.593741             7.409112
| 41>   C                    : -10.253338           8.347335             6.942022
| 42>   O                    : -9.418071            9.346424             6.297491
| 43>   H                    : -9.437973            10.137026            6.848998
| 44>   H                    : -9.919983            8.134863             7.985485
| 45>   H                    : -11.314948           8.724835             6.982618
| 46>   H                    : -10.287424           7.362823             6.514941
| 47> *
| 48>
| 49> #Run DFT-D3 single point of the particle with dimer basis set
| 50> $new_job
| 51> %base "21-176_DFT_B"
| 52> ! wB97X-D3 def2-TZVP TIGHTSCF CHELPG PMODEL
| 53>
| 54> %scf
| 55> MaxIter 1000
| 56> end
| 57>
| 58> * xyz 0 1
| 59>   C                    : -6.673533            8.941013             8.322950
| 60>   O                    : -7.607225            9.265425             9.385371
| 61>   H                    : -8.052914            10.112277            9.187833
| 62>   H                    : -6.085466            9.849589             8.023670
| 63>   H                    : -5.902322            8.192720             8.462052
| 64>   H                    : -7.210460            8.593741             7.409112
| 65>   C                      -10.253338           8.347335             6.942022
| 66>   O                      -9.418071            9.346424             6.297491
| 67>   H                      -9.437973            10.137026            6.848998
| 68>   H                      -9.919983            8.134863             7.985485
| 69>   H                      -11.314948           8.724835             6.982618
| 70>   H                      -10.287424           7.362823             6.514941
| 71> *
| 72>
| 73>                          ****END OF INPUT****
 Total Charge           Charge          ....    0
 Multiplicity           Mult            ....    1
 Number of Electrons    NEL             ....   36
Dispersion correction           -0.002340312
FINAL SINGLE POINT ENERGY      -231.461692338435
Dispersion correction           -0.000280964
FINAL SINGLE POINT ENERGY      -115.728658551727

CARTESIAN COORDINATES (ANGSTROEM)
---------------------------------
  C     -6.673533    8.941013    8.322950
  O     -7.607225    9.265425    9.385371
  H     -8.052914   10.112277    9.187833
  H     -6.085466    9.849589    8.023670
  H     -5.902322    8.192720    8.462052
  H     -7.210460    8.593741    7.409112
  C    -10.253338    8.347335    6.942022
  O     -9.418071    9.346424    6.297491
  H     -9.437973   10.137026    6.848998
  H     -9.919983    8.134863    7.985485
  H    -11.314948    8.724835    6.982618
  H    -10.287424    7.362823    6.514941

 Multiplicity           Mult            ....    1
 Number of Electrons    NEL             ....   18
 Basis Dimension        Dim             ....  172

ORBITAL ENERGIES
----------------

  NO   OCC          E(Eh)            E(eV)
   0   2.0000     -19.234319      -523.3924
   1   2.0000     -10.321714      -280.8681
   2   2.0000      -1.126057       -30.6416
   3   2.0000      -0.796819       -21.6826
   4   2.0000      -0.601932       -16.3794
   5   2.0000      -0.537399       -14.6234
   6   2.0000      -0.527786       -14.3618
   7   2.0000      -0.433003       -11.7826
   8   2.0000      -0.375643       -10.2218
   9   0.0000       0.081777         2.2253
  10   0.0000       0.133464         3.6317
  11   0.0000       0.143632         3.9084
  12   0.0000       0.166161         4.5215
  13   0.0000       0.191680         5.2159

MULLIKEN ATOMIC CHARGES
-----------------------
   0 C :   -0.005957
   1 O :    0.000425
   2 H :   -0.001546
   3 H :    0.000740
   4 H :   -0.000482
   5 H :   -0.002577
   6 C :   -0.189077
   7 O :   -0.474807
   8 H :    0.320295
   9 H :    0.107315
  10 H :    0.112585
  11 H :    0.133087
Sum of atomic charges:   -0.0000000

LOEWDIN ATOMIC CHARGES
----------------------
   0 C :   -0.008251
   1 O :   -0.001362
   2 H :   -0.001765
   3 H :   -0.000185
   4 H :   -0.000080
   5 H :   -0.010391
   6 C :   -0.364908
   7 O :   -0.091986
   8 H :    0.171438
   9 H :    0.099681
  10 H :    0.103718
  11 H :    0.104091

  Mayer bond orders larger than 0.1
B(  6-C ,  7-O ) :   0.9850 B(  6-C ,  9-H ) :   0.9724 B(  6-C , 10-H ) :   0.9789
B(  6-C , 11-H ) :   0.9711 B(  7-O ,  8-H ) :   0.8959

Dispersion correction           -0.000267575
FINAL SINGLE POINT ENERGY      -115.731397731938

DIPOLE MOMENT
-------------
                                X             Y             Z
Electronic contribution:      1.15018       1.12912      -1.06200
Nuclear contribution   :     -1.51546      -1.06944       1.66518
                        -----------------------------------------
Total Dipole Moment    :     -0.36527       0.05969       0.60319
                        -----------------------------------------
Magnitude (a.u.)       :      0.70769
Magnitude (Debye)      :      1.79880

Rotational constants in cm-1:     4.322885     0.780841     0.760765
Rotational constants in MHz : 129596.823175 23409.024390 22807.172502

                             ****ORCA TERMINATED NORMALLY****
TOTAL RUN TIME: 0 days 0 hours 1 minutes 6 seconds 318 msec
