                         Program Version 4.1.2  - RELEASE  -
|  1> #Run DFT-D3 single point of the dimer
|  2> ! wB97X-D3 def2-TZVP TIGHTSCF CHELPG PMODEL PAL8
|  3>
|  4> %base "10-92_DFT_AB"
|  5>
|  6> %scf
|  7> MaxIter 1000
|  8> end
|  9>
| 10> * xyz 0 1
| 11>   C                      0.325050             3.682876             4.670970
| 12>   O                      -0.846528            4.166738             4.035653
| 13>   H                      -1.548622            4.059657             4.702336
| 14>   H                      0.917244             3.089913             4.008710
| 15>   H                      1.078371             4.362851             4.962118
| 16>   H                      0.047949             3.124406             5.575140
| 17>   C                      -0.719550            -0.314772            0.157178
| 18>   O                      -1.584965            0.433955             1.002050
| 19>   H                      -2.224186            0.908863             0.534995
| 20>   H                      -0.599613            0.064661             -0.823681
| 21>   H                      0.291541             -0.318473            0.630816
| 22>   H                      -1.079026            -1.378477            0.075071
| 23> *
| 24>
| 25> #Run DFT-D3 single point of the molecule with dimer basis set
| 26> $new_job
| 27> %base "10-92_DFT_A"
| 28> ! wB97X-D3 def2-TZVP TIGHTSCF CHELPG PMODEL
| 29>
| 30> %scf
| 31> MaxIter 1000
| 32> end
| 33>
| 34> * xyz 0 1
| 35>   C                      0.325050             3.682876             4.670970
| 36>   O                      -0.846528            4.166738             4.035653
| 37>   H                      -1.548622            4.059657             4.702336
| 38>   H                      0.917244             3.089913             4.008710
| 39>   H                      1.078371             4.362851             4.962118
| 40>   H                      0.047949             3.124406             5.575140
| 41>   C                    : -0.719550            -0.314772            0.157178
| 42>   O                    : -1.584965            0.433955             1.002050
| 43>   H                    : -2.224186            0.908863             0.534995
| 44>   H                    : -0.599613            0.064661             -0.823681
| 45>   H                    : 0.291541             -0.318473            0.630816
| 46>   H                    : -1.079026            -1.378477            0.075071
| 47> *
| 48>
| 49> #Run DFT-D3 single point of the particle with dimer basis set
| 50> $new_job
| 51> %base "10-92_DFT_B"
| 52> ! wB97X-D3 def2-TZVP TIGHTSCF CHELPG PMODEL
| 53>
| 54> %scf
| 55> MaxIter 1000
| 56> end
| 57>
| 58> * xyz 0 1
| 59>   C                    : 0.325050             3.682876             4.670970
| 60>   O                    : -0.846528            4.166738             4.035653
| 61>   H                    : -1.548622            4.059657             4.702336
| 62>   H                    : 0.917244             3.089913             4.008710
| 63>   H                    : 1.078371             4.362851             4.962118
| 64>   H                    : 0.047949             3.124406             5.575140
| 65>   C                      -0.719550            -0.314772            0.157178
| 66>   O                      -1.584965            0.433955             1.002050
| 67>   H                      -2.224186            0.908863             0.534995
| 68>   H                      -0.599613            0.064661             -0.823681
| 69>   H                      0.291541             -0.318473            0.630816
| 70>   H                      -1.079026            -1.378477            0.075071
| 71> *
| 72>
| 73>                          ****END OF INPUT****
 Total Charge           Charge          ....    0
 Multiplicity           Mult            ....    1
 Number of Electrons    NEL             ....   36
Dispersion correction           -0.000666077
FINAL SINGLE POINT ENERGY      -231.461343400848
Dispersion correction           -0.000247701
FINAL SINGLE POINT ENERGY      -115.728435751863

CARTESIAN COORDINATES (ANGSTROEM)
---------------------------------
  C      0.325050    3.682876    4.670970
  O     -0.846528    4.166738    4.035653
  H     -1.548622    4.059657    4.702336
  H      0.917244    3.089913    4.008710
  H      1.078371    4.362851    4.962118
  H      0.047949    3.124406    5.575140
  C     -0.719550   -0.314772    0.157178
  O     -1.584965    0.433955    1.002050
  H     -2.224186    0.908863    0.534995
  H     -0.599613    0.064661   -0.823681
  H      0.291541   -0.318473    0.630816
  H     -1.079026   -1.378477    0.075071

 Multiplicity           Mult            ....    1
 Number of Electrons    NEL             ....   18
 Basis Dimension        Dim             ....  172

ORBITAL ENERGIES
----------------

  NO   OCC          E(Eh)            E(eV)
   0   2.0000     -19.225034      -523.1398
   1   2.0000     -10.315607      -280.7019
   2   2.0000      -1.137603       -30.9557
   3   2.0000      -0.800321       -21.7778
   4   2.0000      -0.618764       -16.8374
   5   2.0000      -0.535764       -14.5789
   6   2.0000      -0.523349       -14.2410
   7   2.0000      -0.433412       -11.7937
   8   2.0000      -0.373151       -10.1540
   9   0.0000       0.094635         2.5751
  10   0.0000       0.120526         3.2797
  11   0.0000       0.153125         4.1668
  12   0.0000       0.170159         4.6303
  13   0.0000       0.192567         5.2400

MULLIKEN ATOMIC CHARGES
-----------------------
   0 C :   -0.000145
   1 O :    0.000037
   2 H :    0.000008
   3 H :   -0.000160
   4 H :   -0.000015
   5 H :    0.000019
   6 C :   -0.166044
   7 O :   -0.473745
   8 H :    0.308292
   9 H :    0.111911
  10 H :    0.118055
  11 H :    0.101786
Sum of atomic charges:    0.0000000

LOEWDIN ATOMIC CHARGES
----------------------
   0 C :   -0.000095
   1 O :   -0.000016
   2 H :   -0.000005
   3 H :   -0.000051
   4 H :   -0.000005
   5 H :   -0.000000
   6 C :   -0.376235
   7 O :   -0.065656
   8 H :    0.140714
   9 H :    0.087153
  10 H :    0.112068
  11 H :    0.102128

  Mayer bond orders larger than 0.1
B(  6-C ,  7-O ) :   0.9993 B(  6-C ,  9-H ) :   0.9735 B(  6-C , 10-H ) :   0.9754
B(  6-C , 11-H ) :   0.9748 B(  7-O ,  8-H ) :   0.9066

Dispersion correction           -0.000262726
FINAL SINGLE POINT ENERGY      -115.733002573183

DIPOLE MOMENT
-------------
                                X             Y             Z
Electronic contribution:     -1.07988       0.99624       1.06685
Nuclear contribution   :      1.01431      -0.95834      -1.75021
                        -----------------------------------------
Total Dipole Moment    :     -0.06557       0.03790      -0.68336
                        -----------------------------------------
Magnitude (a.u.)       :      0.68754
Magnitude (Debye)      :      1.74759

Rotational constants in cm-1:     4.385008     0.813427     0.792746
Rotational constants in MHz : 131459.229716 24385.925554 23765.931087

                             ****ORCA TERMINATED NORMALLY****
TOTAL RUN TIME: 0 days 0 hours 0 minutes 58 seconds 811 msec
