                         Program Version 4.1.2  - RELEASE  -
|  1> #Run DFT-D3 single point of the dimer
|  2> ! wB97X-D3 def2-TZVP TIGHTSCF CHELPG PMODEL PAL8
|  3>
|  4> %base "4-178_DFT_AB"
|  5>
|  6> %scf
|  7> MaxIter 1000
|  8> end
|  9>
| 10> * xyz 0 1
| 11>   C                      1.282036             -0.526095            -2.447714
| 12>   O                      0.667628             0.654097             -2.888777
| 13>   H                      -0.115765            0.328344             -3.366132
| 14>   H                      0.807238             -0.864721            -1.598369
| 15>   H                      1.260012             -1.403564            -3.131987
| 16>   H                      2.306597             -0.287448            -2.217805
| 17>   C                      -1.147492            3.743506             -2.228677
| 18>   O                      0.200681             3.673665             -2.581685
| 19>   H                      0.540439             2.919515             -2.077761
| 20>   H                      -1.804265            3.497695             -3.027114
| 21>   H                      -1.435991            3.054462             -1.455102
| 22>   H                      -1.408073            4.745602             -1.913649
| 23> *
| 24>
| 25> #Run DFT-D3 single point of the molecule with dimer basis set
| 26> $new_job
| 27> %base "4-178_DFT_A"
| 28> ! wB97X-D3 def2-TZVP TIGHTSCF CHELPG PMODEL
| 29>
| 30> %scf
| 31> MaxIter 1000
| 32> end
| 33>
| 34> * xyz 0 1
| 35>   C                      1.282036             -0.526095            -2.447714
| 36>   O                      0.667628             0.654097             -2.888777
| 37>   H                      -0.115765            0.328344             -3.366132
| 38>   H                      0.807238             -0.864721            -1.598369
| 39>   H                      1.260012             -1.403564            -3.131987
| 40>   H                      2.306597             -0.287448            -2.217805
| 41>   C                    : -1.147492            3.743506             -2.228677
| 42>   O                    : 0.200681             3.673665             -2.581685
| 43>   H                    : 0.540439             2.919515             -2.077761
| 44>   H                    : -1.804265            3.497695             -3.027114
| 45>   H                    : -1.435991            3.054462             -1.455102
| 46>   H                    : -1.408073            4.745602             -1.913649
| 47> *
| 48>
| 49> #Run DFT-D3 single point of the particle with dimer basis set
| 50> $new_job
| 51> %base "4-178_DFT_B"
| 52> ! wB97X-D3 def2-TZVP TIGHTSCF CHELPG PMODEL
| 53>
| 54> %scf
| 55> MaxIter 1000
| 56> end
| 57>
| 58> * xyz 0 1
| 59>   C                    : 1.282036             -0.526095            -2.447714
| 60>   O                    : 0.667628             0.654097             -2.888777
| 61>   H                    : -0.115765            0.328344             -3.366132
| 62>   H                    : 0.807238             -0.864721            -1.598369
| 63>   H                    : 1.260012             -1.403564            -3.131987
| 64>   H                    : 2.306597             -0.287448            -2.217805
| 65>   C                      -1.147492            3.743506             -2.228677
| 66>   O                      0.200681             3.673665             -2.581685
| 67>   H                      0.540439             2.919515             -2.077761
| 68>   H                      -1.804265            3.497695             -3.027114
| 69>   H                      -1.435991            3.054462             -1.455102
| 70>   H                      -1.408073            4.745602             -1.913649
| 71> *
| 72>
| 73>                          ****END OF INPUT****
 Total Charge           Charge          ....    0
 Multiplicity           Mult            ....    1
 Number of Electrons    NEL             ....   36
Dispersion correction           -0.001540766
FINAL SINGLE POINT ENERGY      -231.468599120264
Dispersion correction           -0.000220104
FINAL SINGLE POINT ENERGY      -115.731291442223

CARTESIAN COORDINATES (ANGSTROEM)
---------------------------------
  C      1.282036   -0.526095   -2.447714
  O      0.667628    0.654097   -2.888777
  H     -0.115765    0.328344   -3.366132
  H      0.807238   -0.864721   -1.598369
  H      1.260012   -1.403564   -3.131987
  H      2.306597   -0.287448   -2.217805
  C     -1.147492    3.743506   -2.228677
  O      0.200681    3.673665   -2.581685
  H      0.540439    2.919515   -2.077761
  H     -1.804265    3.497695   -3.027114
  H     -1.435991    3.054462   -1.455102
  H     -1.408073    4.745602   -1.913649

 Multiplicity           Mult            ....    1
 Number of Electrons    NEL             ....   18
 Basis Dimension        Dim             ....  172

ORBITAL ENERGIES
----------------

  NO   OCC          E(Eh)            E(eV)
   0   2.0000     -19.233471      -523.3693
   1   2.0000     -10.304299      -280.3942
   2   2.0000      -1.143647       -31.1202
   3   2.0000      -0.798590       -21.7307
   4   2.0000      -0.618556       -16.8318
   5   2.0000      -0.542746       -14.7689
   6   2.0000      -0.531356       -14.4589
   7   2.0000      -0.439304       -11.9541
   8   2.0000      -0.373627       -10.1669
   9   0.0000       0.072184         1.9642
  10   0.0000       0.124196         3.3795
  11   0.0000       0.149807         4.0764
  12   0.0000       0.170465         4.6386
  13   0.0000       0.193629         5.2689

MULLIKEN ATOMIC CHARGES
-----------------------
   0 C :   -0.002087
   1 O :   -0.004487
   2 H :   -0.000476
   3 H :    0.000077
   4 H :    0.000030
   5 H :    0.000132
   6 C :   -0.170333
   7 O :   -0.461793
   8 H :    0.319576
   9 H :    0.106821
  10 H :    0.103995
  11 H :    0.108546
Sum of atomic charges:   -0.0000000

LOEWDIN ATOMIC CHARGES
----------------------
   0 C :   -0.001017
   1 O :   -0.009277
   2 H :   -0.001049
   3 H :   -0.000031
   4 H :   -0.000024
   5 H :   -0.000045
   6 C :   -0.398070
   7 O :   -0.057277
   8 H :    0.179942
   9 H :    0.092480
  10 H :    0.094387
  11 H :    0.099982

  Mayer bond orders larger than 0.1
B(  6-C ,  7-O ) :   1.0100 B(  6-C ,  9-H ) :   0.9753 B(  6-C , 10-H ) :   0.9877
B(  6-C , 11-H ) :   0.9805 B(  7-O ,  8-H ) :   0.9000

Dispersion correction           -0.000232665
FINAL SINGLE POINT ENERGY      -115.733501319516

DIPOLE MOMENT
-------------
                                X             Y             Z
Electronic contribution:      1.80769       0.03226      -0.55764
Nuclear contribution   :     -2.12105      -0.48993       1.02038
                        -----------------------------------------
Total Dipole Moment    :     -0.31336      -0.45767       0.46274
                        -----------------------------------------
Magnitude (a.u.)       :      0.72235
Magnitude (Debye)      :      1.83606

Rotational constants in cm-1:     4.459147     0.853180     0.817622
Rotational constants in MHz : 133681.863805 25577.682497 24511.684027

                             ****ORCA TERMINATED NORMALLY****
TOTAL RUN TIME: 0 days 0 hours 1 minutes 34 seconds 713 msec
