                         Program Version 4.1.2  - RELEASE  -
|  1> #Run DFT-D3 single point of the dimer
|  2> ! wB97X-D3 def2-TZVP TIGHTSCF CHELPG PMODEL PAL8
|  3>
|  4> %base "7-110_DFT_AB"
|  5>
|  6> %scf
|  7> MaxIter 1000
|  8> end
|  9>
| 10> * xyz 0 1
| 11>   C                      0.729532             5.280987             0.792221
| 12>   O                      0.011848             4.968392             -0.373084
| 13>   H                      -0.194236            5.859441             -0.599549
| 14>   H                      1.347677             4.466694             1.117791
| 15>   H                      1.488634             6.100130             0.576506
| 16>   H                      -0.035568            5.478909             1.575330
| 17>   C                      -1.185284            8.504288             0.055179
| 18>   O                      -1.646545            7.176408             -0.137054
| 19>   H                      -2.101523            7.023190             0.712655
| 20>   H                      -2.006524            9.225347             0.002332
| 21>   H                      -0.682141            8.622074             0.980656
| 22>   H                      -0.504858            8.844147             -0.684740
| 23> *
| 24>
| 25> #Run DFT-D3 single point of the molecule with dimer basis set
| 26> $new_job
| 27> %base "7-110_DFT_A"
| 28> ! wB97X-D3 def2-TZVP TIGHTSCF CHELPG PMODEL
| 29>
| 30> %scf
| 31> MaxIter 1000
| 32> end
| 33>
| 34> * xyz 0 1
| 35>   C                      0.729532             5.280987             0.792221
| 36>   O                      0.011848             4.968392             -0.373084
| 37>   H                      -0.194236            5.859441             -0.599549
| 38>   H                      1.347677             4.466694             1.117791
| 39>   H                      1.488634             6.100130             0.576506
| 40>   H                      -0.035568            5.478909             1.575330
| 41>   C                    : -1.185284            8.504288             0.055179
| 42>   O                    : -1.646545            7.176408             -0.137054
| 43>   H                    : -2.101523            7.023190             0.712655
| 44>   H                    : -2.006524            9.225347             0.002332
| 45>   H                    : -0.682141            8.622074             0.980656
| 46>   H                    : -0.504858            8.844147             -0.684740
| 47> *
| 48>
| 49> #Run DFT-D3 single point of the particle with dimer basis set
| 50> $new_job
| 51> %base "7-110_DFT_B"
| 52> ! wB97X-D3 def2-TZVP TIGHTSCF CHELPG PMODEL
| 53>
| 54> %scf
| 55> MaxIter 1000
| 56> end
| 57>
| 58> * xyz 0 1
| 59>   C                    : 0.729532             5.280987             0.792221
| 60>   O                    : 0.011848             4.968392             -0.373084
| 61>   H                    : -0.194236            5.859441             -0.599549
| 62>   H                    : 1.347677             4.466694             1.117791
| 63>   H                    : 1.488634             6.100130             0.576506
| 64>   H                    : -0.035568            5.478909             1.575330
| 65>   C                      -1.185284            8.504288             0.055179
| 66>   O                      -1.646545            7.176408             -0.137054
| 67>   H                      -2.101523            7.023190             0.712655
| 68>   H                      -2.006524            9.225347             0.002332
| 69>   H                      -0.682141            8.622074             0.980656
| 70>   H                      -0.504858            8.844147             -0.684740
| 71> *
| 72>
| 73>                          ****END OF INPUT****
 Total Charge           Charge          ....    0
 Multiplicity           Mult            ....    1
 Number of Electrons    NEL             ....   36
Dispersion correction           -0.002193117
FINAL SINGLE POINT ENERGY      -231.465190283904
Dispersion correction           -0.000201953
FINAL SINGLE POINT ENERGY      -115.727525688384

CARTESIAN COORDINATES (ANGSTROEM)
---------------------------------
  C      0.729532    5.280987    0.792221
  O      0.011848    4.968392   -0.373084
  H     -0.194236    5.859441   -0.599549
  H      1.347677    4.466694    1.117791
  H      1.488634    6.100130    0.576506
  H     -0.035568    5.478909    1.575330
  C     -1.185284    8.504288    0.055179
  O     -1.646545    7.176408   -0.137054
  H     -2.101523    7.023190    0.712655
  H     -2.006524    9.225347    0.002332
  H     -0.682141    8.622074    0.980656
  H     -0.504858    8.844147   -0.684740

 Multiplicity           Mult            ....    1
 Number of Electrons    NEL             ....   18
 Basis Dimension        Dim             ....  172

ORBITAL ENERGIES
----------------

  NO   OCC          E(Eh)            E(eV)
   0   2.0000     -19.236256      -523.4451
   1   2.0000     -10.306381      -280.4509
   2   2.0000      -1.138000       -30.9665
   3   2.0000      -0.799239       -21.7484
   4   2.0000      -0.608400       -16.5554
   5   2.0000      -0.545385       -14.8407
   6   2.0000      -0.531722       -14.4689
   7   2.0000      -0.441955       -12.0262
   8   2.0000      -0.376158       -10.2358
   9   0.0000       0.091471         2.4890
  10   0.0000       0.133596         3.6353
  11   0.0000       0.149889         4.0787
  12   0.0000       0.183544         4.9945
  13   0.0000       0.200044         5.4435

MULLIKEN ATOMIC CHARGES
-----------------------
   0 C :   -0.001196
   1 O :    0.003517
   2 H :   -0.005680
   3 H :   -0.001046
   4 H :   -0.000406
   5 H :   -0.008226
   6 C :   -0.183821
   7 O :   -0.459739
   8 H :    0.317636
   9 H :    0.103938
  10 H :    0.112165
  11 H :    0.122857
Sum of atomic charges:    0.0000000

LOEWDIN ATOMIC CHARGES
----------------------
   0 C :   -0.011623
   1 O :   -0.009049
   2 H :   -0.033151
   3 H :   -0.000225
   4 H :   -0.000446
   5 H :   -0.004095
   6 C :   -0.381054
   7 O :   -0.036300
   8 H :    0.185224
   9 H :    0.097864
  10 H :    0.090413
  11 H :    0.102443

  Mayer bond orders larger than 0.1
B(  6-C ,  7-O ) :   0.9866 B(  6-C ,  9-H ) :   0.9757 B(  6-C , 10-H ) :   0.9801
B(  6-C , 11-H ) :   0.9774 B(  7-O ,  8-H ) :   0.8977

Dispersion correction           -0.000220989
FINAL SINGLE POINT ENERGY      -115.732997074716

DIPOLE MOMENT
-------------
                                X             Y             Z
Electronic contribution:     -0.48902      -1.78504      -0.42301
Nuclear contribution   :      0.40687       2.23046       1.00646
                        -----------------------------------------
Total Dipole Moment    :     -0.08215       0.44542       0.58345
                        -----------------------------------------
Magnitude (a.u.)       :      0.73862
Magnitude (Debye)      :      1.87742

Rotational constants in cm-1:     4.426697     0.830841     0.802562
Rotational constants in MHz : 132709.039734 24907.980559 24060.216033

                             ****ORCA TERMINATED NORMALLY****
TOTAL RUN TIME: 0 days 0 hours 1 minutes 14 seconds 686 msec
