                         Program Version 4.1.2  - RELEASE  -
|  1> #Run DFT-D3 single point of the dimer
|  2> ! wB97X-D3 def2-TZVP TIGHTSCF CHELPG PMODEL PAL8
|  3>
|  4> %base "19-97_DFT_AB"
|  5>
|  6> %scf
|  7> MaxIter 1000
|  8> end
|  9>
| 10> * xyz 0 1
| 11>   C                      6.919625             2.237632             2.945838
| 12>   O                      7.105568             3.614791             3.004067
| 13>   H                      7.927648             3.903414             2.617584
| 14>   H                      7.422164             1.719098             3.729250
| 15>   H                      5.841692             1.966989             3.041488
| 16>   H                      7.318918             1.785904             1.953686
| 17>   C                      8.905412             3.723221             8.095253
| 18>   O                      7.644204             3.455748             8.700712
| 19>   H                      7.890491             2.887441             9.435179
| 20>   H                      9.317823             2.764151             7.637089
| 21>   H                      8.787449             4.390905             7.335888
| 22>   H                      9.649400             4.099344             8.856138
| 23> *
| 24>
| 25> #Run DFT-D3 single point of the molecule with dimer basis set
| 26> $new_job
| 27> %base "19-97_DFT_A"
| 28> ! wB97X-D3 def2-TZVP TIGHTSCF CHELPG PMODEL
| 29>
| 30> %scf
| 31> MaxIter 1000
| 32> end
| 33>
| 34> * xyz 0 1
| 35>   C                      6.919625             2.237632             2.945838
| 36>   O                      7.105568             3.614791             3.004067
| 37>   H                      7.927648             3.903414             2.617584
| 38>   H                      7.422164             1.719098             3.729250
| 39>   H                      5.841692             1.966989             3.041488
| 40>   H                      7.318918             1.785904             1.953686
| 41>   C                    : 8.905412             3.723221             8.095253
| 42>   O                    : 7.644204             3.455748             8.700712
| 43>   H                    : 7.890491             2.887441             9.435179
| 44>   H                    : 9.317823             2.764151             7.637089
| 45>   H                    : 8.787449             4.390905             7.335888
| 46>   H                    : 9.649400             4.099344             8.856138
| 47> *
| 48>
| 49> #Run DFT-D3 single point of the particle with dimer basis set
| 50> $new_job
| 51> %base "19-97_DFT_B"
| 52> ! wB97X-D3 def2-TZVP TIGHTSCF CHELPG PMODEL
| 53>
| 54> %scf
| 55> MaxIter 1000
| 56> end
| 57>
| 58> * xyz 0 1
| 59>   C                    : 6.919625             2.237632             2.945838
| 60>   O                    : 7.105568             3.614791             3.004067
| 61>   H                    : 7.927648             3.903414             2.617584
| 62>   H                    : 7.422164             1.719098             3.729250
| 63>   H                    : 5.841692             1.966989             3.041488
| 64>   H                    : 7.318918             1.785904             1.953686
| 65>   C                      8.905412             3.723221             8.095253
| 66>   O                      7.644204             3.455748             8.700712
| 67>   H                      7.890491             2.887441             9.435179
| 68>   H                      9.317823             2.764151             7.637089
| 69>   H                      8.787449             4.390905             7.335888
| 70>   H                      9.649400             4.099344             8.856138
| 71> *
| 72>
| 73>                          ****END OF INPUT****
 Total Charge           Charge          ....    0
 Multiplicity           Mult            ....    1
 Number of Electrons    NEL             ....   36
Dispersion correction           -0.000649811
FINAL SINGLE POINT ENERGY      -231.463327887199
Dispersion correction           -0.000256335
FINAL SINGLE POINT ENERGY      -115.732687830542

CARTESIAN COORDINATES (ANGSTROEM)
---------------------------------
  C      6.919625    2.237632    2.945838
  O      7.105568    3.614791    3.004067
  H      7.927648    3.903414    2.617584
  H      7.422164    1.719098    3.729250
  H      5.841692    1.966989    3.041488
  H      7.318918    1.785904    1.953686
  C      8.905412    3.723221    8.095253
  O      7.644204    3.455748    8.700712
  H      7.890491    2.887441    9.435179
  H      9.317823    2.764151    7.637089
  H      8.787449    4.390905    7.335888
  H      9.649400    4.099344    8.856138

 Multiplicity           Mult            ....    1
 Number of Electrons    NEL             ....   18
 Basis Dimension        Dim             ....  172

ORBITAL ENERGIES
----------------

  NO   OCC          E(Eh)            E(eV)
   0   2.0000     -19.231361      -523.3119
   1   2.0000     -10.314630      -280.6754
   2   2.0000      -1.136940       -30.9377
   3   2.0000      -0.794824       -21.6283
   4   2.0000      -0.606033       -16.4910
   5   2.0000      -0.535564       -14.5734
   6   2.0000      -0.533668       -14.5219
   7   2.0000      -0.444413       -12.0931
   8   2.0000      -0.371661       -10.1134
   9   0.0000       0.086914         2.3650
  10   0.0000       0.113560         3.0901
  11   0.0000       0.154014         4.1909
  12   0.0000       0.164413         4.4739
  13   0.0000       0.191204         5.2029

MULLIKEN ATOMIC CHARGES
-----------------------
   0 C :   -0.000002
   1 O :   -0.000005
   2 H :   -0.000005
   3 H :   -0.000003
   4 H :    0.000000
   5 H :    0.000001
   6 C :   -0.175440
   7 O :   -0.463827
   8 H :    0.313328
   9 H :    0.094685
  10 H :    0.127400
  11 H :    0.103868
Sum of atomic charges:    0.0000000

LOEWDIN ATOMIC CHARGES
----------------------
   0 C :   -0.000007
   1 O :   -0.000003
   2 H :   -0.000003
   3 H :   -0.000009
   4 H :   -0.000000
   5 H :   -0.000000
   6 C :   -0.376943
   7 O :   -0.084309
   8 H :    0.170785
   9 H :    0.101941
  10 H :    0.086682
  11 H :    0.101867

  Mayer bond orders larger than 0.1
B(  6-C ,  7-O ) :   1.0007 B(  6-C ,  9-H ) :   0.9762 B(  6-C , 10-H ) :   0.9752
B(  6-C , 11-H ) :   0.9752 B(  7-O ,  8-H ) :   0.9045

Dispersion correction           -0.000225163
FINAL SINGLE POINT ENERGY      -115.730755687652

DIPOLE MOMENT
-------------
                                X             Y             Z
Electronic contribution:     -1.74598      -0.10606       0.60888
Nuclear contribution   :      2.37316      -0.11639      -0.40602
                        -----------------------------------------
Total Dipole Moment    :      0.62717      -0.22245       0.20285
                        -----------------------------------------
Magnitude (a.u.)       :      0.69569
Magnitude (Debye)      :      1.76829

Rotational constants in cm-1:     4.178462     0.828641     0.802731
Rotational constants in MHz : 125267.131896 24842.044021 24065.270592

                             ****ORCA TERMINATED NORMALLY****
TOTAL RUN TIME: 0 days 0 hours 0 minutes 52 seconds 332 msec
