                         Program Version 4.1.2  - RELEASE  -
|  1> #Run DFT-D3 single point of the dimer
|  2> ! wB97X-D3 def2-TZVP TIGHTSCF CHELPG PMODEL PAL8
|  3>
|  4> %base "1-89_DFT_AB"
|  5>
|  6> %scf
|  7> MaxIter 1000
|  8> end
|  9>
| 10> * xyz 0 1
| 11>   C                      -7.546642            5.310844             -2.485952
| 12>   O                      -6.537382            4.702897             -1.704250
| 13>   H                      -6.634103            3.799627             -2.072274
| 14>   H                      -7.343214            5.297082             -3.570693
| 15>   H                      -8.497672            4.889586             -2.433377
| 16>   H                      -7.670592            6.410111             -2.234567
| 17>   C                      -6.007525            0.719577             -5.165617
| 18>   O                      -5.288869            -0.366736            -4.688007
| 19>   H                      -4.697199            -0.017143            -3.986551
| 20>   H                      -6.138458            1.446479             -4.407302
| 21>   H                      -5.491388            1.206713             -5.993814
| 22>   H                      -7.019451            0.520882             -5.454482
| 23> *
| 24>
| 25> #Run DFT-D3 single point of the molecule with dimer basis set
| 26> $new_job
| 27> %base "1-89_DFT_A"
| 28> ! wB97X-D3 def2-TZVP TIGHTSCF CHELPG PMODEL
| 29>
| 30> %scf
| 31> MaxIter 1000
| 32> end
| 33>
| 34> * xyz 0 1
| 35>   C                      -7.546642            5.310844             -2.485952
| 36>   O                      -6.537382            4.702897             -1.704250
| 37>   H                      -6.634103            3.799627             -2.072274
| 38>   H                      -7.343214            5.297082             -3.570693
| 39>   H                      -8.497672            4.889586             -2.433377
| 40>   H                      -7.670592            6.410111             -2.234567
| 41>   C                    : -6.007525            0.719577             -5.165617
| 42>   O                    : -5.288869            -0.366736            -4.688007
| 43>   H                    : -4.697199            -0.017143            -3.986551
| 44>   H                    : -6.138458            1.446479             -4.407302
| 45>   H                    : -5.491388            1.206713             -5.993814
| 46>   H                    : -7.019451            0.520882             -5.454482
| 47> *
| 48>
| 49> #Run DFT-D3 single point of the particle with dimer basis set
| 50> $new_job
| 51> %base "1-89_DFT_B"
| 52> ! wB97X-D3 def2-TZVP TIGHTSCF CHELPG PMODEL
| 53>
| 54> %scf
| 55> MaxIter 1000
| 56> end
| 57>
| 58> * xyz 0 1
| 59>   C                    : -7.546642            5.310844             -2.485952
| 60>   O                    : -6.537382            4.702897             -1.704250
| 61>   H                    : -6.634103            3.799627             -2.072274
| 62>   H                    : -7.343214            5.297082             -3.570693
| 63>   H                    : -8.497672            4.889586             -2.433377
| 64>   H                    : -7.670592            6.410111             -2.234567
| 65>   C                      -6.007525            0.719577             -5.165617
| 66>   O                      -5.288869            -0.366736            -4.688007
| 67>   H                      -4.697199            -0.017143            -3.986551
| 68>   H                      -6.138458            1.446479             -4.407302
| 69>   H                      -5.491388            1.206713             -5.993814
| 70>   H                      -7.019451            0.520882             -5.454482
| 71> *
| 72>
| 73>                          ****END OF INPUT****
 Total Charge           Charge          ....    0
 Multiplicity           Mult            ....    1
 Number of Electrons    NEL             ....   36
Dispersion correction           -0.000743889
FINAL SINGLE POINT ENERGY      -231.459612797296
Dispersion correction           -0.000227655
FINAL SINGLE POINT ENERGY      -115.728015189972

CARTESIAN COORDINATES (ANGSTROEM)
---------------------------------
  C     -7.546642    5.310844   -2.485952
  O     -6.537382    4.702897   -1.704250
  H     -6.634103    3.799627   -2.072274
  H     -7.343214    5.297082   -3.570693
  H     -8.497672    4.889586   -2.433377
  H     -7.670592    6.410111   -2.234567
  C     -6.007525    0.719577   -5.165617
  O     -5.288869   -0.366736   -4.688007
  H     -4.697199   -0.017143   -3.986551
  H     -6.138458    1.446479   -4.407302
  H     -5.491388    1.206713   -5.993814
  H     -7.019451    0.520882   -5.454482

 Multiplicity           Mult            ....    1
 Number of Electrons    NEL             ....   18
 Basis Dimension        Dim             ....  172

ORBITAL ENERGIES
----------------

  NO   OCC          E(Eh)            E(eV)
   0   2.0000     -19.232018      -523.3298
   1   2.0000     -10.303584      -280.3748
   2   2.0000      -1.141679       -31.0667
   3   2.0000      -0.797502       -21.7011
   4   2.0000      -0.616215       -16.7681
   5   2.0000      -0.547826       -14.9071
   6   2.0000      -0.532686       -14.4951
   7   2.0000      -0.429508       -11.6875
   8   2.0000      -0.373180       -10.1547
   9   0.0000       0.078934         2.1479
  10   0.0000       0.112273         3.0551
  11   0.0000       0.149964         4.0807
  12   0.0000       0.167722         4.5639
  13   0.0000       0.188234         5.1221

MULLIKEN ATOMIC CHARGES
-----------------------
   0 C :    0.000010
   1 O :    0.000018
   2 H :   -0.000122
   3 H :   -0.000063
   4 H :   -0.000009
   5 H :   -0.000004
   6 C :   -0.157277
   7 O :   -0.469747
   8 H :    0.320853
   9 H :    0.100683
  10 H :    0.095512
  11 H :    0.110147
Sum of atomic charges:   -0.0000000

LOEWDIN ATOMIC CHARGES
----------------------
   0 C :   -0.000078
   1 O :   -0.000010
   2 H :   -0.000481
   3 H :   -0.000035
   4 H :   -0.000002
   5 H :   -0.000001
   6 C :   -0.404325
   7 O :   -0.066846
   8 H :    0.187861
   9 H :    0.088885
  10 H :    0.094601
  11 H :    0.100432

  Mayer bond orders larger than 0.1
B(  6-C ,  7-O ) :   1.0122 B(  6-C ,  9-H ) :   0.9900 B(  6-C , 10-H ) :   0.9782
B(  6-C , 11-H ) :   0.9724 B(  7-O ,  8-H ) :   0.8950

Dispersion correction           -0.000225414
FINAL SINGLE POINT ENERGY      -115.731676141802

DIPOLE MOMENT
-------------
                                X             Y             Z
Electronic contribution:      0.85825      -1.60847       0.51207
Nuclear contribution   :     -0.78096       2.25584      -0.21902
                        -----------------------------------------
Total Dipole Moment    :      0.07729       0.64737       0.29305
                        -----------------------------------------
Magnitude (a.u.)       :      0.71480
Magnitude (Debye)      :      1.81688

Rotational constants in cm-1:     4.467505     0.852553     0.827560
Rotational constants in MHz : 133932.434042 25558.893153 24809.622129

                             ****ORCA TERMINATED NORMALLY****
TOTAL RUN TIME: 0 days 0 hours 5 minutes 50 seconds 900 msec
