                         Program Version 4.1.2  - RELEASE  -
|  1> #Run DFT-D3 single point of the dimer
|  2> ! wB97X-D3 def2-TZVP TIGHTSCF CHELPG PMODEL PAL8
|  3>
|  4> %base "19-65_DFT_AB"
|  5>
|  6> %scf
|  7> MaxIter 1000
|  8> end
|  9>
| 10> * xyz 0 1
| 11>   C                      -7.284692            9.448034             8.888117
| 12>   O                      -8.112072            10.027242            9.933787
| 13>   H                      -7.642018            10.829037            10.204778
| 14>   H                      -6.230103            9.391925             9.178771
| 15>   H                      -7.543175            8.418381             8.673947
| 16>   H                      -7.374277            10.050018            7.969878
| 17>   C                      -5.411933            6.161078             8.174348
| 18>   O                      -6.549629            5.712123             7.433316
| 19>   H                      -7.322765            5.657265             8.101980
| 20>   H                      -5.608401            7.113157             8.778625
| 21>   H                      -5.135559            5.374505             8.893304
| 22>   H                      -4.564991            6.428884             7.514944
| 23> *
| 24>
| 25> #Run DFT-D3 single point of the molecule with dimer basis set
| 26> $new_job
| 27> %base "19-65_DFT_A"
| 28> ! wB97X-D3 def2-TZVP TIGHTSCF CHELPG PMODEL
| 29>
| 30> %scf
| 31> MaxIter 1000
| 32> end
| 33>
| 34> * xyz 0 1
| 35>   C                      -7.284692            9.448034             8.888117
| 36>   O                      -8.112072            10.027242            9.933787
| 37>   H                      -7.642018            10.829037            10.204778
| 38>   H                      -6.230103            9.391925             9.178771
| 39>   H                      -7.543175            8.418381             8.673947
| 40>   H                      -7.374277            10.050018            7.969878
| 41>   C                    : -5.411933            6.161078             8.174348
| 42>   O                    : -6.549629            5.712123             7.433316
| 43>   H                    : -7.322765            5.657265             8.101980
| 44>   H                    : -5.608401            7.113157             8.778625
| 45>   H                    : -5.135559            5.374505             8.893304
| 46>   H                    : -4.564991            6.428884             7.514944
| 47> *
| 48>
| 49> #Run DFT-D3 single point of the particle with dimer basis set
| 50> $new_job
| 51> %base "19-65_DFT_B"
| 52> ! wB97X-D3 def2-TZVP TIGHTSCF CHELPG PMODEL
| 53>
| 54> %scf
| 55> MaxIter 1000
| 56> end
| 57>
| 58> * xyz 0 1
| 59>   C                    : -7.284692            9.448034             8.888117
| 60>   O                    : -8.112072            10.027242            9.933787
| 61>   H                    : -7.642018            10.829037            10.204778
| 62>   H                    : -6.230103            9.391925             9.178771
| 63>   H                    : -7.543175            8.418381             8.673947
| 64>   H                    : -7.374277            10.050018            7.969878
| 65>   C                      -5.411933            6.161078             8.174348
| 66>   O                      -6.549629            5.712123             7.433316
| 67>   H                      -7.322765            5.657265             8.101980
| 68>   H                      -5.608401            7.113157             8.778625
| 69>   H                      -5.135559            5.374505             8.893304
| 70>   H                      -4.564991            6.428884             7.514944
| 71> *
| 72>
| 73>                          ****END OF INPUT****
 Total Charge           Charge          ....    0
 Multiplicity           Mult            ....    1
 Number of Electrons    NEL             ....   36
Dispersion correction           -0.001618379
FINAL SINGLE POINT ENERGY      -231.466211424596
Dispersion correction           -0.000251047
FINAL SINGLE POINT ENERGY      -115.734735009717

CARTESIAN COORDINATES (ANGSTROEM)
---------------------------------
  C     -7.284692    9.448034    8.888117
  O     -8.112072   10.027242    9.933787
  H     -7.642018   10.829037   10.204778
  H     -6.230103    9.391925    9.178771
  H     -7.543175    8.418381    8.673947
  H     -7.374277   10.050018    7.969878
  C     -5.411933    6.161078    8.174348
  O     -6.549629    5.712123    7.433316
  H     -7.322765    5.657265    8.101980
  H     -5.608401    7.113157    8.778625
  H     -5.135559    5.374505    8.893304
  H     -4.564991    6.428884    7.514944

 Multiplicity           Mult            ....    1
 Number of Electrons    NEL             ....   18
 Basis Dimension        Dim             ....  172

ORBITAL ENERGIES
----------------

  NO   OCC          E(Eh)            E(eV)
   0   2.0000     -19.237840      -523.4882
   1   2.0000     -10.321653      -280.8664
   2   2.0000      -1.122360       -30.5410
   3   2.0000      -0.785190       -21.3661
   4   2.0000      -0.598728       -16.2922
   5   2.0000      -0.540064       -14.6959
   6   2.0000      -0.520174       -14.1547
   7   2.0000      -0.433214       -11.7883
   8   2.0000      -0.371918       -10.1204
   9   0.0000       0.081383         2.2145
  10   0.0000       0.113748         3.0952
  11   0.0000       0.148435         4.0391
  12   0.0000       0.175664         4.7801
  13   0.0000       0.186817         5.0836

MULLIKEN ATOMIC CHARGES
-----------------------
   0 C :    0.004419
   1 O :    0.000138
   2 H :    0.000020
   3 H :   -0.000870
   4 H :   -0.006474
   5 H :   -0.000153
   6 C :   -0.180168
   7 O :   -0.472680
   8 H :    0.319070
   9 H :    0.095316
  10 H :    0.114760
  11 H :    0.126622
Sum of atomic charges:    0.0000000

LOEWDIN ATOMIC CHARGES
----------------------
   0 C :   -0.007404
   1 O :   -0.000028
   2 H :   -0.000004
   3 H :   -0.004028
   4 H :   -0.004572
   5 H :   -0.000067
   6 C :   -0.387391
   7 O :   -0.114268
   8 H :    0.204461
   9 H :    0.106480
  10 H :    0.095925
  11 H :    0.110895

  Mayer bond orders larger than 0.1
B(  6-C ,  7-O ) :   0.9942 B(  6-C ,  9-H ) :   0.9708 B(  6-C , 10-H ) :   0.9788
B(  6-C , 11-H ) :   0.9689 B(  7-O ,  8-H ) :   0.8900

Dispersion correction           -0.000256489
FINAL SINGLE POINT ENERGY      -115.730784772135

DIPOLE MOMENT
-------------
                                X             Y             Z
Electronic contribution:     -1.32934      -0.64108      -1.18662
Nuclear contribution   :      1.31684       0.78013       1.86784
                        -----------------------------------------
Total Dipole Moment    :     -0.01250       0.13905       0.68122
                        -----------------------------------------
Magnitude (a.u.)       :      0.69538
Magnitude (Debye)      :      1.76751

Rotational constants in cm-1:     4.053240     0.809313     0.777167
Rotational constants in MHz : 121513.070663 24262.579114 23298.893588

                             ****ORCA TERMINATED NORMALLY****
TOTAL RUN TIME: 0 days 0 hours 0 minutes 49 seconds 23 msec
