                         Program Version 4.1.2  - RELEASE  -
|  1> #Run DFT-D3 single point of the dimer
|  2> ! wB97X-D3 def2-TZVP TIGHTSCF CHELPG PMODEL PAL8
|  3>
|  4> %base "17-31_DFT_AB"
|  5>
|  6> %scf
|  7> MaxIter 1000
|  8> end
|  9>
| 10> * xyz 0 1
| 11>   C                      -1.552654            -0.347999            4.263472
| 12>   O                      -0.675985            -0.786314            3.238730
| 13>   H                      -1.311521            -0.903148            2.507645
| 14>   H                      -1.893925            0.644904             3.934240
| 15>   H                      -2.420135            -0.936720            4.503697
| 16>   H                      -1.047543            -0.169033            5.200596
| 17>   C                      2.355240             -2.454265            4.500400
| 18>   O                      1.557047             -1.491669            5.120691
| 19>   H                      0.839192             -1.464947            4.509415
| 20>   H                      3.343584             -2.521463            5.023951
| 21>   H                      1.874623             -3.396474            4.477186
| 22>   H                      2.630255             -2.169760            3.462178
| 23> *
| 24>
| 25> #Run DFT-D3 single point of the molecule with dimer basis set
| 26> $new_job
| 27> %base "17-31_DFT_A"
| 28> ! wB97X-D3 def2-TZVP TIGHTSCF CHELPG PMODEL
| 29>
| 30> %scf
| 31> MaxIter 1000
| 32> end
| 33>
| 34> * xyz 0 1
| 35>   C                      -1.552654            -0.347999            4.263472
| 36>   O                      -0.675985            -0.786314            3.238730
| 37>   H                      -1.311521            -0.903148            2.507645
| 38>   H                      -1.893925            0.644904             3.934240
| 39>   H                      -2.420135            -0.936720            4.503697
| 40>   H                      -1.047543            -0.169033            5.200596
| 41>   C                    : 2.355240             -2.454265            4.500400
| 42>   O                    : 1.557047             -1.491669            5.120691
| 43>   H                    : 0.839192             -1.464947            4.509415
| 44>   H                    : 3.343584             -2.521463            5.023951
| 45>   H                    : 1.874623             -3.396474            4.477186
| 46>   H                    : 2.630255             -2.169760            3.462178
| 47> *
| 48>
| 49> #Run DFT-D3 single point of the particle with dimer basis set
| 50> $new_job
| 51> %base "17-31_DFT_B"
| 52> ! wB97X-D3 def2-TZVP TIGHTSCF CHELPG PMODEL
| 53>
| 54> %scf
| 55> MaxIter 1000
| 56> end
| 57>
| 58> * xyz 0 1
| 59>   C                    : -1.552654            -0.347999            4.263472
| 60>   O                    : -0.675985            -0.786314            3.238730
| 61>   H                    : -1.311521            -0.903148            2.507645
| 62>   H                    : -1.893925            0.644904             3.934240
| 63>   H                    : -2.420135            -0.936720            4.503697
| 64>   H                    : -1.047543            -0.169033            5.200596
| 65>   C                      2.355240             -2.454265            4.500400
| 66>   O                      1.557047             -1.491669            5.120691
| 67>   H                      0.839192             -1.464947            4.509415
| 68>   H                      3.343584             -2.521463            5.023951
| 69>   H                      1.874623             -3.396474            4.477186
| 70>   H                      2.630255             -2.169760            3.462178
| 71> *
| 72>
| 73>                          ****END OF INPUT****
 Total Charge           Charge          ....    0
 Multiplicity           Mult            ....    1
 Number of Electrons    NEL             ....   36
Dispersion correction           -0.001654789
FINAL SINGLE POINT ENERGY      -231.470871093545
Dispersion correction           -0.000224197
FINAL SINGLE POINT ENERGY      -115.731104527595

CARTESIAN COORDINATES (ANGSTROEM)
---------------------------------
  C     -1.552654   -0.347999    4.263472
  O     -0.675985   -0.786314    3.238730
  H     -1.311521   -0.903148    2.507645
  H     -1.893925    0.644904    3.934240
  H     -2.420135   -0.936720    4.503697
  H     -1.047543   -0.169033    5.200596
  C      2.355240   -2.454265    4.500400
  O      1.557047   -1.491669    5.120691
  H      0.839192   -1.464947    4.509415
  H      3.343584   -2.521463    5.023951
  H      1.874623   -3.396474    4.477186
  H      2.630255   -2.169760    3.462178

 Multiplicity           Mult            ....    1
 Number of Electrons    NEL             ....   18
 Basis Dimension        Dim             ....  172

ORBITAL ENERGIES
----------------

  NO   OCC          E(Eh)            E(eV)
   0   2.0000     -19.232022      -523.3299
   1   2.0000     -10.312421      -280.6152
   2   2.0000      -1.152473       -31.3604
   3   2.0000      -0.791825       -21.5467
   4   2.0000      -0.616615       -16.7789
   5   2.0000      -0.551275       -15.0010
   6   2.0000      -0.524877       -14.2826
   7   2.0000      -0.439617       -11.9626
   8   2.0000      -0.375848       -10.2273
   9   0.0000       0.074499         2.0272
  10   0.0000       0.129718         3.5298
  11   0.0000       0.160818         4.3761
  12   0.0000       0.167068         4.5462
  13   0.0000       0.194714         5.2984

MULLIKEN ATOMIC CHARGES
-----------------------
   0 C :   -0.002777
   1 O :   -0.001226
   2 H :   -0.000061
   3 H :    0.000174
   4 H :    0.000339
   5 H :   -0.001045
   6 C :   -0.176255
   7 O :   -0.447021
   8 H :    0.309836
   9 H :    0.114722
  10 H :    0.108809
  11 H :    0.094506
Sum of atomic charges:    0.0000000

LOEWDIN ATOMIC CHARGES
----------------------
   0 C :   -0.008132
   1 O :   -0.012559
   2 H :   -0.000451
   3 H :   -0.000121
   4 H :   -0.000101
   5 H :   -0.002583
   6 C :   -0.403166
   7 O :   -0.041850
   8 H :    0.171769
   9 H :    0.114322
  10 H :    0.086748
  11 H :    0.096125

  Mayer bond orders larger than 0.1
B(  6-C ,  7-O ) :   0.9965 B(  6-C ,  9-H ) :   0.9734 B(  6-C , 10-H ) :   0.9781
B(  6-C , 11-H ) :   0.9781 B(  7-O ,  8-H ) :   0.9108

Dispersion correction           -0.000208764
FINAL SINGLE POINT ENERGY      -115.732811927612

DIPOLE MOMENT
-------------
                                X             Y             Z
Electronic contribution:     -1.02519       1.23244       0.98635
Nuclear contribution   :      0.88867      -1.57983      -1.59118
                        -----------------------------------------
Total Dipole Moment    :     -0.13652      -0.34740      -0.60483
                        -----------------------------------------
Magnitude (a.u.)       :      0.71074
Magnitude (Debye)      :      1.80655

Rotational constants in cm-1:     4.251883     0.859445     0.825004
Rotational constants in MHz : 127468.260373 25765.507041 24732.999878

                             ****ORCA TERMINATED NORMALLY****
TOTAL RUN TIME: 0 days 0 hours 1 minutes 12 seconds 69 msec
