                         Program Version 4.1.2  - RELEASE  -
|  1> #Run DFT-D3 single point of the dimer
|  2> ! wB97X-D3 def2-TZVP TIGHTSCF CHELPG PMODEL PAL8
|  3>
|  4> %base "8-201_DFT_AB"
|  5>
|  6> %scf
|  7> MaxIter 1000
|  8> end
|  9>
| 10> * xyz 0 1
| 11>   C                      1.269871             9.879331             -0.599120
| 12>   O                      0.550984             10.401373            -1.687121
| 13>   H                      1.012664             10.160186            -2.532134
| 14>   H                      2.167690             10.427401            -0.377676
| 15>   H                      0.681937             9.939211             0.333634
| 16>   H                      1.542014             8.821029             -0.738487
| 17>   C                      -0.106739            9.521801             -5.307521
| 18>   O                      0.614074             9.137865             -4.140551
| 19>   H                      1.175984             8.393284             -4.348319
| 20>   H                      -0.119439            8.705154             -6.072556
| 21>   H                      -1.199206            9.672196             -5.112654
| 22>   H                      0.292130             10.479332            -5.655162
| 23> *
| 24>
| 25> #Run DFT-D3 single point of the molecule with dimer basis set
| 26> $new_job
| 27> %base "8-201_DFT_A"
| 28> ! wB97X-D3 def2-TZVP TIGHTSCF CHELPG PMODEL
| 29>
| 30> %scf
| 31> MaxIter 1000
| 32> end
| 33>
| 34> * xyz 0 1
| 35>   C                      1.269871             9.879331             -0.599120
| 36>   O                      0.550984             10.401373            -1.687121
| 37>   H                      1.012664             10.160186            -2.532134
| 38>   H                      2.167690             10.427401            -0.377676
| 39>   H                      0.681937             9.939211             0.333634
| 40>   H                      1.542014             8.821029             -0.738487
| 41>   C                    : -0.106739            9.521801             -5.307521
| 42>   O                    : 0.614074             9.137865             -4.140551
| 43>   H                    : 1.175984             8.393284             -4.348319
| 44>   H                    : -0.119439            8.705154             -6.072556
| 45>   H                    : -1.199206            9.672196             -5.112654
| 46>   H                    : 0.292130             10.479332            -5.655162
| 47> *
| 48>
| 49> #Run DFT-D3 single point of the particle with dimer basis set
| 50> $new_job
| 51> %base "8-201_DFT_B"
| 52> ! wB97X-D3 def2-TZVP TIGHTSCF CHELPG PMODEL
| 53>
| 54> %scf
| 55> MaxIter 1000
| 56> end
| 57>
| 58> * xyz 0 1
| 59>   C                    : 1.269871             9.879331             -0.599120
| 60>   O                    : 0.550984             10.401373            -1.687121
| 61>   H                    : 1.012664             10.160186            -2.532134
| 62>   H                    : 2.167690             10.427401            -0.377676
| 63>   H                    : 0.681937             9.939211             0.333634
| 64>   H                    : 1.542014             8.821029             -0.738487
| 65>   C                      -0.106739            9.521801             -5.307521
| 66>   O                      0.614074             9.137865             -4.140551
| 67>   H                      1.175984             8.393284             -4.348319
| 68>   H                      -0.119439            8.705154             -6.072556
| 69>   H                      -1.199206            9.672196             -5.112654
| 70>   H                      0.292130             10.479332            -5.655162
| 71> *
| 72>
| 73>                          ****END OF INPUT****
 Total Charge           Charge          ....    0
 Multiplicity           Mult            ....    1
 Number of Electrons    NEL             ....   36
Dispersion correction           -0.001555524
FINAL SINGLE POINT ENERGY      -231.473815754783
Dispersion correction           -0.000249384
FINAL SINGLE POINT ENERGY      -115.735600477888

CARTESIAN COORDINATES (ANGSTROEM)
---------------------------------
  C      1.269871    9.879331   -0.599120
  O      0.550984   10.401373   -1.687121
  H      1.012664   10.160186   -2.532134
  H      2.167690   10.427401   -0.377676
  H      0.681937    9.939211    0.333634
  H      1.542014    8.821029   -0.738487
  C     -0.106739    9.521801   -5.307521
  O      0.614074    9.137865   -4.140551
  H      1.175984    8.393284   -4.348319
  H     -0.119439    8.705154   -6.072556
  H     -1.199206    9.672196   -5.112654
  H      0.292130   10.479332   -5.655162

 Multiplicity           Mult            ....    1
 Number of Electrons    NEL             ....   18
 Basis Dimension        Dim             ....  172

ORBITAL ENERGIES
----------------

  NO   OCC          E(Eh)            E(eV)
   0   2.0000     -19.229798      -523.2694
   1   2.0000     -10.320646      -280.8391
   2   2.0000      -1.133571       -30.8460
   3   2.0000      -0.793443       -21.5907
   4   2.0000      -0.609085       -16.5740
   5   2.0000      -0.541996       -14.7485
   6   2.0000      -0.524227       -14.2649
   7   2.0000      -0.429512       -11.6876
   8   2.0000      -0.373925       -10.1750
   9   0.0000       0.099223         2.7000
  10   0.0000       0.120888         3.2895
  11   0.0000       0.151432         4.1207
  12   0.0000       0.185735         5.0541
  13   0.0000       0.201967         5.4958

MULLIKEN ATOMIC CHARGES
-----------------------
   0 C :    0.000171
   1 O :    0.002709
   2 H :   -0.013131
   3 H :   -0.000180
   4 H :   -0.000006
   5 H :   -0.000866
   6 C :   -0.159016
   7 O :   -0.471632
   8 H :    0.317179
   9 H :    0.104525
  10 H :    0.110746
  11 H :    0.109500
Sum of atomic charges:    0.0000000

LOEWDIN ATOMIC CHARGES
----------------------
   0 C :   -0.002164
   1 O :   -0.008817
   2 H :   -0.042153
   3 H :   -0.000028
   4 H :   -0.000022
   5 H :   -0.000411
   6 C :   -0.379856
   7 O :   -0.040954
   8 H :    0.166036
   9 H :    0.102821
  10 H :    0.106745
  11 H :    0.098803

  Mayer bond orders larger than 0.1
B(  6-C ,  7-O ) :   0.9952 B(  6-C ,  9-H ) :   0.9769 B(  6-C , 10-H ) :   0.9724
B(  6-C , 11-H ) :   0.9794 B(  7-O ,  8-H ) :   0.8977

Dispersion correction           -0.000260322
FINAL SINGLE POINT ENERGY      -115.733516892038

DIPOLE MOMENT
-------------
                                X             Y             Z
Electronic contribution:      0.93305      -0.37927       1.53205
Nuclear contribution   :     -0.87283       0.03032      -2.14407
                        -----------------------------------------
Total Dipole Moment    :      0.06022      -0.34895      -0.61202
                        -----------------------------------------
Magnitude (a.u.)       :      0.70708
Magnitude (Debye)      :      1.79725

Rotational constants in cm-1:     4.222461     0.815510     0.787804
Rotational constants in MHz : 126586.209637 24448.364872 23617.775095

                             ****ORCA TERMINATED NORMALLY****
TOTAL RUN TIME: 0 days 0 hours 0 minutes 46 seconds 248 msec
