                         Program Version 4.1.2  - RELEASE  -
|  1> #Run DFT-D3 single point of the dimer
|  2> ! wB97X-D3 def2-TZVP TIGHTSCF CHELPG PMODEL PAL8
|  3>
|  4> %base "11-98_DFT_AB"
|  5>
|  6> %scf
|  7> MaxIter 1000
|  8> end
|  9>
| 10> * xyz 0 1
| 11>   C                      -3.641882            -6.013494            -3.653541
| 12>   O                      -3.109496            -5.033797            -2.834084
| 13>   H                      -2.177298            -4.956198            -2.865698
| 14>   H                      -3.149717            -6.980031            -3.450855
| 15>   H                      -4.734627            -6.165777            -3.567122
| 16>   H                      -3.537758            -5.813317            -4.687027
| 17>   C                      -1.458023            -9.361452            -1.350256
| 18>   O                      -2.491305            -10.012181           -2.059655
| 19>   H                      -2.108156            -10.847081           -2.527801
| 20>   H                      -1.862260            -8.668399            -0.598521
| 21>   H                      -0.890676            -10.071587           -0.780628
| 22>   H                      -0.726148            -8.954418            -2.036233
| 23> *
| 24>
| 25> #Run DFT-D3 single point of the molecule with dimer basis set
| 26> $new_job
| 27> %base "11-98_DFT_A"
| 28> ! wB97X-D3 def2-TZVP TIGHTSCF CHELPG PMODEL
| 29>
| 30> %scf
| 31> MaxIter 1000
| 32> end
| 33>
| 34> * xyz 0 1
| 35>   C                      -3.641882            -6.013494            -3.653541
| 36>   O                      -3.109496            -5.033797            -2.834084
| 37>   H                      -2.177298            -4.956198            -2.865698
| 38>   H                      -3.149717            -6.980031            -3.450855
| 39>   H                      -4.734627            -6.165777            -3.567122
| 40>   H                      -3.537758            -5.813317            -4.687027
| 41>   C                    : -1.458023            -9.361452            -1.350256
| 42>   O                    : -2.491305            -10.012181           -2.059655
| 43>   H                    : -2.108156            -10.847081           -2.527801
| 44>   H                    : -1.862260            -8.668399            -0.598521
| 45>   H                    : -0.890676            -10.071587           -0.780628
| 46>   H                    : -0.726148            -8.954418            -2.036233
| 47> *
| 48>
| 49> #Run DFT-D3 single point of the particle with dimer basis set
| 50> $new_job
| 51> %base "11-98_DFT_B"
| 52> ! wB97X-D3 def2-TZVP TIGHTSCF CHELPG PMODEL
| 53>
| 54> %scf
| 55> MaxIter 1000
| 56> end
| 57>
| 58> * xyz 0 1
| 59>   C                    : -3.641882            -6.013494            -3.653541
| 60>   O                    : -3.109496            -5.033797            -2.834084
| 61>   H                    : -2.177298            -4.956198            -2.865698
| 62>   H                    : -3.149717            -6.980031            -3.450855
| 63>   H                    : -4.734627            -6.165777            -3.567122
| 64>   H                    : -3.537758            -5.813317            -4.687027
| 65>   C                      -1.458023            -9.361452            -1.350256
| 66>   O                      -2.491305            -10.012181           -2.059655
| 67>   H                      -2.108156            -10.847081           -2.527801
| 68>   H                      -1.862260            -8.668399            -0.598521
| 69>   H                      -0.890676            -10.071587           -0.780628
| 70>   H                      -0.726148            -8.954418            -2.036233
| 71> *
| 72>
| 73>                          ****END OF INPUT****
 Total Charge           Charge          ....    0
 Multiplicity           Mult            ....    1
 Number of Electrons    NEL             ....   36
Dispersion correction           -0.001104794
FINAL SINGLE POINT ENERGY      -231.461660106723
Dispersion correction           -0.000242879
FINAL SINGLE POINT ENERGY      -115.731570468441

CARTESIAN COORDINATES (ANGSTROEM)
---------------------------------
  C     -3.641882   -6.013494   -3.653541
  O     -3.109496   -5.033797   -2.834084
  H     -2.177298   -4.956198   -2.865698
  H     -3.149717   -6.980031   -3.450855
  H     -4.734627   -6.165777   -3.567122
  H     -3.537758   -5.813317   -4.687027
  C     -1.458023   -9.361452   -1.350256
  O     -2.491305  -10.012181   -2.059655
  H     -2.108156  -10.847081   -2.527801
  H     -1.862260   -8.668399   -0.598521
  H     -0.890676  -10.071587   -0.780628
  H     -0.726148   -8.954418   -2.036233

 Multiplicity           Mult            ....    1
 Number of Electrons    NEL             ....   18
 Basis Dimension        Dim             ....  172

ORBITAL ENERGIES
----------------

  NO   OCC          E(Eh)            E(eV)
   0   2.0000     -19.233622      -523.3735
   1   2.0000     -10.309129      -280.5257
   2   2.0000      -1.123005       -30.5585
   3   2.0000      -0.791664       -21.5423
   4   2.0000      -0.605773       -16.4839
   5   2.0000      -0.545027       -14.8309
   6   2.0000      -0.521705       -14.1963
   7   2.0000      -0.430581       -11.7167
   8   2.0000      -0.368924       -10.0389
   9   0.0000       0.090679         2.4675
  10   0.0000       0.108906         2.9635
  11   0.0000       0.150047         4.0830
  12   0.0000       0.172640         4.6978
  13   0.0000       0.195394         5.3169

MULLIKEN ATOMIC CHARGES
-----------------------
   0 C :    0.000303
   1 O :   -0.000003
   2 H :   -0.000008
   3 H :   -0.001607
   4 H :    0.000003
   5 H :   -0.000023
   6 C :   -0.164731
   7 O :   -0.485336
   8 H :    0.317162
   9 H :    0.124747
  10 H :    0.103859
  11 H :    0.105633
Sum of atomic charges:   -0.0000000

LOEWDIN ATOMIC CHARGES
----------------------
   0 C :   -0.000366
   1 O :   -0.000021
   2 H :   -0.000030
   3 H :   -0.001371
   4 H :   -0.000008
   5 H :   -0.000002
   6 C :   -0.391830
   7 O :   -0.108575
   8 H :    0.207416
   9 H :    0.111944
  10 H :    0.089960
  11 H :    0.092882

  Mayer bond orders larger than 0.1
B(  6-C ,  7-O ) :   0.9848 B(  6-C ,  9-H ) :   0.9696 B(  6-C , 10-H ) :   0.9805
B(  6-C , 11-H ) :   0.9788 B(  7-O ,  8-H ) :   0.8874

Dispersion correction           -0.000234515
FINAL SINGLE POINT ENERGY      -115.729172933968

DIPOLE MOMENT
-------------
                                X             Y             Z
Electronic contribution:     -1.46796      -0.59831      -0.85573
Nuclear contribution   :      2.12918       0.31642       0.87962
                        -----------------------------------------
Total Dipole Moment    :      0.66122      -0.28188       0.02389
                        -----------------------------------------
Magnitude (a.u.)       :      0.71919
Magnitude (Debye)      :      1.82805

Rotational constants in cm-1:     4.238294     0.834979     0.795088
Rotational constants in MHz : 127060.860703 25032.046074 23836.132441

                             ****ORCA TERMINATED NORMALLY****
TOTAL RUN TIME: 0 days 0 hours 0 minutes 47 seconds 936 msec
