                         Program Version 4.1.2  - RELEASE  -
|  1> #Run DFT-D3 single point of the dimer
|  2> ! wB97X-D3 def2-TZVP TIGHTSCF CHELPG PMODEL PAL8
|  3>
|  4> %base "18-64_DFT_AB"
|  5>
|  6> %scf
|  7> MaxIter 1000
|  8> end
|  9>
| 10> * xyz 0 1
| 11>   C                      1.360282             -4.777872            -0.154041
| 12>   O                      0.112124             -4.454516            0.466890
| 13>   H                      0.255263             -3.645348            0.929075
| 14>   H                      1.579164             -4.006664            -0.829384
| 15>   H                      2.089112             -4.804114            0.602860
| 16>   H                      1.466500             -5.741228            -0.685839
| 17>   C                      -0.304787            0.711468             -1.671236
| 18>   O                      -0.358913            0.136075             -0.411054
| 19>   H                      -0.991350            0.716798             0.069101
| 20>   H                      -0.935680            0.160877             -2.344525
| 21>   H                      -0.561862            1.807531             -1.623286
| 22>   H                      0.713129             0.581412             -2.045958
| 23> *
| 24>
| 25> #Run DFT-D3 single point of the molecule with dimer basis set
| 26> $new_job
| 27> %base "18-64_DFT_A"
| 28> ! wB97X-D3 def2-TZVP TIGHTSCF CHELPG PMODEL
| 29>
| 30> %scf
| 31> MaxIter 1000
| 32> end
| 33>
| 34> * xyz 0 1
| 35>   C                      1.360282             -4.777872            -0.154041
| 36>   O                      0.112124             -4.454516            0.466890
| 37>   H                      0.255263             -3.645348            0.929075
| 38>   H                      1.579164             -4.006664            -0.829384
| 39>   H                      2.089112             -4.804114            0.602860
| 40>   H                      1.466500             -5.741228            -0.685839
| 41>   C                    : -0.304787            0.711468             -1.671236
| 42>   O                    : -0.358913            0.136075             -0.411054
| 43>   H                    : -0.991350            0.716798             0.069101
| 44>   H                    : -0.935680            0.160877             -2.344525
| 45>   H                    : -0.561862            1.807531             -1.623286
| 46>   H                    : 0.713129             0.581412             -2.045958
| 47> *
| 48>
| 49> #Run DFT-D3 single point of the particle with dimer basis set
| 50> $new_job
| 51> %base "18-64_DFT_B"
| 52> ! wB97X-D3 def2-TZVP TIGHTSCF CHELPG PMODEL
| 53>
| 54> %scf
| 55> MaxIter 1000
| 56> end
| 57>
| 58> * xyz 0 1
| 59>   C                    : 1.360282             -4.777872            -0.154041
| 60>   O                    : 0.112124             -4.454516            0.466890
| 61>   H                    : 0.255263             -3.645348            0.929075
| 62>   H                    : 1.579164             -4.006664            -0.829384
| 63>   H                    : 2.089112             -4.804114            0.602860
| 64>   H                    : 1.466500             -5.741228            -0.685839
| 65>   C                      -0.304787            0.711468             -1.671236
| 66>   O                      -0.358913            0.136075             -0.411054
| 67>   H                      -0.991350            0.716798             0.069101
| 68>   H                      -0.935680            0.160877             -2.344525
| 69>   H                      -0.561862            1.807531             -1.623286
| 70>   H                      0.713129             0.581412             -2.045958
| 71> *
| 72>
| 73>                          ****END OF INPUT****
 Total Charge           Charge          ....    0
 Multiplicity           Mult            ....    1
 Number of Electrons    NEL             ....   36
Dispersion correction           -0.000655614
FINAL SINGLE POINT ENERGY      -231.461544341491
Dispersion correction           -0.000217386
FINAL SINGLE POINT ENERGY      -115.728429934512

CARTESIAN COORDINATES (ANGSTROEM)
---------------------------------
  C      1.360282   -4.777872   -0.154041
  O      0.112124   -4.454516    0.466890
  H      0.255263   -3.645348    0.929075
  H      1.579164   -4.006664   -0.829384
  H      2.089112   -4.804114    0.602860
  H      1.466500   -5.741228   -0.685839
  C     -0.304787    0.711468   -1.671236
  O     -0.358913    0.136075   -0.411054
  H     -0.991350    0.716798    0.069101
  H     -0.935680    0.160877   -2.344525
  H     -0.561862    1.807531   -1.623286
  H      0.713129    0.581412   -2.045958

 Multiplicity           Mult            ....    1
 Number of Electrons    NEL             ....   18
 Basis Dimension        Dim             ....  172

ORBITAL ENERGIES
----------------

  NO   OCC          E(Eh)            E(eV)
   0   2.0000     -19.231033      -523.3030
   1   2.0000     -10.311034      -280.5775
   2   2.0000      -1.143833       -31.1253
   3   2.0000      -0.787719       -21.4349
   4   2.0000      -0.610846       -16.6220
   5   2.0000      -0.547690       -14.9034
   6   2.0000      -0.528982       -14.3943
   7   2.0000      -0.435225       -11.8431
   8   2.0000      -0.369738       -10.0611
   9   0.0000       0.094120         2.5611
  10   0.0000       0.109904         2.9906
  11   0.0000       0.158349         4.3089
  12   0.0000       0.175442         4.7740
  13   0.0000       0.192589         5.2406

MULLIKEN ATOMIC CHARGES
-----------------------
   0 C :    0.000289
   1 O :    0.000039
   2 H :   -0.000847
   3 H :   -0.000263
   4 H :   -0.000006
   5 H :   -0.000003
   6 C :   -0.159990
   7 O :   -0.461533
   8 H :    0.316618
   9 H :    0.098283
  10 H :    0.097225
  11 H :    0.110188
Sum of atomic charges:   -0.0000000

LOEWDIN ATOMIC CHARGES
----------------------
   0 C :   -0.000029
   1 O :   -0.000023
   2 H :   -0.000442
   3 H :   -0.000047
   4 H :   -0.000000
   5 H :   -0.000000
   6 C :   -0.411449
   7 O :   -0.070450
   8 H :    0.187654
   9 H :    0.089795
  10 H :    0.101363
  11 H :    0.103628

  Mayer bond orders larger than 0.1
B(  6-C ,  7-O ) :   1.0070 B(  6-C ,  9-H ) :   0.9757 B(  6-C , 10-H ) :   0.9859
B(  6-C , 11-H ) :   0.9777 B(  7-O ,  8-H ) :   0.8992

Dispersion correction           -0.000218293
FINAL SINGLE POINT ENERGY      -115.732021527804

DIPOLE MOMENT
-------------
                                X             Y             Z
Electronic contribution:     -0.00818      -0.84549       1.58093
Nuclear contribution   :     -0.35521       1.41876      -1.74520
                        -----------------------------------------
Total Dipole Moment    :     -0.36339       0.57327      -0.16426
                        -----------------------------------------
Magnitude (a.u.)       :      0.69834
Magnitude (Debye)      :      1.77503

Rotational constants in cm-1:     4.114618     0.875114     0.831834
Rotational constants in MHz : 123353.142452 26235.261042 24937.757424

                             ****ORCA TERMINATED NORMALLY****
TOTAL RUN TIME: 0 days 0 hours 0 minutes 52 seconds 647 msec
