                         Program Version 4.1.2  - RELEASE  -
|  1> #Run DFT-D3 single point of the dimer
|  2> ! wB97X-D3 def2-TZVP TIGHTSCF CHELPG PMODEL PAL8
|  3>
|  4> %base "2-155_DFT_AB"
|  5>
|  6> %scf
|  7> MaxIter 1000
|  8> end
|  9>
| 10> * xyz 0 1
| 11>   C                      3.522016             3.639850             -5.642399
| 12>   O                      2.143090             3.550942             -6.096599
| 13>   H                      1.805661             2.673086             -5.987223
| 14>   H                      4.273496             3.105135             -6.260099
| 15>   H                      3.856484             4.635359             -5.653615
| 16>   H                      3.616482             3.242243             -4.599402
| 17>   C                      0.830158             6.375515             -3.351954
| 18>   O                      0.940551             5.032398             -3.766488
| 19>   H                      0.052664             4.669566             -3.840227
| 20>   H                      1.780243             6.766716             -3.040105
| 21>   H                      0.538714             6.865251             -4.300395
| 22>   H                      -0.102038            6.622866             -2.764643
| 23> *
| 24>
| 25> #Run DFT-D3 single point of the molecule with dimer basis set
| 26> $new_job
| 27> %base "2-155_DFT_A"
| 28> ! wB97X-D3 def2-TZVP TIGHTSCF CHELPG PMODEL
| 29>
| 30> %scf
| 31> MaxIter 1000
| 32> end
| 33>
| 34> * xyz 0 1
| 35>   C                      3.522016             3.639850             -5.642399
| 36>   O                      2.143090             3.550942             -6.096599
| 37>   H                      1.805661             2.673086             -5.987223
| 38>   H                      4.273496             3.105135             -6.260099
| 39>   H                      3.856484             4.635359             -5.653615
| 40>   H                      3.616482             3.242243             -4.599402
| 41>   C                    : 0.830158             6.375515             -3.351954
| 42>   O                    : 0.940551             5.032398             -3.766488
| 43>   H                    : 0.052664             4.669566             -3.840227
| 44>   H                    : 1.780243             6.766716             -3.040105
| 45>   H                    : 0.538714             6.865251             -4.300395
| 46>   H                    : -0.102038            6.622866             -2.764643
| 47> *
| 48>
| 49> #Run DFT-D3 single point of the particle with dimer basis set
| 50> $new_job
| 51> %base "2-155_DFT_B"
| 52> ! wB97X-D3 def2-TZVP TIGHTSCF CHELPG PMODEL
| 53>
| 54> %scf
| 55> MaxIter 1000
| 56> end
| 57>
| 58> * xyz 0 1
| 59>   C                    : 3.522016             3.639850             -5.642399
| 60>   O                    : 2.143090             3.550942             -6.096599
| 61>   H                    : 1.805661             2.673086             -5.987223
| 62>   H                    : 4.273496             3.105135             -6.260099
| 63>   H                    : 3.856484             4.635359             -5.653615
| 64>   H                    : 3.616482             3.242243             -4.599402
| 65>   C                      0.830158             6.375515             -3.351954
| 66>   O                      0.940551             5.032398             -3.766488
| 67>   H                      0.052664             4.669566             -3.840227
| 68>   H                      1.780243             6.766716             -3.040105
| 69>   H                      0.538714             6.865251             -4.300395
| 70>   H                      -0.102038            6.622866             -2.764643
| 71> *
| 72>
| 73>                          ****END OF INPUT****
 Total Charge           Charge          ....    0
 Multiplicity           Mult            ....    1
 Number of Electrons    NEL             ....   36
Dispersion correction           -0.001646795
FINAL SINGLE POINT ENERGY      -231.456129554837
Dispersion correction           -0.000278659
FINAL SINGLE POINT ENERGY      -115.733090022607

CARTESIAN COORDINATES (ANGSTROEM)
---------------------------------
  C      3.522016    3.639850   -5.642399
  O      2.143090    3.550942   -6.096599
  H      1.805661    2.673086   -5.987223
  H      4.273496    3.105135   -6.260099
  H      3.856484    4.635359   -5.653615
  H      3.616482    3.242243   -4.599402
  C      0.830158    6.375515   -3.351954
  O      0.940551    5.032398   -3.766488
  H      0.052664    4.669566   -3.840227
  H      1.780243    6.766716   -3.040105
  H      0.538714    6.865251   -4.300395
  H     -0.102038    6.622866   -2.764643

 Multiplicity           Mult            ....    1
 Number of Electrons    NEL             ....   18
 Basis Dimension        Dim             ....  172

ORBITAL ENERGIES
----------------

  NO   OCC          E(Eh)            E(eV)
   0   2.0000     -19.228276      -523.2280
   1   2.0000     -10.316227      -280.7188
   2   2.0000      -1.137553       -30.9544
   3   2.0000      -0.793400       -21.5895
   4   2.0000      -0.614877       -16.7316
   5   2.0000      -0.540050       -14.6955
   6   2.0000      -0.523747       -14.2519
   7   2.0000      -0.443014       -12.0550
   8   2.0000      -0.360292        -9.8040
   9   0.0000       0.093923         2.5558
  10   0.0000       0.120982         3.2921
  11   0.0000       0.150963         4.1079
  12   0.0000       0.179541         4.8856
  13   0.0000       0.187352         5.0981

MULLIKEN ATOMIC CHARGES
-----------------------
   0 C :   -0.001280
   1 O :    0.000847
   2 H :   -0.000855
   3 H :   -0.000226
   4 H :   -0.001131
   5 H :   -0.002232
   6 C :   -0.175508
   7 O :   -0.468382
   8 H :    0.313239
   9 H :    0.127958
  10 H :    0.101780
  11 H :    0.105791
Sum of atomic charges:    0.0000000

LOEWDIN ATOMIC CHARGES
----------------------
   0 C :   -0.007120
   1 O :   -0.006401
   2 H :   -0.001102
   3 H :   -0.000108
   4 H :   -0.000630
   5 H :   -0.001371
   6 C :   -0.393935
   7 O :   -0.067508
   8 H :    0.170526
   9 H :    0.104118
  10 H :    0.099561
  11 H :    0.103970

  Mayer bond orders larger than 0.1
B(  6-C ,  7-O ) :   0.9816 B(  6-C ,  9-H ) :   0.9710 B(  6-C , 10-H ) :   0.9906
B(  6-C , 11-H ) :   0.9670 B(  7-O ,  8-H ) :   0.8975

Dispersion correction           -0.000224236
FINAL SINGLE POINT ENERGY      -115.725436025541

DIPOLE MOMENT
-------------
                                X             Y             Z
Electronic contribution:      0.44624      -1.72603      -0.23608
Nuclear contribution   :     -1.06753       2.03327       0.33307
                        -----------------------------------------
Total Dipole Moment    :     -0.62129       0.30724       0.09699
                        -----------------------------------------
Magnitude (a.u.)       :      0.69986
Magnitude (Debye)      :      1.77891

Rotational constants in cm-1:     4.192965     0.851095     0.800267
Rotational constants in MHz : 125701.920907 25515.177098 23991.391276

                             ****ORCA TERMINATED NORMALLY****
TOTAL RUN TIME: 0 days 0 hours 6 minutes 19 seconds 701 msec
