                         Program Version 4.1.2  - RELEASE  -
|  1> #Run DFT-D3 single point of the dimer
|  2> ! wB97X-D3 def2-TZVP TIGHTSCF CHELPG PMODEL PAL8
|  3>
|  4> %base "16-9_DFT_AB"
|  5>
|  6> %scf
|  7> MaxIter 1000
|  8> end
|  9>
| 10> * xyz 0 1
| 11>   C                      -3.613576            2.949622             3.934506
| 12>   O                      -3.601508            3.698823             5.159507
| 13>   H                      -2.638820            3.713132             5.390762
| 14>   H                      -2.909974            3.467466             3.239017
| 15>   H                      -3.265800            1.935287             3.994618
| 16>   H                      -4.596142            2.930245             3.440482
| 17>   C                      -3.580619            -0.811597            5.816965
| 18>   O                      -2.256292            -0.945819            5.365711
| 19>   H                      -1.594474            -0.478532            5.898035
| 20>   H                      -3.773277            -1.286133            6.793522
| 21>   H                      -3.960942            0.289719             5.922689
| 22>   H                      -4.295211            -1.246757            5.123571
| 23> *
| 24>
| 25> #Run DFT-D3 single point of the molecule with dimer basis set
| 26> $new_job
| 27> %base "16-9_DFT_A"
| 28> ! wB97X-D3 def2-TZVP TIGHTSCF CHELPG PMODEL
| 29>
| 30> %scf
| 31> MaxIter 1000
| 32> end
| 33>
| 34> * xyz 0 1
| 35>   C                      -3.613576            2.949622             3.934506
| 36>   O                      -3.601508            3.698823             5.159507
| 37>   H                      -2.638820            3.713132             5.390762
| 38>   H                      -2.909974            3.467466             3.239017
| 39>   H                      -3.265800            1.935287             3.994618
| 40>   H                      -4.596142            2.930245             3.440482
| 41>   C                    : -3.580619            -0.811597            5.816965
| 42>   O                    : -2.256292            -0.945819            5.365711
| 43>   H                    : -1.594474            -0.478532            5.898035
| 44>   H                    : -3.773277            -1.286133            6.793522
| 45>   H                    : -3.960942            0.289719             5.922689
| 46>   H                    : -4.295211            -1.246757            5.123571
| 47> *
| 48>
| 49> #Run DFT-D3 single point of the particle with dimer basis set
| 50> $new_job
| 51> %base "16-9_DFT_B"
| 52> ! wB97X-D3 def2-TZVP TIGHTSCF CHELPG PMODEL
| 53>
| 54> %scf
| 55> MaxIter 1000
| 56> end
| 57>
| 58> * xyz 0 1
| 59>   C                    : -3.613576            2.949622             3.934506
| 60>   O                    : -3.601508            3.698823             5.159507
| 61>   H                    : -2.638820            3.713132             5.390762
| 62>   H                    : -2.909974            3.467466             3.239017
| 63>   H                    : -3.265800            1.935287             3.994618
| 64>   H                    : -4.596142            2.930245             3.440482
| 65>   C                      -3.580619            -0.811597            5.816965
| 66>   O                      -2.256292            -0.945819            5.365711
| 67>   H                      -1.594474            -0.478532            5.898035
| 68>   H                      -3.773277            -1.286133            6.793522
| 69>   H                      -3.960942            0.289719             5.922689
| 70>   H                      -4.295211            -1.246757            5.123571
| 71> *
| 72>
| 73>                          ****END OF INPUT****
 Total Charge           Charge          ....    0
 Multiplicity           Mult            ....    1
 Number of Electrons    NEL             ....   36
Dispersion correction           -0.001485492
FINAL SINGLE POINT ENERGY      -231.465964422912
Dispersion correction           -0.000238810
FINAL SINGLE POINT ENERGY      -115.732194639018

CARTESIAN COORDINATES (ANGSTROEM)
---------------------------------
  C     -3.613576    2.949622    3.934506
  O     -3.601508    3.698823    5.159507
  H     -2.638820    3.713132    5.390762
  H     -2.909974    3.467466    3.239017
  H     -3.265800    1.935287    3.994618
  H     -4.596142    2.930245    3.440482
  C     -3.580619   -0.811597    5.816965
  O     -2.256292   -0.945819    5.365711
  H     -1.594474   -0.478532    5.898035
  H     -3.773277   -1.286133    6.793522
  H     -3.960942    0.289719    5.922689
  H     -4.295211   -1.246757    5.123571

 Multiplicity           Mult            ....    1
 Number of Electrons    NEL             ....   18
 Basis Dimension        Dim             ....  172

ORBITAL ENERGIES
----------------

  NO   OCC          E(Eh)            E(eV)
   0   2.0000     -19.234039      -523.3848
   1   2.0000     -10.321531      -280.8631
   2   2.0000      -1.135141       -30.8888
   3   2.0000      -0.794867       -21.6294
   4   2.0000      -0.614028       -16.7086
   5   2.0000      -0.535853       -14.5813
   6   2.0000      -0.526690       -14.3320
   7   2.0000      -0.424591       -11.5537
   8   2.0000      -0.373574       -10.1655
   9   0.0000       0.083042         2.2597
  10   0.0000       0.123312         3.3555
  11   0.0000       0.147602         4.0165
  12   0.0000       0.165893         4.5142
  13   0.0000       0.188795         5.1374

MULLIKEN ATOMIC CHARGES
-----------------------
   0 C :   -0.001273
   1 O :   -0.000074
   2 H :   -0.000043
   3 H :    0.000060
   4 H :    0.000594
   5 H :    0.000046
   6 C :   -0.161871
   7 O :   -0.486848
   8 H :    0.323490
   9 H :    0.107685
  10 H :    0.091936
  11 H :    0.126299
Sum of atomic charges:   -0.0000000

LOEWDIN ATOMIC CHARGES
----------------------
   0 C :   -0.002724
   1 O :   -0.000162
   2 H :   -0.000056
   3 H :   -0.000023
   4 H :   -0.002390
   5 H :   -0.000066
   6 C :   -0.402632
   7 O :   -0.073060
   8 H :    0.175463
   9 H :    0.094237
  10 H :    0.104171
  11 H :    0.107242

  Mayer bond orders larger than 0.1
B(  6-C ,  7-O ) :   0.9909 B(  6-C ,  9-H ) :   0.9729 B(  6-C , 10-H ) :   0.9741
B(  6-C , 11-H ) :   0.9716 B(  7-O ,  8-H ) :   0.8882

Dispersion correction           -0.000287459
FINAL SINGLE POINT ENERGY      -115.732284218706

DIPOLE MOMENT
-------------
                                X             Y             Z
Electronic contribution:      1.80576      -0.35311      -0.71259
Nuclear contribution   :     -1.89910       0.68057       1.22741
                        -----------------------------------------
Total Dipole Moment    :     -0.09334       0.32746       0.51482
                        -----------------------------------------
Magnitude (a.u.)       :      0.61723
Magnitude (Debye)      :      1.56888

Rotational constants in cm-1:     4.346106     0.810305     0.788075
Rotational constants in MHz : 130292.990455 24292.317958 23625.894442

                             ****ORCA TERMINATED NORMALLY****
TOTAL RUN TIME: 0 days 0 hours 0 minutes 52 seconds 158 msec
