                         Program Version 4.1.2  - RELEASE  -
|  1> #Run DFT-D3 single point of the dimer
|  2> ! wB97X-D3 def2-TZVP TIGHTSCF CHELPG PMODEL PAL8
|  3>
|  4> %base "13-211_DFT_AB"
|  5>
|  6> %scf
|  7> MaxIter 1000
|  8> end
|  9>
| 10> * xyz 0 1
| 11>   C                      -2.480424            1.308828             7.904205
| 12>   O                      -1.509948            0.802413             7.031501
| 13>   H                      -1.975338            0.214268             6.452613
| 14>   H                      -2.494032            0.674964             8.764390
| 15>   H                      -2.228813            2.301698             8.272983
| 16>   H                      -3.456427            1.299778             7.479879
| 17>   C                      -3.727973            -1.649704            6.637132
| 18>   O                      -2.891218            -1.145543            5.615746
| 19>   H                      -2.828030            -1.761109            4.912795
| 20>   H                      -3.366641            -2.494963            7.158511
| 21>   H                      -3.949800            -0.870699            7.426637
| 22>   H                      -4.697493            -1.951473            6.241706
| 23> *
| 24>
| 25> #Run DFT-D3 single point of the molecule with dimer basis set
| 26> $new_job
| 27> %base "13-211_DFT_A"
| 28> ! wB97X-D3 def2-TZVP TIGHTSCF CHELPG PMODEL
| 29>
| 30> %scf
| 31> MaxIter 1000
| 32> end
| 33>
| 34> * xyz 0 1
| 35>   C                      -2.480424            1.308828             7.904205
| 36>   O                      -1.509948            0.802413             7.031501
| 37>   H                      -1.975338            0.214268             6.452613
| 38>   H                      -2.494032            0.674964             8.764390
| 39>   H                      -2.228813            2.301698             8.272983
| 40>   H                      -3.456427            1.299778             7.479879
| 41>   C                    : -3.727973            -1.649704            6.637132
| 42>   O                    : -2.891218            -1.145543            5.615746
| 43>   H                    : -2.828030            -1.761109            4.912795
| 44>   H                    : -3.366641            -2.494963            7.158511
| 45>   H                    : -3.949800            -0.870699            7.426637
| 46>   H                    : -4.697493            -1.951473            6.241706
| 47> *
| 48>
| 49> #Run DFT-D3 single point of the particle with dimer basis set
| 50> $new_job
| 51> %base "13-211_DFT_B"
| 52> ! wB97X-D3 def2-TZVP TIGHTSCF CHELPG PMODEL
| 53>
| 54> %scf
| 55> MaxIter 1000
| 56> end
| 57>
| 58> * xyz 0 1
| 59>   C                    : -2.480424            1.308828             7.904205
| 60>   O                    : -1.509948            0.802413             7.031501
| 61>   H                    : -1.975338            0.214268             6.452613
| 62>   H                    : -2.494032            0.674964             8.764390
| 63>   H                    : -2.228813            2.301698             8.272983
| 64>   H                    : -3.456427            1.299778             7.479879
| 65>   C                      -3.727973            -1.649704            6.637132
| 66>   O                      -2.891218            -1.145543            5.615746
| 67>   H                      -2.828030            -1.761109            4.912795
| 68>   H                      -3.366641            -2.494963            7.158511
| 69>   H                      -3.949800            -0.870699            7.426637
| 70>   H                      -4.697493            -1.951473            6.241706
| 71> *
| 72>
| 73>                          ****END OF INPUT****
 Total Charge           Charge          ....    0
 Multiplicity           Mult            ....    1
 Number of Electrons    NEL             ....   36
Dispersion correction           -0.002184168
FINAL SINGLE POINT ENERGY      -231.474266086691
Dispersion correction           -0.000216031
FINAL SINGLE POINT ENERGY      -115.733999239633

CARTESIAN COORDINATES (ANGSTROEM)
---------------------------------
  C     -2.480424    1.308828    7.904205
  O     -1.509948    0.802413    7.031501
  H     -1.975338    0.214268    6.452613
  H     -2.494032    0.674964    8.764390
  H     -2.228813    2.301698    8.272983
  H     -3.456427    1.299778    7.479879
  C     -3.727973   -1.649704    6.637132
  O     -2.891218   -1.145543    5.615746
  H     -2.828030   -1.761109    4.912795
  H     -3.366641   -2.494963    7.158511
  H     -3.949800   -0.870699    7.426637
  H     -4.697493   -1.951473    6.241706

 Multiplicity           Mult            ....    1
 Number of Electrons    NEL             ....   18
 Basis Dimension        Dim             ....  172

ORBITAL ENERGIES
----------------

  NO   OCC          E(Eh)            E(eV)
   0   2.0000     -19.230059      -523.2765
   1   2.0000     -10.313436      -280.6429
   2   2.0000      -1.140749       -31.0414
   3   2.0000      -0.801008       -21.7965
   4   2.0000      -0.619271       -16.8512
   5   2.0000      -0.541469       -14.7341
   6   2.0000      -0.525926       -14.3112
   7   2.0000      -0.431870       -11.7518
   8   2.0000      -0.376292       -10.2394
   9   0.0000       0.098708         2.6860
  10   0.0000       0.127695         3.4748
  11   0.0000       0.153216         4.1692
  12   0.0000       0.193404         5.2628
  13   0.0000       0.202234         5.5031

MULLIKEN ATOMIC CHARGES
-----------------------
   0 C :    0.005890
   1 O :   -0.000895
   2 H :   -0.009500
   3 H :   -0.001158
   4 H :    0.000358
   5 H :   -0.000390
   6 C :   -0.153090
   7 O :   -0.466061
   8 H :    0.307461
   9 H :    0.107892
  10 H :    0.112108
  11 H :    0.097386
Sum of atomic charges:    0.0000000

LOEWDIN ATOMIC CHARGES
----------------------
   0 C :   -0.013027
   1 O :   -0.006336
   2 H :   -0.048506
   3 H :   -0.001973
   4 H :   -0.000053
   5 H :   -0.004160
   6 C :   -0.370328
   7 O :   -0.016332
   8 H :    0.153229
   9 H :    0.086329
  10 H :    0.126665
  11 H :    0.094492

  Mayer bond orders larger than 0.1
B(  6-C ,  7-O ) :   0.9871 B(  6-C ,  9-H ) :   0.9730 B(  6-C , 10-H ) :   0.9804
B(  6-C , 11-H ) :   0.9780 B(  7-O ,  8-H ) :   0.9020

Dispersion correction           -0.000250592
FINAL SINGLE POINT ENERGY      -115.733717682562

DIPOLE MOMENT
-------------
                                X             Y             Z
Electronic contribution:      1.19959       0.71512      -1.29013
Nuclear contribution   :     -1.50438      -1.33392       1.24328
                        -----------------------------------------
Total Dipole Moment    :     -0.30479      -0.61879      -0.04684
                        -----------------------------------------
Magnitude (a.u.)       :      0.69137
Magnitude (Debye)      :      1.75733

Rotational constants in cm-1:     4.490082     0.823468     0.791335
Rotational constants in MHz : 134609.259309 24686.959812 23723.632150

                             ****ORCA TERMINATED NORMALLY****
TOTAL RUN TIME: 0 days 0 hours 1 minutes 4 seconds 442 msec
