                         Program Version 4.1.2  - RELEASE  -
|  1> #Run DFT-D3 single point of the dimer
|  2> ! wB97X-D3 def2-TZVP TIGHTSCF CHELPG PMODEL PAL8
|  3>
|  4> %base "19-32_DFT_AB"
|  5>
|  6> %scf
|  7> MaxIter 1000
|  8> end
|  9>
| 10> * xyz 0 1
| 11>   C                      7.257563             6.735818             4.442851
| 12>   O                      8.386543             7.556154             4.548185
| 13>   H                      9.044606             7.039462             5.018656
| 14>   H                      7.278685             6.428361             3.430371
| 15>   H                      7.463774             5.931356             5.183014
| 16>   H                      6.305239             7.244127             4.579032
| 17>   C                      6.919625             2.237632             2.945838
| 18>   O                      7.105568             3.614791             3.004067
| 19>   H                      7.927648             3.903414             2.617584
| 20>   H                      7.422164             1.719098             3.729250
| 21>   H                      5.841692             1.966989             3.041488
| 22>   H                      7.318918             1.785904             1.953686
| 23> *
| 24>
| 25> #Run DFT-D3 single point of the molecule with dimer basis set
| 26> $new_job
| 27> %base "19-32_DFT_A"
| 28> ! wB97X-D3 def2-TZVP TIGHTSCF CHELPG PMODEL
| 29>
| 30> %scf
| 31> MaxIter 1000
| 32> end
| 33>
| 34> * xyz 0 1
| 35>   C                      7.257563             6.735818             4.442851
| 36>   O                      8.386543             7.556154             4.548185
| 37>   H                      9.044606             7.039462             5.018656
| 38>   H                      7.278685             6.428361             3.430371
| 39>   H                      7.463774             5.931356             5.183014
| 40>   H                      6.305239             7.244127             4.579032
| 41>   C                    : 6.919625             2.237632             2.945838
| 42>   O                    : 7.105568             3.614791             3.004067
| 43>   H                    : 7.927648             3.903414             2.617584
| 44>   H                    : 7.422164             1.719098             3.729250
| 45>   H                    : 5.841692             1.966989             3.041488
| 46>   H                    : 7.318918             1.785904             1.953686
| 47> *
| 48>
| 49> #Run DFT-D3 single point of the particle with dimer basis set
| 50> $new_job
| 51> %base "19-32_DFT_B"
| 52> ! wB97X-D3 def2-TZVP TIGHTSCF CHELPG PMODEL
| 53>
| 54> %scf
| 55> MaxIter 1000
| 56> end
| 57>
| 58> * xyz 0 1
| 59>   C                    : 7.257563             6.735818             4.442851
| 60>   O                    : 8.386543             7.556154             4.548185
| 61>   H                    : 9.044606             7.039462             5.018656
| 62>   H                    : 7.278685             6.428361             3.430371
| 63>   H                    : 7.463774             5.931356             5.183014
| 64>   H                    : 6.305239             7.244127             4.579032
| 65>   C                      6.919625             2.237632             2.945838
| 66>   O                      7.105568             3.614791             3.004067
| 67>   H                      7.927648             3.903414             2.617584
| 68>   H                      7.422164             1.719098             3.729250
| 69>   H                      5.841692             1.966989             3.041488
| 70>   H                      7.318918             1.785904             1.953686
| 71> *
| 72>
| 73>                          ****END OF INPUT****
 Total Charge           Charge          ....    0
 Multiplicity           Mult            ....    1
 Number of Electrons    NEL             ....   36
Dispersion correction           -0.001377774
FINAL SINGLE POINT ENERGY      -231.460238720902
Dispersion correction           -0.000206596
FINAL SINGLE POINT ENERGY      -115.726418147941

CARTESIAN COORDINATES (ANGSTROEM)
---------------------------------
  C      7.257563    6.735818    4.442851
  O      8.386543    7.556154    4.548185
  H      9.044606    7.039462    5.018656
  H      7.278685    6.428361    3.430371
  H      7.463774    5.931356    5.183014
  H      6.305239    7.244127    4.579032
  C      6.919625    2.237632    2.945838
  O      7.105568    3.614791    3.004067
  H      7.927648    3.903414    2.617584
  H      7.422164    1.719098    3.729250
  H      5.841692    1.966989    3.041488
  H      7.318918    1.785904    1.953686

 Multiplicity           Mult            ....    1
 Number of Electrons    NEL             ....   18
 Basis Dimension        Dim             ....  172

ORBITAL ENERGIES
----------------

  NO   OCC          E(Eh)            E(eV)
   0   2.0000     -19.230291      -523.2828
   1   2.0000     -10.318608      -280.7836
   2   2.0000      -1.142726       -31.0951
   3   2.0000      -0.795475       -21.6460
   4   2.0000      -0.617358       -16.7992
   5   2.0000      -0.539853       -14.6901
   6   2.0000      -0.531624       -14.4662
   7   2.0000      -0.424721       -11.5573
   8   2.0000      -0.372711       -10.1420
   9   0.0000       0.092940         2.5290
  10   0.0000       0.123807         3.3690
  11   0.0000       0.154437         4.2025
  12   0.0000       0.175467         4.7747
  13   0.0000       0.194310         5.2875

MULLIKEN ATOMIC CHARGES
-----------------------
   0 C :    0.001013
   1 O :    0.000056
   2 H :    0.000042
   3 H :   -0.003962
   4 H :   -0.002948
   5 H :   -0.000593
   6 C :   -0.153549
   7 O :   -0.472139
   8 H :    0.322246
   9 H :    0.103758
  10 H :    0.117479
  11 H :    0.088597
Sum of atomic charges:    0.0000000

LOEWDIN ATOMIC CHARGES
----------------------
   0 C :   -0.007586
   1 O :   -0.000039
   2 H :   -0.000013
   3 H :   -0.003584
   4 H :   -0.002363
   5 H :   -0.000113
   6 C :   -0.404879
   7 O :   -0.049643
   8 H :    0.167754
   9 H :    0.085750
  10 H :    0.111632
  11 H :    0.103084

  Mayer bond orders larger than 0.1
B(  6-C ,  7-O ) :   1.0015 B(  6-C ,  9-H ) :   0.9727 B(  6-C , 10-H ) :   0.9727
B(  6-C , 11-H ) :   0.9796 B(  7-O ,  8-H ) :   0.8906

Dispersion correction           -0.000256335
FINAL SINGLE POINT ENERGY      -115.732939917647

DIPOLE MOMENT
-------------
                                X             Y             Z
Electronic contribution:      0.12999       1.86724       0.20732
Nuclear contribution   :      0.33485      -2.22204      -0.47043
                        -----------------------------------------
Total Dipole Moment    :      0.46485      -0.35479      -0.26311
                        -----------------------------------------
Magnitude (a.u.)       :      0.64124
Magnitude (Debye)      :      1.62989

Rotational constants in cm-1:     4.298529     0.841553     0.806258
Rotational constants in MHz : 128866.656122 25229.112365 24171.017820

                             ****ORCA TERMINATED NORMALLY****
TOTAL RUN TIME: 0 days 0 hours 0 minutes 53 seconds 248 msec
