                         Program Version 4.1.2  - RELEASE  -
|  1> #Run DFT-D3 single point of the dimer
|  2> ! wB97X-D3 def2-TZVP TIGHTSCF CHELPG PMODEL PAL8
|  3>
|  4> %base "1-155_DFT_AB"
|  5>
|  6> %scf
|  7> MaxIter 1000
|  8> end
|  9>
| 10> * xyz 0 1
| 11>   C                      -10.737285           -10.905899           -8.526970
| 12>   O                      -11.491148           -9.799804            -8.017945
| 13>   H                      -11.618391           -9.202291            -8.727251
| 14>   H                      -11.160848           -11.255895           -9.449243
| 15>   H                      -9.693300            -10.777547           -8.716372
| 16>   H                      -10.901061           -11.684010           -7.796133
| 17>   C                      -11.431967           -10.318018           -4.044742
| 18>   O                      -11.458756           -10.219499           -5.434309
| 19>   H                      -11.343012           -9.302613            -5.677670
| 20>   H                      -11.736917           -9.327433            -3.693890
| 21>   H                      -12.108239           -11.082590           -3.664358
| 22>   H                      -10.423469           -10.476616           -3.653457
| 23> *
| 24>
| 25> #Run DFT-D3 single point of the molecule with dimer basis set
| 26> $new_job
| 27> %base "1-155_DFT_A"
| 28> ! wB97X-D3 def2-TZVP TIGHTSCF CHELPG PMODEL
| 29>
| 30> %scf
| 31> MaxIter 1000
| 32> end
| 33>
| 34> * xyz 0 1
| 35>   C                      -10.737285           -10.905899           -8.526970
| 36>   O                      -11.491148           -9.799804            -8.017945
| 37>   H                      -11.618391           -9.202291            -8.727251
| 38>   H                      -11.160848           -11.255895           -9.449243
| 39>   H                      -9.693300            -10.777547           -8.716372
| 40>   H                      -10.901061           -11.684010           -7.796133
| 41>   C                    : -11.431967           -10.318018           -4.044742
| 42>   O                    : -11.458756           -10.219499           -5.434309
| 43>   H                    : -11.343012           -9.302613            -5.677670
| 44>   H                    : -11.736917           -9.327433            -3.693890
| 45>   H                    : -12.108239           -11.082590           -3.664358
| 46>   H                    : -10.423469           -10.476616           -3.653457
| 47> *
| 48>
| 49> #Run DFT-D3 single point of the particle with dimer basis set
| 50> $new_job
| 51> %base "1-155_DFT_B"
| 52> ! wB97X-D3 def2-TZVP TIGHTSCF CHELPG PMODEL
| 53>
| 54> %scf
| 55> MaxIter 1000
| 56> end
| 57>
| 58> * xyz 0 1
| 59>   C                    : -10.737285           -10.905899           -8.526970
| 60>   O                    : -11.491148           -9.799804            -8.017945
| 61>   H                    : -11.618391           -9.202291            -8.727251
| 62>   H                    : -11.160848           -11.255895           -9.449243
| 63>   H                    : -9.693300            -10.777547           -8.716372
| 64>   H                    : -10.901061           -11.684010           -7.796133
| 65>   C                      -11.431967           -10.318018           -4.044742
| 66>   O                      -11.458756           -10.219499           -5.434309
| 67>   H                      -11.343012           -9.302613            -5.677670
| 68>   H                      -11.736917           -9.327433            -3.693890
| 69>   H                      -12.108239           -11.082590           -3.664358
| 70>   H                      -10.423469           -10.476616           -3.653457
| 71> *
| 72>
| 73>                          ****END OF INPUT****
 Total Charge           Charge          ....    0
 Multiplicity           Mult            ....    1
 Number of Electrons    NEL             ....   36
Dispersion correction           -0.001623660
FINAL SINGLE POINT ENERGY      -231.466803397232
Dispersion correction           -0.000243110
FINAL SINGLE POINT ENERGY      -115.733866187271

CARTESIAN COORDINATES (ANGSTROEM)
---------------------------------
  C    -10.737285  -10.905899   -8.526970
  O    -11.491148   -9.799804   -8.017945
  H    -11.618391   -9.202291   -8.727251
  H    -11.160848  -11.255895   -9.449243
  H     -9.693300  -10.777547   -8.716372
  H    -10.901061  -11.684010   -7.796133
  C    -11.431967  -10.318018   -4.044742
  O    -11.458756  -10.219499   -5.434309
  H    -11.343012   -9.302613   -5.677670
  H    -11.736917   -9.327433   -3.693890
  H    -12.108239  -11.082590   -3.664358
  H    -10.423469  -10.476616   -3.653457

 Multiplicity           Mult            ....    1
 Number of Electrons    NEL             ....   18
 Basis Dimension        Dim             ....  172

ORBITAL ENERGIES
----------------

  NO   OCC          E(Eh)            E(eV)
   0   2.0000     -19.227768      -523.2142
   1   2.0000     -10.311794      -280.5982
   2   2.0000      -1.143598       -31.1189
   3   2.0000      -0.794504       -21.6196
   4   2.0000      -0.616268       -16.7695
   5   2.0000      -0.543196       -14.7811
   6   2.0000      -0.538041       -14.6408
   7   2.0000      -0.428037       -11.6475
   8   2.0000      -0.371605       -10.1119
   9   0.0000       0.090671         2.4673
  10   0.0000       0.122598         3.3361
  11   0.0000       0.156137         4.2487
  12   0.0000       0.178654         4.8614
  13   0.0000       0.199058         5.4167

MULLIKEN ATOMIC CHARGES
-----------------------
   0 C :   -0.003574
   1 O :    0.000952
   2 H :    0.000173
   3 H :   -0.000330
   4 H :   -0.000031
   5 H :   -0.004696
   6 C :   -0.160798
   7 O :   -0.456398
   8 H :    0.319227
   9 H :    0.089804
  10 H :    0.119014
  11 H :    0.096654
Sum of atomic charges:   -0.0000000

LOEWDIN ATOMIC CHARGES
----------------------
   0 C :   -0.010908
   1 O :   -0.015247
   2 H :   -0.000548
   3 H :   -0.000148
   4 H :   -0.000228
   5 H :   -0.005196
   6 C :   -0.393077
   7 O :   -0.042557
   8 H :    0.173179
   9 H :    0.096552
  10 H :    0.104654
  11 H :    0.093522

  Mayer bond orders larger than 0.1
B(  6-C ,  7-O ) :   1.0090 B(  6-C ,  9-H ) :   0.9949 B(  6-C , 10-H ) :   0.9743
B(  6-C , 11-H ) :   0.9710 B(  7-O ,  8-H ) :   0.8957

Dispersion correction           -0.000223923
FINAL SINGLE POINT ENERGY      -115.733475096918

DIPOLE MOMENT
-------------
                                X             Y             Z
Electronic contribution:     -0.07760      -0.13458      -1.77834
Nuclear contribution   :      0.14527       0.70367       2.17509
                        -----------------------------------------
Total Dipole Moment    :      0.06766       0.56909       0.39675
                        -----------------------------------------
Magnitude (a.u.)       :      0.69703
Magnitude (Debye)      :      1.77171

Rotational constants in cm-1:     4.302189     0.857015     0.823486
Rotational constants in MHz : 128976.371292 25692.650890 24687.484353

                             ****ORCA TERMINATED NORMALLY****
TOTAL RUN TIME: 0 days 0 hours 5 minutes 59 seconds 513 msec
