                         Program Version 4.1.2  - RELEASE  -
|  1> #Run DFT-D3 single point of the dimer
|  2> ! wB97X-D3 def2-TZVP TIGHTSCF CHELPG PMODEL PAL8
|  3>
|  4> %base "8-86_DFT_AB"
|  5>
|  6> %scf
|  7> MaxIter 1000
|  8> end
|  9>
| 10> * xyz 0 1
| 11>   C                      -4.288569            -3.454093            4.046615
| 12>   O                      -4.072984            -3.445141            5.450072
| 13>   H                      -3.608082            -2.611545            5.566733
| 14>   H                      -3.328369            -3.735090            3.527382
| 15>   H                      -4.996269            -4.232074            3.685555
| 16>   H                      -4.566862            -2.490800            3.649591
| 17>   C                      -1.927420            -4.681478            -0.819635
| 18>   O                      -1.601244            -3.450223            -0.213688
| 19>   H                      -0.920131            -3.522494            0.448102
| 20>   H                      -0.976342            -5.266866            -0.868850
| 21>   H                      -2.627015            -5.271775            -0.204945
| 22>   H                      -2.341092            -4.634469            -1.832706
| 23> *
| 24>
| 25> #Run DFT-D3 single point of the molecule with dimer basis set
| 26> $new_job
| 27> %base "8-86_DFT_A"
| 28> ! wB97X-D3 def2-TZVP TIGHTSCF CHELPG PMODEL
| 29>
| 30> %scf
| 31> MaxIter 1000
| 32> end
| 33>
| 34> * xyz 0 1
| 35>   C                      -4.288569            -3.454093            4.046615
| 36>   O                      -4.072984            -3.445141            5.450072
| 37>   H                      -3.608082            -2.611545            5.566733
| 38>   H                      -3.328369            -3.735090            3.527382
| 39>   H                      -4.996269            -4.232074            3.685555
| 40>   H                      -4.566862            -2.490800            3.649591
| 41>   C                    : -1.927420            -4.681478            -0.819635
| 42>   O                    : -1.601244            -3.450223            -0.213688
| 43>   H                    : -0.920131            -3.522494            0.448102
| 44>   H                    : -0.976342            -5.266866            -0.868850
| 45>   H                    : -2.627015            -5.271775            -0.204945
| 46>   H                    : -2.341092            -4.634469            -1.832706
| 47> *
| 48>
| 49> #Run DFT-D3 single point of the particle with dimer basis set
| 50> $new_job
| 51> %base "8-86_DFT_B"
| 52> ! wB97X-D3 def2-TZVP TIGHTSCF CHELPG PMODEL
| 53>
| 54> %scf
| 55> MaxIter 1000
| 56> end
| 57>
| 58> * xyz 0 1
| 59>   C                    : -4.288569            -3.454093            4.046615
| 60>   O                    : -4.072984            -3.445141            5.450072
| 61>   H                    : -3.608082            -2.611545            5.566733
| 62>   H                    : -3.328369            -3.735090            3.527382
| 63>   H                    : -4.996269            -4.232074            3.685555
| 64>   H                    : -4.566862            -2.490800            3.649591
| 65>   C                      -1.927420            -4.681478            -0.819635
| 66>   O                      -1.601244            -3.450223            -0.213688
| 67>   H                      -0.920131            -3.522494            0.448102
| 68>   H                      -0.976342            -5.266866            -0.868850
| 69>   H                      -2.627015            -5.271775            -0.204945
| 70>   H                      -2.341092            -4.634469            -1.832706
| 71> *
| 72>
| 73>                          ****END OF INPUT****
 Total Charge           Charge          ....    0
 Multiplicity           Mult            ....    1
 Number of Electrons    NEL             ....   36
Dispersion correction           -0.000732239
FINAL SINGLE POINT ENERGY      -231.465310146673
Dispersion correction           -0.000235322
FINAL SINGLE POINT ENERGY      -115.732371544024

CARTESIAN COORDINATES (ANGSTROEM)
---------------------------------
  C     -4.288569   -3.454093    4.046615
  O     -4.072984   -3.445141    5.450072
  H     -3.608082   -2.611545    5.566733
  H     -3.328369   -3.735090    3.527382
  H     -4.996269   -4.232074    3.685555
  H     -4.566862   -2.490800    3.649591
  C     -1.927420   -4.681478   -0.819635
  O     -1.601244   -3.450223   -0.213688
  H     -0.920131   -3.522494    0.448102
  H     -0.976342   -5.266866   -0.868850
  H     -2.627015   -5.271775   -0.204945
  H     -2.341092   -4.634469   -1.832706

 Multiplicity           Mult            ....    1
 Number of Electrons    NEL             ....   18
 Basis Dimension        Dim             ....  172

ORBITAL ENERGIES
----------------

  NO   OCC          E(Eh)            E(eV)
   0   2.0000     -19.227042      -523.1944
   1   2.0000     -10.318044      -280.7683
   2   2.0000      -1.135296       -30.8930
   3   2.0000      -0.796110       -21.6633
   4   2.0000      -0.612387       -16.6639
   5   2.0000      -0.537352       -14.6221
   6   2.0000      -0.536345       -14.5947
   7   2.0000      -0.422396       -11.4940
   8   2.0000      -0.371417       -10.1068
   9   0.0000       0.086246         2.3469
  10   0.0000       0.114472         3.1149
  11   0.0000       0.151231         4.1152
  12   0.0000       0.166005         4.5172
  13   0.0000       0.191358         5.2071

MULLIKEN ATOMIC CHARGES
-----------------------
   0 C :    0.000728
   1 O :   -0.000008
   2 H :   -0.000011
   3 H :   -0.001644
   4 H :   -0.000020
   5 H :   -0.000073
   6 C :   -0.160300
   7 O :   -0.483111
   8 H :    0.320561
   9 H :    0.099458
  10 H :    0.099824
  11 H :    0.124594
Sum of atomic charges:    0.0000000

LOEWDIN ATOMIC CHARGES
----------------------
   0 C :   -0.000119
   1 O :   -0.000003
   2 H :   -0.000000
   3 H :   -0.000475
   4 H :   -0.000006
   5 H :   -0.000012
   6 C :   -0.387881
   7 O :   -0.076540
   8 H :    0.164048
   9 H :    0.100131
  10 H :    0.093890
  11 H :    0.106966

  Mayer bond orders larger than 0.1
B(  6-C ,  7-O ) :   0.9972 B(  6-C ,  9-H ) :   0.9913 B(  6-C , 10-H ) :   0.9720
B(  6-C , 11-H ) :   0.9677 B(  7-O ,  8-H ) :   0.8940

Dispersion correction           -0.000250231
FINAL SINGLE POINT ENERGY      -115.732423105824

DIPOLE MOMENT
-------------
                                X             Y             Z
Electronic contribution:      0.24356       1.72564       0.63171
Nuclear contribution   :      0.08393      -2.27314      -0.45869
                        -----------------------------------------
Total Dipole Moment    :      0.32748      -0.54750       0.17302
                        -----------------------------------------
Magnitude (a.u.)       :      0.66101
Magnitude (Debye)      :      1.68016

Rotational constants in cm-1:     4.359020     0.822935     0.795695
Rotational constants in MHz : 130680.121596 24670.967634 23854.336796

                             ****ORCA TERMINATED NORMALLY****
TOTAL RUN TIME: 0 days 0 hours 0 minutes 40 seconds 292 msec
