                         Program Version 4.1.2  - RELEASE  -
|  1> #Run DFT-D3 single point of the dimer
|  2> ! wB97X-D3 def2-TZVP TIGHTSCF CHELPG PMODEL PAL8
|  3>
|  4> %base "7-38_DFT_AB"
|  5>
|  6> %scf
|  7> MaxIter 1000
|  8> end
|  9>
| 10> * xyz 0 1
| 11>   C                      4.287323             3.811473             -10.095497
| 12>   O                      5.437001             3.561698             -10.899745
| 13>   H                      5.610883             2.637790             -10.816381
| 14>   H                      3.601199             4.500166             -10.683801
| 15>   H                      3.740410             2.909689             -9.881101
| 16>   H                      4.471084             4.301608             -9.117160
| 17>   C                      9.249348             3.887133             -10.934011
| 18>   O                      9.697563             3.561478             -9.597869
| 19>   H                      10.339253            2.835095             -9.668018
| 20>   H                      8.978383             5.007794             -10.990049
| 21>   H                      10.071252            3.732758             -11.620679
| 22>   H                      8.289812             3.395133             -11.245010
| 23> *
| 24>
| 25> #Run DFT-D3 single point of the molecule with dimer basis set
| 26> $new_job
| 27> %base "7-38_DFT_A"
| 28> ! wB97X-D3 def2-TZVP TIGHTSCF CHELPG PMODEL
| 29>
| 30> %scf
| 31> MaxIter 1000
| 32> end
| 33>
| 34> * xyz 0 1
| 35>   C                      4.287323             3.811473             -10.095497
| 36>   O                      5.437001             3.561698             -10.899745
| 37>   H                      5.610883             2.637790             -10.816381
| 38>   H                      3.601199             4.500166             -10.683801
| 39>   H                      3.740410             2.909689             -9.881101
| 40>   H                      4.471084             4.301608             -9.117160
| 41>   C                    : 9.249348             3.887133             -10.934011
| 42>   O                    : 9.697563             3.561478             -9.597869
| 43>   H                    : 10.339253            2.835095             -9.668018
| 44>   H                    : 8.978383             5.007794             -10.990049
| 45>   H                    : 10.071252            3.732758             -11.620679
| 46>   H                    : 8.289812             3.395133             -11.245010
| 47> *
| 48>
| 49> #Run DFT-D3 single point of the particle with dimer basis set
| 50> $new_job
| 51> %base "7-38_DFT_B"
| 52> ! wB97X-D3 def2-TZVP TIGHTSCF CHELPG PMODEL
| 53>
| 54> %scf
| 55> MaxIter 1000
| 56> end
| 57>
| 58> * xyz 0 1
| 59>   C                    : 4.287323             3.811473             -10.095497
| 60>   O                    : 5.437001             3.561698             -10.899745
| 61>   H                    : 5.610883             2.637790             -10.816381
| 62>   H                    : 3.601199             4.500166             -10.683801
| 63>   H                    : 3.740410             2.909689             -9.881101
| 64>   H                    : 4.471084             4.301608             -9.117160
| 65>   C                      9.249348             3.887133             -10.934011
| 66>   O                      9.697563             3.561478             -9.597869
| 67>   H                      10.339253            2.835095             -9.668018
| 68>   H                      8.978383             5.007794             -10.990049
| 69>   H                      10.071252            3.732758             -11.620679
| 70>   H                      8.289812             3.395133             -11.245010
| 71> *
| 72>
| 73>                          ****END OF INPUT****
 Total Charge           Charge          ....    0
 Multiplicity           Mult            ....    1
 Number of Electrons    NEL             ....   36
Dispersion correction           -0.001205000
FINAL SINGLE POINT ENERGY      -231.465735197666
Dispersion correction           -0.000258314
FINAL SINGLE POINT ENERGY      -115.733673423257

CARTESIAN COORDINATES (ANGSTROEM)
---------------------------------
  C      4.287323    3.811473  -10.095497
  O      5.437001    3.561698  -10.899745
  H      5.610883    2.637790  -10.816381
  H      3.601199    4.500166  -10.683801
  H      3.740410    2.909689   -9.881101
  H      4.471084    4.301608   -9.117160
  C      9.249348    3.887133  -10.934011
  O      9.697563    3.561478   -9.597869
  H     10.339253    2.835095   -9.668018
  H      8.978383    5.007794  -10.990049
  H     10.071252    3.732758  -11.620679
  H      8.289812    3.395133  -11.245010

 Multiplicity           Mult            ....    1
 Number of Electrons    NEL             ....   18
 Basis Dimension        Dim             ....  172

ORBITAL ENERGIES
----------------

  NO   OCC          E(Eh)            E(eV)
   0   2.0000     -19.232458      -523.3418
   1   2.0000     -10.324055      -280.9318
   2   2.0000      -1.125162       -30.6172
   3   2.0000      -0.789999       -21.4970
   4   2.0000      -0.602997       -16.4084
   5   2.0000      -0.541058       -14.7229
   6   2.0000      -0.516147       -14.0451
   7   2.0000      -0.431266       -11.7353
   8   2.0000      -0.374591       -10.1931
   9   0.0000       0.087473         2.3803
  10   0.0000       0.114278         3.1096
  11   0.0000       0.142383         3.8744
  12   0.0000       0.170266         4.6332
  13   0.0000       0.193532         5.2663

MULLIKEN ATOMIC CHARGES
-----------------------
   0 C :   -0.000016
   1 O :    0.000517
   2 H :    0.000250
   3 H :   -0.000004
   4 H :   -0.000005
   5 H :    0.000003
   6 C :   -0.179438
   7 O :   -0.474694
   8 H :    0.316042
   9 H :    0.115159
  10 H :    0.116122
  11 H :    0.106063
Sum of atomic charges:   -0.0000000

LOEWDIN ATOMIC CHARGES
----------------------
   0 C :   -0.000094
   1 O :   -0.001710
   2 H :   -0.001225
   3 H :   -0.000003
   4 H :   -0.000002
   5 H :   -0.000003
   6 C :   -0.375712
   7 O :   -0.105992
   8 H :    0.172953
   9 H :    0.116929
  10 H :    0.093968
  11 H :    0.100891

  Mayer bond orders larger than 0.1
B(  6-C ,  7-O ) :   1.0077 B(  6-C ,  9-H ) :   0.9747 B(  6-C , 10-H ) :   0.9820
B(  6-C , 11-H ) :   0.9624 B(  7-O ,  8-H ) :   0.8987

Dispersion correction           -0.000272767
FINAL SINGLE POINT ENERGY      -115.731074240316

DIPOLE MOMENT
-------------
                                X             Y             Z
Electronic contribution:      0.52105      -0.45023       1.72642
Nuclear contribution   :     -0.27810       0.13424      -2.31973
                        -----------------------------------------
Total Dipole Moment    :      0.24296      -0.31600      -0.59331
                        -----------------------------------------
Magnitude (a.u.)       :      0.71477
Magnitude (Debye)      :      1.81681

Rotational constants in cm-1:     4.155797     0.792622     0.765569
Rotational constants in MHz : 124587.666786 23762.207160 22951.189753

                             ****ORCA TERMINATED NORMALLY****
TOTAL RUN TIME: 0 days 0 hours 1 minutes 0 seconds 127 msec
