                         Program Version 4.1.2  - RELEASE  -
|  1> #Run DFT-D3 single point of the dimer
|  2> ! wB97X-D3 def2-TZVP TIGHTSCF CHELPG PMODEL PAL8
|  3>
|  4> %base "14-152_DFT_AB"
|  5>
|  6> %scf
|  7> MaxIter 1000
|  8> end
|  9>
| 10> * xyz 0 1
| 11>   C                      8.290622             5.239301             -9.015405
| 12>   O                      7.716649             6.173702             -8.101895
| 13>   H                      8.239089             5.969744             -7.352667
| 14>   H                      7.967459             4.219938             -8.846703
| 15>   H                      7.958367             5.425387             -10.042128
| 16>   H                      9.361778             5.266100             -8.805668
| 17>   C                      10.678996            8.771194             -7.516484
| 18>   O                      10.671975            9.516892             -6.346500
| 19>   H                      10.764590            8.847367             -5.616443
| 20>   H                      10.695222            7.656437             -7.292155
| 21>   H                      9.869501             8.951080             -8.154115
| 22>   H                      11.614463            9.001513             -8.114070
| 23> *
| 24>
| 25> #Run DFT-D3 single point of the molecule with dimer basis set
| 26> $new_job
| 27> %base "14-152_DFT_A"
| 28> ! wB97X-D3 def2-TZVP TIGHTSCF CHELPG PMODEL
| 29>
| 30> %scf
| 31> MaxIter 1000
| 32> end
| 33>
| 34> * xyz 0 1
| 35>   C                      8.290622             5.239301             -9.015405
| 36>   O                      7.716649             6.173702             -8.101895
| 37>   H                      8.239089             5.969744             -7.352667
| 38>   H                      7.967459             4.219938             -8.846703
| 39>   H                      7.958367             5.425387             -10.042128
| 40>   H                      9.361778             5.266100             -8.805668
| 41>   C                    : 10.678996            8.771194             -7.516484
| 42>   O                    : 10.671975            9.516892             -6.346500
| 43>   H                    : 10.764590            8.847367             -5.616443
| 44>   H                    : 10.695222            7.656437             -7.292155
| 45>   H                    : 9.869501             8.951080             -8.154115
| 46>   H                    : 11.614463            9.001513             -8.114070
| 47> *
| 48>
| 49> #Run DFT-D3 single point of the particle with dimer basis set
| 50> $new_job
| 51> %base "14-152_DFT_B"
| 52> ! wB97X-D3 def2-TZVP TIGHTSCF CHELPG PMODEL
| 53>
| 54> %scf
| 55> MaxIter 1000
| 56> end
| 57>
| 58> * xyz 0 1
| 59>   C                    : 8.290622             5.239301             -9.015405
| 60>   O                    : 7.716649             6.173702             -8.101895
| 61>   H                    : 8.239089             5.969744             -7.352667
| 62>   H                    : 7.967459             4.219938             -8.846703
| 63>   H                    : 7.958367             5.425387             -10.042128
| 64>   H                    : 9.361778             5.266100             -8.805668
| 65>   C                      10.678996            8.771194             -7.516484
| 66>   O                      10.671975            9.516892             -6.346500
| 67>   H                      10.764590            8.847367             -5.616443
| 68>   H                      10.695222            7.656437             -7.292155
| 69>   H                      9.869501             8.951080             -8.154115
| 70>   H                      11.614463            9.001513             -8.114070
| 71> *
| 72>
| 73>                          ****END OF INPUT****
 Total Charge           Charge          ....    0
 Multiplicity           Mult            ....    1
 Number of Electrons    NEL             ....   36
Dispersion correction           -0.001338857
FINAL SINGLE POINT ENERGY      -231.459065992317
Dispersion correction           -0.000210599
FINAL SINGLE POINT ENERGY      -115.729279765795

CARTESIAN COORDINATES (ANGSTROEM)
---------------------------------
  C      8.290622    5.239301   -9.015405
  O      7.716649    6.173702   -8.101895
  H      8.239089    5.969744   -7.352667
  H      7.967459    4.219938   -8.846703
  H      7.958367    5.425387  -10.042128
  H      9.361778    5.266100   -8.805668
  C     10.678996    8.771194   -7.516484
  O     10.671975    9.516892   -6.346500
  H     10.764590    8.847367   -5.616443
  H     10.695222    7.656437   -7.292155
  H      9.869501    8.951080   -8.154115
  H     11.614463    9.001513   -8.114070

 Multiplicity           Mult            ....    1
 Number of Electrons    NEL             ....   18
 Basis Dimension        Dim             ....  172

ORBITAL ENERGIES
----------------

  NO   OCC          E(Eh)            E(eV)
   0   2.0000     -19.234750      -523.4041
   1   2.0000     -10.314009      -280.6584
   2   2.0000      -1.141408       -31.0593
   3   2.0000      -0.788469       -21.4553
   4   2.0000      -0.611666       -16.6443
   5   2.0000      -0.544760       -14.8237
   6   2.0000      -0.529728       -14.4146
   7   2.0000      -0.431058       -11.7297
   8   2.0000      -0.370901       -10.0927
   9   0.0000       0.080712         2.1963
  10   0.0000       0.107833         2.9343
  11   0.0000       0.151794         4.1305
  12   0.0000       0.171236         4.6596
  13   0.0000       0.176410         4.8003

MULLIKEN ATOMIC CHARGES
-----------------------
   0 C :   -0.000438
   1 O :    0.000057
   2 H :    0.000113
   3 H :   -0.000036
   4 H :    0.000003
   5 H :   -0.000445
   6 C :   -0.177338
   7 O :   -0.460676
   8 H :    0.323588
   9 H :    0.097843
  10 H :    0.118680
  11 H :    0.098650
Sum of atomic charges:    0.0000000

LOEWDIN ATOMIC CHARGES
----------------------
   0 C :   -0.000786
   1 O :   -0.000348
   2 H :   -0.000924
   3 H :   -0.000008
   4 H :   -0.000010
   5 H :   -0.000734
   6 C :   -0.414571
   7 O :   -0.072856
   8 H :    0.196208
   9 H :    0.103137
  10 H :    0.087469
  11 H :    0.103424

  Mayer bond orders larger than 0.1
B(  6-C ,  7-O ) :   1.0176 B(  6-C ,  9-H ) :   0.9906 B(  6-C , 10-H ) :   0.9717
B(  6-C , 11-H ) :   0.9748 B(  7-O ,  8-H ) :   0.8943

Dispersion correction           -0.000241365
FINAL SINGLE POINT ENERGY      -115.729473610914

DIPOLE MOMENT
-------------
                                X             Y             Z
Electronic contribution:     -0.16301       1.20834       1.49261
Nuclear contribution   :      0.19981      -1.90680      -1.45483
                        -----------------------------------------
Total Dipole Moment    :      0.03681      -0.69846       0.03778
                        -----------------------------------------
Magnitude (a.u.)       :      0.70045
Magnitude (Debye)      :      1.78040

Rotational constants in cm-1:     4.169620     0.857113     0.817870
Rotational constants in MHz : 125002.070799 25695.613508 24519.124913

                             ****ORCA TERMINATED NORMALLY****
TOTAL RUN TIME: 0 days 0 hours 1 minutes 4 seconds 388 msec
