                         Program Version 4.1.2  - RELEASE  -
|  1> #Run DFT-D3 single point of the dimer
|  2> ! wB97X-D3 def2-TZVP TIGHTSCF CHELPG PMODEL PAL8
|  3>
|  4> %base "9-203_DFT_AB"
|  5>
|  6> %scf
|  7> MaxIter 1000
|  8> end
|  9>
| 10> * xyz 0 1
| 11>   C                      8.790420             -6.568742            -0.676198
| 12>   O                      8.358050             -5.239634            -0.880494
| 13>   H                      8.451338             -5.088571            -1.826494
| 14>   H                      8.387147             -6.923997            0.193152
| 15>   H                      8.409573             -7.173554            -1.522094
| 16>   H                      9.828836             -6.676005            -0.611834
| 17>   C                      10.068561            -3.208010            -3.177799
| 18>   O                      9.310852             -4.300594            -3.592050
| 19>   H                      8.967328             -4.079463            -4.439330
| 20>   H                      10.890299            -3.065571            -3.831773
| 21>   H                      9.479196             -2.275013            -3.274973
| 22>   H                      10.390322            -3.248299            -2.115350
| 23> *
| 24>
| 25> #Run DFT-D3 single point of the molecule with dimer basis set
| 26> $new_job
| 27> %base "9-203_DFT_A"
| 28> ! wB97X-D3 def2-TZVP TIGHTSCF CHELPG PMODEL
| 29>
| 30> %scf
| 31> MaxIter 1000
| 32> end
| 33>
| 34> * xyz 0 1
| 35>   C                      8.790420             -6.568742            -0.676198
| 36>   O                      8.358050             -5.239634            -0.880494
| 37>   H                      8.451338             -5.088571            -1.826494
| 38>   H                      8.387147             -6.923997            0.193152
| 39>   H                      8.409573             -7.173554            -1.522094
| 40>   H                      9.828836             -6.676005            -0.611834
| 41>   C                    : 10.068561            -3.208010            -3.177799
| 42>   O                    : 9.310852             -4.300594            -3.592050
| 43>   H                    : 8.967328             -4.079463            -4.439330
| 44>   H                    : 10.890299            -3.065571            -3.831773
| 45>   H                    : 9.479196             -2.275013            -3.274973
| 46>   H                    : 10.390322            -3.248299            -2.115350
| 47> *
| 48>
| 49> #Run DFT-D3 single point of the particle with dimer basis set
| 50> $new_job
| 51> %base "9-203_DFT_B"
| 52> ! wB97X-D3 def2-TZVP TIGHTSCF CHELPG PMODEL
| 53>
| 54> %scf
| 55> MaxIter 1000
| 56> end
| 57>
| 58> * xyz 0 1
| 59>   C                    : 8.790420             -6.568742            -0.676198
| 60>   O                    : 8.358050             -5.239634            -0.880494
| 61>   H                    : 8.451338             -5.088571            -1.826494
| 62>   H                    : 8.387147             -6.923997            0.193152
| 63>   H                    : 8.409573             -7.173554            -1.522094
| 64>   H                    : 9.828836             -6.676005            -0.611834
| 65>   C                      10.068561            -3.208010            -3.177799
| 66>   O                      9.310852             -4.300594            -3.592050
| 67>   H                      8.967328             -4.079463            -4.439330
| 68>   H                      10.890299            -3.065571            -3.831773
| 69>   H                      9.479196             -2.275013            -3.274973
| 70>   H                      10.390322            -3.248299            -2.115350
| 71> *
| 72>
| 73>                          ****END OF INPUT****
 Total Charge           Charge          ....    0
 Multiplicity           Mult            ....    1
 Number of Electrons    NEL             ....   36
Dispersion correction           -0.001709405
FINAL SINGLE POINT ENERGY      -231.473139828933
Dispersion correction           -0.000214214
FINAL SINGLE POINT ENERGY      -115.731480086447

CARTESIAN COORDINATES (ANGSTROEM)
---------------------------------
  C      8.790420   -6.568742   -0.676198
  O      8.358050   -5.239634   -0.880494
  H      8.451338   -5.088571   -1.826494
  H      8.387147   -6.923997    0.193152
  H      8.409573   -7.173554   -1.522094
  H      9.828836   -6.676005   -0.611834
  C     10.068561   -3.208010   -3.177799
  O      9.310852   -4.300594   -3.592050
  H      8.967328   -4.079463   -4.439330
  H     10.890299   -3.065571   -3.831773
  H      9.479196   -2.275013   -3.274973
  H     10.390322   -3.248299   -2.115350

 Multiplicity           Mult            ....    1
 Number of Electrons    NEL             ....   18
 Basis Dimension        Dim             ....  172

ORBITAL ENERGIES
----------------

  NO   OCC          E(Eh)            E(eV)
   0   2.0000     -19.229022      -523.2483
   1   2.0000     -10.311293      -280.5845
   2   2.0000      -1.148645       -31.2562
   3   2.0000      -0.796103       -21.6631
   4   2.0000      -0.619434       -16.8556
   5   2.0000      -0.546499       -14.8710
   6   2.0000      -0.530989       -14.4489
   7   2.0000      -0.435045       -11.8382
   8   2.0000      -0.371602       -10.1118
   9   0.0000       0.099171         2.6986
  10   0.0000       0.123504         3.3607
  11   0.0000       0.154778         4.2117
  12   0.0000       0.187304         5.0968
  13   0.0000       0.202724         5.5164

MULLIKEN ATOMIC CHARGES
-----------------------
   0 C :    0.000587
   1 O :   -0.000768
   2 H :   -0.006765
   3 H :   -0.000135
   4 H :   -0.000821
   5 H :   -0.000302
   6 C :   -0.162478
   7 O :   -0.461873
   8 H :    0.311111
   9 H :    0.103758
  10 H :    0.095734
  11 H :    0.121951
Sum of atomic charges:    0.0000000

LOEWDIN ATOMIC CHARGES
----------------------
   0 C :   -0.001746
   1 O :   -0.002734
   2 H :   -0.027743
   3 H :   -0.000022
   4 H :   -0.000304
   5 H :   -0.000080
   6 C :   -0.396597
   7 O :   -0.028307
   8 H :    0.160299
   9 H :    0.087319
  10 H :    0.096059
  11 H :    0.113856

  Mayer bond orders larger than 0.1
B(  6-C ,  7-O ) :   0.9807 B(  6-C ,  9-H ) :   0.9752 B(  6-C , 10-H ) :   0.9835
B(  6-C , 11-H ) :   0.9727 B(  7-O ,  8-H ) :   0.9007

Dispersion correction           -0.000215799
FINAL SINGLE POINT ENERGY      -115.733335771050

DIPOLE MOMENT
-------------
                                X             Y             Z
Electronic contribution:     -0.88292      -1.59945      -0.38380
Nuclear contribution   :      0.96573       2.17334      -0.00572
                        -----------------------------------------
Total Dipole Moment    :      0.08282       0.57389      -0.38952
                        -----------------------------------------
Magnitude (a.u.)       :      0.69852
Magnitude (Debye)      :      1.77550

Rotational constants in cm-1:     4.364540     0.856077     0.818987
Rotational constants in MHz : 130845.620266 25664.536591 24552.603245

                             ****ORCA TERMINATED NORMALLY****
TOTAL RUN TIME: 0 days 0 hours 0 minutes 44 seconds 518 msec
