                         Program Version 4.1.2  - RELEASE  -
|  1> #Run DFT-D3 single point of the dimer
|  2> ! wB97X-D3 def2-TZVP TIGHTSCF CHELPG PMODEL PAL8
|  3>
|  4> %base "13-121_DFT_AB"
|  5>
|  6> %scf
|  7> MaxIter 1000
|  8> end
|  9>
| 10> * xyz 0 1
| 11>   C                      -4.012360            -0.632223            -6.223825
| 12>   O                      -2.965257            -0.703320            -7.190753
| 13>   H                      -2.852629            0.189757             -7.475184
| 14>   H                      -4.895015            -0.107006            -6.552738
| 15>   H                      -4.281098            -1.627161            -5.907874
| 16>   H                      -3.664603            -0.197199            -5.263075
| 17>   C                      0.585517             -1.759218            -8.335983
| 18>   O                      0.816853             -0.517907            -7.692946
| 19>   H                      0.045362             -0.186722            -7.257872
| 20>   H                      -0.363235            -1.712037            -8.836168
| 21>   H                      1.427785             -1.858109            -9.006055
| 22>   H                      0.591443             -2.551669            -7.587981
| 23> *
| 24>
| 25> #Run DFT-D3 single point of the molecule with dimer basis set
| 26> $new_job
| 27> %base "13-121_DFT_A"
| 28> ! wB97X-D3 def2-TZVP TIGHTSCF CHELPG PMODEL
| 29>
| 30> %scf
| 31> MaxIter 1000
| 32> end
| 33>
| 34> * xyz 0 1
| 35>   C                      -4.012360            -0.632223            -6.223825
| 36>   O                      -2.965257            -0.703320            -7.190753
| 37>   H                      -2.852629            0.189757             -7.475184
| 38>   H                      -4.895015            -0.107006            -6.552738
| 39>   H                      -4.281098            -1.627161            -5.907874
| 40>   H                      -3.664603            -0.197199            -5.263075
| 41>   C                    : 0.585517             -1.759218            -8.335983
| 42>   O                    : 0.816853             -0.517907            -7.692946
| 43>   H                    : 0.045362             -0.186722            -7.257872
| 44>   H                    : -0.363235            -1.712037            -8.836168
| 45>   H                    : 1.427785             -1.858109            -9.006055
| 46>   H                    : 0.591443             -2.551669            -7.587981
| 47> *
| 48>
| 49> #Run DFT-D3 single point of the particle with dimer basis set
| 50> $new_job
| 51> %base "13-121_DFT_B"
| 52> ! wB97X-D3 def2-TZVP TIGHTSCF CHELPG PMODEL
| 53>
| 54> %scf
| 55> MaxIter 1000
| 56> end
| 57>
| 58> * xyz 0 1
| 59>   C                    : -4.012360            -0.632223            -6.223825
| 60>   O                    : -2.965257            -0.703320            -7.190753
| 61>   H                    : -2.852629            0.189757             -7.475184
| 62>   H                    : -4.895015            -0.107006            -6.552738
| 63>   H                    : -4.281098            -1.627161            -5.907874
| 64>   H                    : -3.664603            -0.197199            -5.263075
| 65>   C                      0.585517             -1.759218            -8.335983
| 66>   O                      0.816853             -0.517907            -7.692946
| 67>   H                      0.045362             -0.186722            -7.257872
| 68>   H                      -0.363235            -1.712037            -8.836168
| 69>   H                      1.427785             -1.858109            -9.006055
| 70>   H                      0.591443             -2.551669            -7.587981
| 71> *
| 72>
| 73>                          ****END OF INPUT****
 Total Charge           Charge          ....    0
 Multiplicity           Mult            ....    1
 Number of Electrons    NEL             ....   36
Dispersion correction           -0.001320711
FINAL SINGLE POINT ENERGY      -231.472617143434
Dispersion correction           -0.000243031
FINAL SINGLE POINT ENERGY      -115.735113534488

CARTESIAN COORDINATES (ANGSTROEM)
---------------------------------
  C     -4.012360   -0.632223   -6.223825
  O     -2.965257   -0.703320   -7.190753
  H     -2.852629    0.189757   -7.475184
  H     -4.895015   -0.107006   -6.552738
  H     -4.281098   -1.627161   -5.907874
  H     -3.664603   -0.197199   -5.263075
  C      0.585517   -1.759218   -8.335983
  O      0.816853   -0.517907   -7.692946
  H      0.045362   -0.186722   -7.257872
  H     -0.363235   -1.712037   -8.836168
  H      1.427785   -1.858109   -9.006055
  H      0.591443   -2.551669   -7.587981

 Multiplicity           Mult            ....    1
 Number of Electrons    NEL             ....   18
 Basis Dimension        Dim             ....  172

ORBITAL ENERGIES
----------------

  NO   OCC          E(Eh)            E(eV)
   0   2.0000     -19.221042      -523.0311
   1   2.0000     -10.309373      -280.5323
   2   2.0000      -1.132817       -30.8255
   3   2.0000      -0.799061       -21.7436
   4   2.0000      -0.611276       -16.6337
   5   2.0000      -0.545327       -14.8391
   6   2.0000      -0.527961       -14.3666
   7   2.0000      -0.430107       -11.7038
   8   2.0000      -0.370324       -10.0770
   9   0.0000       0.072122         1.9626
  10   0.0000       0.118477         3.2239
  11   0.0000       0.157962         4.2984
  12   0.0000       0.174706         4.7540
  13   0.0000       0.192397         5.2354

MULLIKEN ATOMIC CHARGES
-----------------------
   0 C :   -0.000049
   1 O :   -0.000354
   2 H :   -0.000533
   3 H :    0.000000
   4 H :    0.000005
   5 H :   -0.000013
   6 C :   -0.137367
   7 O :   -0.493199
   8 H :    0.310057
   9 H :    0.104067
  10 H :    0.122183
  11 H :    0.095202
Sum of atomic charges:    0.0000000

LOEWDIN ATOMIC CHARGES
----------------------
   0 C :   -0.000103
   1 O :   -0.001098
   2 H :   -0.000791
   3 H :   -0.000002
   4 H :   -0.000002
   5 H :   -0.000008
   6 C :   -0.366285
   7 O :   -0.079271
   8 H :    0.152759
   9 H :    0.092119
  10 H :    0.108827
  11 H :    0.093855

  Mayer bond orders larger than 0.1
B(  6-C ,  7-O ) :   0.9839 B(  6-C ,  9-H ) :   0.9812 B(  6-C , 10-H ) :   0.9756
B(  6-C , 11-H ) :   0.9776 B(  7-O ,  8-H ) :   0.9046

Dispersion correction           -0.000224765
FINAL SINGLE POINT ENERGY      -115.734920123767

DIPOLE MOMENT
-------------
                                X             Y             Z
Electronic contribution:      0.35510       1.42946       0.67082
Nuclear contribution   :     -0.95692      -1.71976      -0.66257
                        -----------------------------------------
Total Dipole Moment    :     -0.60182      -0.29030       0.00826
                        -----------------------------------------
Magnitude (a.u.)       :      0.66823
Magnitude (Debye)      :      1.69851

Rotational constants in cm-1:     4.291899     0.842347     0.812070
Rotational constants in MHz : 128667.902514 25252.929846 24345.256715

                             ****ORCA TERMINATED NORMALLY****
TOTAL RUN TIME: 0 days 0 hours 1 minutes 5 seconds 540 msec
