                         Program Version 4.1.2  - RELEASE  -
|  1> #Run DFT-D3 single point of the dimer
|  2> ! wB97X-D3 def2-TZVP TIGHTSCF CHELPG PMODEL PAL8
|  3>
|  4> %base "16-41_DFT_AB"
|  5>
|  6> %scf
|  7> MaxIter 1000
|  8> end
|  9>
| 10> * xyz 0 1
| 11>   C                      -9.607152            5.117939             10.317156
| 12>   O                      -9.368994            5.737735             9.035976
| 13>   H                      -8.398916            5.941708             9.107230
| 14>   H                      -9.158430            4.141483             10.316364
| 15>   H                      -9.168728            5.705296             11.156317
| 16>   H                      -10.756930           5.109507             10.406257
| 17>   C                      -6.288564            7.321391             9.342525
| 18>   O                      -6.551368            6.072985             8.771686
| 19>   H                      -6.181356            6.100309             7.882743
| 20>   H                      -5.244810            7.621234             9.418924
| 21>   H                      -6.769384            8.110163             8.728446
| 22>   H                      -6.762811            7.352081             10.372824
| 23> *
| 24>
| 25> #Run DFT-D3 single point of the molecule with dimer basis set
| 26> $new_job
| 27> %base "16-41_DFT_A"
| 28> ! wB97X-D3 def2-TZVP TIGHTSCF CHELPG PMODEL
| 29>
| 30> %scf
| 31> MaxIter 1000
| 32> end
| 33>
| 34> * xyz 0 1
| 35>   C                      -9.607152            5.117939             10.317156
| 36>   O                      -9.368994            5.737735             9.035976
| 37>   H                      -8.398916            5.941708             9.107230
| 38>   H                      -9.158430            4.141483             10.316364
| 39>   H                      -9.168728            5.705296             11.156317
| 40>   H                      -10.756930           5.109507             10.406257
| 41>   C                    : -6.288564            7.321391             9.342525
| 42>   O                    : -6.551368            6.072985             8.771686
| 43>   H                    : -6.181356            6.100309             7.882743
| 44>   H                    : -5.244810            7.621234             9.418924
| 45>   H                    : -6.769384            8.110163             8.728446
| 46>   H                    : -6.762811            7.352081             10.372824
| 47> *
| 48>
| 49> #Run DFT-D3 single point of the particle with dimer basis set
| 50> $new_job
| 51> %base "16-41_DFT_B"
| 52> ! wB97X-D3 def2-TZVP TIGHTSCF CHELPG PMODEL
| 53>
| 54> %scf
| 55> MaxIter 1000
| 56> end
| 57>
| 58> * xyz 0 1
| 59>   C                    : -9.607152            5.117939             10.317156
| 60>   O                    : -9.368994            5.737735             9.035976
| 61>   H                    : -8.398916            5.941708             9.107230
| 62>   H                    : -9.158430            4.141483             10.316364
| 63>   H                    : -9.168728            5.705296             11.156317
| 64>   H                    : -10.756930           5.109507             10.406257
| 65>   C                      -6.288564            7.321391             9.342525
| 66>   O                      -6.551368            6.072985             8.771686
| 67>   H                      -6.181356            6.100309             7.882743
| 68>   H                      -5.244810            7.621234             9.418924
| 69>   H                      -6.769384            8.110163             8.728446
| 70>   H                      -6.762811            7.352081             10.372824
| 71> *
| 72>
| 73>                          ****END OF INPUT****
 Total Charge           Charge          ....    0
 Multiplicity           Mult            ....    1
 Number of Electrons    NEL             ....   36
Dispersion correction           -0.001916632
FINAL SINGLE POINT ENERGY      -231.473119245820
Dispersion correction           -0.000229781
FINAL SINGLE POINT ENERGY      -115.730908443222

CARTESIAN COORDINATES (ANGSTROEM)
---------------------------------
  C     -9.607152    5.117939   10.317156
  O     -9.368994    5.737735    9.035976
  H     -8.398916    5.941708    9.107230
  H     -9.158430    4.141483   10.316364
  H     -9.168728    5.705296   11.156317
  H    -10.756930    5.109507   10.406257
  C     -6.288564    7.321391    9.342525
  O     -6.551368    6.072985    8.771686
  H     -6.181356    6.100309    7.882743
  H     -5.244810    7.621234    9.418924
  H     -6.769384    8.110163    8.728446
  H     -6.762811    7.352081   10.372824

 Multiplicity           Mult            ....    1
 Number of Electrons    NEL             ....   18
 Basis Dimension        Dim             ....  172

ORBITAL ENERGIES
----------------

  NO   OCC          E(Eh)            E(eV)
   0   2.0000     -19.233692      -523.3754
   1   2.0000     -10.316728      -280.7324
   2   2.0000      -1.143747       -31.1229
   3   2.0000      -0.790214       -21.5028
   4   2.0000      -0.617293       -16.7974
   5   2.0000      -0.539724       -14.6866
   6   2.0000      -0.524825       -14.2812
   7   2.0000      -0.436260       -11.8712
   8   2.0000      -0.372930       -10.1479
   9   0.0000       0.097425         2.6511
  10   0.0000       0.123659         3.3649
  11   0.0000       0.152269         4.1435
  12   0.0000       0.184113         5.0100
  13   0.0000       0.196961         5.3596

MULLIKEN ATOMIC CHARGES
-----------------------
   0 C :    0.000472
   1 O :   -0.002662
   2 H :    0.001245
   3 H :   -0.000858
   4 H :   -0.000638
   5 H :   -0.000058
   6 C :   -0.174227
   7 O :   -0.466855
   8 H :    0.314152
   9 H :    0.108483
  10 H :    0.101307
  11 H :    0.119638
Sum of atomic charges:    0.0000000

LOEWDIN ATOMIC CHARGES
----------------------
   0 C :   -0.002607
   1 O :   -0.006314
   2 H :   -0.045437
   3 H :   -0.000339
   4 H :   -0.000479
   5 H :   -0.000034
   6 C :   -0.402740
   7 O :   -0.023384
   8 H :    0.173447
   9 H :    0.092234
  10 H :    0.096425
  11 H :    0.119228

  Mayer bond orders larger than 0.1
B(  6-C ,  7-O ) :   0.9863 B(  6-C ,  9-H ) :   0.9624 B(  6-C , 10-H ) :   0.9840
B(  6-C , 11-H ) :   0.9767 B(  7-O ,  8-H ) :   0.8970

Dispersion correction           -0.000236248
FINAL SINGLE POINT ENERGY      -115.735141453629

DIPOLE MOMENT
-------------
                                X             Y             Z
Electronic contribution:     -0.30952      -1.75457      -0.61581
Nuclear contribution   :      0.65106       2.24657       0.27266
                        -----------------------------------------
Total Dipole Moment    :      0.34153       0.49199      -0.34315
                        -----------------------------------------
Magnitude (a.u.)       :      0.69026
Magnitude (Debye)      :      1.75450

Rotational constants in cm-1:     4.202343     0.847225     0.808469
Rotational constants in MHz : 125983.061796 25399.169006 24237.297237

                             ****ORCA TERMINATED NORMALLY****
TOTAL RUN TIME: 0 days 0 hours 1 minutes 9 seconds 75 msec
