                         Program Version 4.1.2  - RELEASE  -
|  1> #Run DFT-D3 single point of the dimer
|  2> ! wB97X-D3 def2-TZVP TIGHTSCF CHELPG PMODEL PAL8
|  3>
|  4> %base "17-176_DFT_AB"
|  5>
|  6> %scf
|  7> MaxIter 1000
|  8> end
|  9>
| 10> * xyz 0 1
| 11>   C                      -7.515037            5.582148             -3.315397
| 12>   O                      -6.525730            6.413087             -2.809489
| 13>   H                      -7.074586            7.115565             -2.361742
| 14>   H                      -8.167895            5.167696             -2.554163
| 15>   H                      -8.144789            6.128681             -3.981779
| 16>   H                      -7.049836            4.735349             -3.887886
| 17>   C                      -8.877339            9.266009             -2.068696
| 18>   O                      -7.797559            8.549895             -1.538670
| 19>   H                      -7.596468            8.973117             -0.634894
| 20>   H                      -9.542508            8.540720             -2.635445
| 21>   H                      -9.628912            9.599043             -1.270512
| 22>   H                      -8.547660            10.072176            -2.649976
| 23> *
| 24>
| 25> #Run DFT-D3 single point of the molecule with dimer basis set
| 26> $new_job
| 27> %base "17-176_DFT_A"
| 28> ! wB97X-D3 def2-TZVP TIGHTSCF CHELPG PMODEL
| 29>
| 30> %scf
| 31> MaxIter 1000
| 32> end
| 33>
| 34> * xyz 0 1
| 35>   C                      -7.515037            5.582148             -3.315397
| 36>   O                      -6.525730            6.413087             -2.809489
| 37>   H                      -7.074586            7.115565             -2.361742
| 38>   H                      -8.167895            5.167696             -2.554163
| 39>   H                      -8.144789            6.128681             -3.981779
| 40>   H                      -7.049836            4.735349             -3.887886
| 41>   C                    : -8.877339            9.266009             -2.068696
| 42>   O                    : -7.797559            8.549895             -1.538670
| 43>   H                    : -7.596468            8.973117             -0.634894
| 44>   H                    : -9.542508            8.540720             -2.635445
| 45>   H                    : -9.628912            9.599043             -1.270512
| 46>   H                    : -8.547660            10.072176            -2.649976
| 47> *
| 48>
| 49> #Run DFT-D3 single point of the particle with dimer basis set
| 50> $new_job
| 51> %base "17-176_DFT_B"
| 52> ! wB97X-D3 def2-TZVP TIGHTSCF CHELPG PMODEL
| 53>
| 54> %scf
| 55> MaxIter 1000
| 56> end
| 57>
| 58> * xyz 0 1
| 59>   C                    : -7.515037            5.582148             -3.315397
| 60>   O                    : -6.525730            6.413087             -2.809489
| 61>   H                    : -7.074586            7.115565             -2.361742
| 62>   H                    : -8.167895            5.167696             -2.554163
| 63>   H                    : -8.144789            6.128681             -3.981779
| 64>   H                    : -7.049836            4.735349             -3.887886
| 65>   C                      -8.877339            9.266009             -2.068696
| 66>   O                      -7.797559            8.549895             -1.538670
| 67>   H                      -7.596468            8.973117             -0.634894
| 68>   H                      -9.542508            8.540720             -2.635445
| 69>   H                      -9.628912            9.599043             -1.270512
| 70>   H                      -8.547660            10.072176            -2.649976
| 71> *
| 72>
| 73>                          ****END OF INPUT****
 Total Charge           Charge          ....    0
 Multiplicity           Mult            ....    1
 Number of Electrons    NEL             ....   36
Dispersion correction           -0.001841368
FINAL SINGLE POINT ENERGY      -231.468510528839
Dispersion correction           -0.000208847
FINAL SINGLE POINT ENERGY      -115.732560930125

CARTESIAN COORDINATES (ANGSTROEM)
---------------------------------
  C     -7.515037    5.582148   -3.315397
  O     -6.525730    6.413087   -2.809489
  H     -7.074586    7.115565   -2.361742
  H     -8.167895    5.167696   -2.554163
  H     -8.144789    6.128681   -3.981779
  H     -7.049836    4.735349   -3.887886
  C     -8.877339    9.266009   -2.068696
  O     -7.797559    8.549895   -1.538670
  H     -7.596468    8.973117   -0.634894
  H     -9.542508    8.540720   -2.635445
  H     -9.628912    9.599043   -1.270512
  H     -8.547660   10.072176   -2.649976

 Multiplicity           Mult            ....    1
 Number of Electrons    NEL             ....   18
 Basis Dimension        Dim             ....  172

ORBITAL ENERGIES
----------------

  NO   OCC          E(Eh)            E(eV)
   0   2.0000     -19.236701      -523.4573
   1   2.0000     -10.316092      -280.7151
   2   2.0000      -1.132803       -30.8251
   3   2.0000      -0.786104       -21.3910
   4   2.0000      -0.603918       -16.4334
   5   2.0000      -0.557292       -15.1647
   6   2.0000      -0.517528       -14.0827
   7   2.0000      -0.421637       -11.4733
   8   2.0000      -0.376742       -10.2517
   9   0.0000       0.095198         2.5905
  10   0.0000       0.118612         3.2276
  11   0.0000       0.150426         4.0933
  12   0.0000       0.183767         5.0006
  13   0.0000       0.201447         5.4816

MULLIKEN ATOMIC CHARGES
-----------------------
   0 C :    0.001249
   1 O :    0.001594
   2 H :   -0.011866
   3 H :   -0.001182
   4 H :   -0.000196
   5 H :   -0.000114
   6 C :   -0.169347
   7 O :   -0.464435
   8 H :    0.318384
   9 H :    0.113400
  10 H :    0.097443
  11 H :    0.115068
Sum of atomic charges:    0.0000000

LOEWDIN ATOMIC CHARGES
----------------------
   0 C :   -0.002885
   1 O :   -0.006437
   2 H :   -0.055628
   3 H :   -0.000383
   4 H :   -0.000442
   5 H :   -0.000035
   6 C :   -0.404382
   7 O :   -0.037311
   8 H :    0.203759
   9 H :    0.114366
  10 H :    0.104696
  11 H :    0.084681

  Mayer bond orders larger than 0.1
B(  6-C ,  7-O ) :   0.9967 B(  6-C ,  9-H ) :   0.9751 B(  6-C , 10-H ) :   0.9737
B(  6-C , 11-H ) :   0.9718 B(  7-O ,  8-H ) :   0.8887

Dispersion correction           -0.000244685
FINAL SINGLE POINT ENERGY      -115.727541058779

DIPOLE MOMENT
-------------
                                X             Y             Z
Electronic contribution:      1.56253      -0.90212       0.46943
Nuclear contribution   :     -1.85641       1.43573      -0.10075
                        -----------------------------------------
Total Dipole Moment    :     -0.29389       0.53361       0.36868
                        -----------------------------------------
Magnitude (a.u.)       :      0.71206
Magnitude (Debye)      :      1.80992

Rotational constants in cm-1:     4.081668     0.838269     0.812159
Rotational constants in MHz : 122365.339263 25130.663330 24347.923898

                             ****ORCA TERMINATED NORMALLY****
TOTAL RUN TIME: 0 days 0 hours 1 minutes 10 seconds 826 msec
