                         Program Version 4.1.2  - RELEASE  -
|  1> #Run DFT-D3 single point of the dimer
|  2> ! wB97X-D3 def2-TZVP TIGHTSCF  CHELPG PAL8
|  3>
|  4> %base "52_charges"
|  5>
|  6> %scf
|  7> MaxIter 1000
|  8> end
|  9> %output
| 10>   Print[ P_Mayer ] 1
| 11>   Print[ P_NatPop ] 1
| 12>   Print[ P_Hirshfeld ] 1
| 13>   Print[ P_Mulliken ] 1
| 14>   Print [ P_Loewdin ] 1
| 15> end
| 16>
| 17> * xyz 0 1
| 18>   C                      -9.781341            2.891986             -4.890354
| 19>   O                      -9.265412            4.202007             -4.639118
| 20>   H                      -8.978955            4.255495             -3.728800
| 21>   H                      -10.402662           2.435077             -4.051906
| 22>   H                      -10.358496           2.902167             -5.822584
| 23>   H                      -8.956540            2.210964             -4.977244
| 24> *
| 25>
| 26>                          ****END OF INPUT****

CARTESIAN COORDINATES (ANGSTROEM)
---------------------------------
  C     -9.781341    2.891986   -4.890354
  O     -9.265412    4.202007   -4.639118
  H     -8.978955    4.255495   -3.728800
  H    -10.402662    2.435077   -4.051906
  H    -10.358496    2.902167   -5.822584
  H     -8.956540    2.210964   -4.977244

 Total Charge           Charge          ....    0
 Multiplicity           Mult            ....    1
 Number of Electrons    NEL             ....   18
 Basis Dimension        Dim             ....   86

ORBITAL ENERGIES
----------------

  NO   OCC          E(Eh)            E(eV)
   0   2.0000     -19.229809      -523.2697
   1   2.0000     -10.317252      -280.7467
   2   2.0000      -1.131582       -30.7919
   3   2.0000      -0.795334       -21.6421
   4   2.0000      -0.610159       -16.6033
   5   2.0000      -0.536199       -14.5907
   6   2.0000      -0.522886       -14.2285
   7   2.0000      -0.437700       -11.9104
   8   2.0000      -0.372005       -10.1228
   9   0.0000       0.115411         3.1405
  10   0.0000       0.153009         4.1636
  11   0.0000       0.194767         5.2999
  12   0.0000       0.207975         5.6593
  13   0.0000       0.228452         6.2165

MULLIKEN ATOMIC CHARGES
-----------------------
   0 C :   -0.168311
   1 O :   -0.477207
   2 H :    0.313793
   3 H :    0.100555
   4 H :    0.125001
   5 H :    0.106169
Sum of atomic charges:    0.0000000

LOEWDIN ATOMIC CHARGES
----------------------
   0 C :   -0.377304
   1 O :   -0.087638
   2 H :    0.164029
   3 H :    0.101902
   4 H :    0.109466
   5 H :    0.089545

  Mayer bond orders larger than 0.1
B(  0-C ,  1-O ) :   0.9938 B(  0-C ,  3-H ) :   0.9718 B(  0-C ,  4-H ) :   0.9724
B(  0-C ,  5-H ) :   0.9774 B(  1-O ,  2-H ) :   0.9001

Dispersion correction           -0.000255810
FINAL SINGLE POINT ENERGY      -115.733937643800

DIPOLE MOMENT
-------------
                                X             Y             Z
Electronic contribution:      0.59768       1.75076       0.13991
Nuclear contribution   :     -0.61152      -2.25174       0.33509
                        -----------------------------------------
Total Dipole Moment    :     -0.01384      -0.50098       0.47500
                        -----------------------------------------
Magnitude (a.u.)       :      0.69051
Magnitude (Debye)      :      1.75512

Rotational constants in cm-1:     4.276586     0.815419     0.778889
Rotational constants in MHz : 128208.834871 24445.650118 23350.493472

                             ****ORCA TERMINATED NORMALLY****
TOTAL RUN TIME: 0 days 0 hours 0 minutes 44 seconds 272 msec
