                         Program Version 4.1.2  - RELEASE  -
|  1> #Run DFT-D3 single point of the dimer
|  2> ! wB97X-D3 def2-TZVP TIGHTSCF CHELPG PMODEL PAL8
|  3>
|  4> %base "17-107_DFT_AB"
|  5>
|  6> %scf
|  7> MaxIter 1000
|  8> end
|  9>
| 10> * xyz 0 1
| 11>   C                      -3.510231            -1.086601            -3.537600
| 12>   O                      -4.343705            -1.752611            -4.437602
| 13>   H                      -5.224240            -1.403687            -4.477860
| 14>   H                      -4.049414            -0.835512            -2.615135
| 15>   H                      -2.571821            -1.682410            -3.278911
| 16>   H                      -3.190376            -0.068218            -3.952758
| 17>   C                      -2.539012            -5.629873            -4.086639
| 18>   O                      -3.392645            -6.306400            -4.953503
| 19>   H                      -4.115533            -5.702665            -5.142074
| 20>   H                      -2.657348            -5.959694            -3.101321
| 21>   H                      -1.519630            -5.902938            -4.379619
| 22>   H                      -2.561372            -4.506593            -4.167548
| 23> *
| 24>
| 25> #Run DFT-D3 single point of the molecule with dimer basis set
| 26> $new_job
| 27> %base "17-107_DFT_A"
| 28> ! wB97X-D3 def2-TZVP TIGHTSCF CHELPG PMODEL
| 29>
| 30> %scf
| 31> MaxIter 1000
| 32> end
| 33>
| 34> * xyz 0 1
| 35>   C                      -3.510231            -1.086601            -3.537600
| 36>   O                      -4.343705            -1.752611            -4.437602
| 37>   H                      -5.224240            -1.403687            -4.477860
| 38>   H                      -4.049414            -0.835512            -2.615135
| 39>   H                      -2.571821            -1.682410            -3.278911
| 40>   H                      -3.190376            -0.068218            -3.952758
| 41>   C                    : -2.539012            -5.629873            -4.086639
| 42>   O                    : -3.392645            -6.306400            -4.953503
| 43>   H                    : -4.115533            -5.702665            -5.142074
| 44>   H                    : -2.657348            -5.959694            -3.101321
| 45>   H                    : -1.519630            -5.902938            -4.379619
| 46>   H                    : -2.561372            -4.506593            -4.167548
| 47> *
| 48>
| 49> #Run DFT-D3 single point of the particle with dimer basis set
| 50> $new_job
| 51> %base "17-107_DFT_B"
| 52> ! wB97X-D3 def2-TZVP TIGHTSCF CHELPG PMODEL
| 53>
| 54> %scf
| 55> MaxIter 1000
| 56> end
| 57>
| 58> * xyz 0 1
| 59>   C                    : -3.510231            -1.086601            -3.537600
| 60>   O                    : -4.343705            -1.752611            -4.437602
| 61>   H                    : -5.224240            -1.403687            -4.477860
| 62>   H                    : -4.049414            -0.835512            -2.615135
| 63>   H                    : -2.571821            -1.682410            -3.278911
| 64>   H                    : -3.190376            -0.068218            -3.952758
| 65>   C                      -2.539012            -5.629873            -4.086639
| 66>   O                      -3.392645            -6.306400            -4.953503
| 67>   H                      -4.115533            -5.702665            -5.142074
| 68>   H                      -2.657348            -5.959694            -3.101321
| 69>   H                      -1.519630            -5.902938            -4.379619
| 70>   H                      -2.561372            -4.506593            -4.167548
| 71> *
| 72>
| 73>                          ****END OF INPUT****
 Total Charge           Charge          ....    0
 Multiplicity           Mult            ....    1
 Number of Electrons    NEL             ....   36
Dispersion correction           -0.001145857
FINAL SINGLE POINT ENERGY      -231.466729765093
Dispersion correction           -0.000257141
FINAL SINGLE POINT ENERGY      -115.732265439242

CARTESIAN COORDINATES (ANGSTROEM)
---------------------------------
  C     -3.510231   -1.086601   -3.537600
  O     -4.343705   -1.752611   -4.437602
  H     -5.224240   -1.403687   -4.477860
  H     -4.049414   -0.835512   -2.615135
  H     -2.571821   -1.682410   -3.278911
  H     -3.190376   -0.068218   -3.952758
  C     -2.539012   -5.629873   -4.086639
  O     -3.392645   -6.306400   -4.953503
  H     -4.115533   -5.702665   -5.142074
  H     -2.657348   -5.959694   -3.101321
  H     -1.519630   -5.902938   -4.379619
  H     -2.561372   -4.506593   -4.167548

 Multiplicity           Mult            ....    1
 Number of Electrons    NEL             ....   18
 Basis Dimension        Dim             ....  172

ORBITAL ENERGIES
----------------

  NO   OCC          E(Eh)            E(eV)
   0   2.0000     -19.230136      -523.2786
   1   2.0000     -10.308310      -280.5034
   2   2.0000      -1.144125       -31.1332
   3   2.0000      -0.795590       -21.6491
   4   2.0000      -0.613210       -16.6863
   5   2.0000      -0.551043       -14.9946
   6   2.0000      -0.525462       -14.2985
   7   2.0000      -0.432600       -11.7716
   8   2.0000      -0.373429       -10.1615
   9   0.0000       0.076340         2.0773
  10   0.0000       0.116883         3.1806
  11   0.0000       0.146280         3.9805
  12   0.0000       0.170621         4.6428
  13   0.0000       0.180791         4.9196

MULLIKEN ATOMIC CHARGES
-----------------------
   0 C :    0.000257
   1 O :    0.000014
   2 H :   -0.000001
   3 H :   -0.000043
   4 H :   -0.000537
   5 H :   -0.000023
   6 C :   -0.167009
   7 O :   -0.464290
   8 H :    0.315700
   9 H :    0.108433
  10 H :    0.105213
  11 H :    0.102285
Sum of atomic charges:    0.0000000

LOEWDIN ATOMIC CHARGES
----------------------
   0 C :   -0.001201
   1 O :   -0.000305
   2 H :   -0.000018
   3 H :   -0.000012
   4 H :   -0.001111
   5 H :   -0.000008
   6 C :   -0.402649
   7 O :   -0.060346
   8 H :    0.171931
   9 H :    0.085462
  10 H :    0.105057
  11 H :    0.103200

  Mayer bond orders larger than 0.1
B(  6-C ,  7-O ) :   1.0101 B(  6-C ,  9-H ) :   0.9764 B(  6-C , 10-H ) :   0.9796
B(  6-C , 11-H ) :   0.9813 B(  7-O ,  8-H ) :   0.9015

Dispersion correction           -0.000235542
FINAL SINGLE POINT ENERGY      -115.732468854376

DIPOLE MOMENT
-------------
                                X             Y             Z
Electronic contribution:     -1.15276      -0.99121      -1.05265
Nuclear contribution   :      1.02121       1.62953       1.25396
                        -----------------------------------------
Total Dipole Moment    :     -0.13155       0.63832       0.20131
                        -----------------------------------------
Magnitude (a.u.)       :      0.68212
Magnitude (Debye)      :      1.73380

Rotational constants in cm-1:     4.322081     0.857113     0.822124
Rotational constants in MHz : 129572.727246 25695.587958 24646.671183

                             ****ORCA TERMINATED NORMALLY****
TOTAL RUN TIME: 0 days 0 hours 1 minutes 3 seconds 757 msec
