                         Program Version 4.1.2  - RELEASE  -
|  1> #Run DFT-D3 single point of the dimer
|  2> ! wB97X-D3 def2-TZVP TIGHTSCF CHELPG PMODEL PAL8
|  3>
|  4> %base "21-22_DFT_AB"
|  5>
|  6> %scf
|  7> MaxIter 1000
|  8> end
|  9>
| 10> * xyz 0 1
| 11>   C                      -3.092686            -1.451874            10.711364
| 12>   O                      -2.273163            -2.540808            10.545648
| 13>   H                      -2.684214            -3.268882            11.063944
| 14>   H                      -4.148534            -1.721086            10.677316
| 15>   H                      -2.829864            -0.967831            11.633750
| 16>   H                      -2.944506            -0.806253            9.884226
| 17>   C                      -2.832736            1.034180             7.154251
| 18>   O                      -2.230653            1.418563             8.352736
| 19>   H                      -1.523829            0.825899             8.486310
| 20>   H                      -3.188711            1.935277             6.626943
| 21>   H                      -2.262248            0.407505             6.481360
| 22>   H                      -3.804278            0.576429             7.324600
| 23> *
| 24>
| 25> #Run DFT-D3 single point of the molecule with dimer basis set
| 26> $new_job
| 27> %base "21-22_DFT_A"
| 28> ! wB97X-D3 def2-TZVP TIGHTSCF CHELPG PMODEL
| 29>
| 30> %scf
| 31> MaxIter 1000
| 32> end
| 33>
| 34> * xyz 0 1
| 35>   C                      -3.092686            -1.451874            10.711364
| 36>   O                      -2.273163            -2.540808            10.545648
| 37>   H                      -2.684214            -3.268882            11.063944
| 38>   H                      -4.148534            -1.721086            10.677316
| 39>   H                      -2.829864            -0.967831            11.633750
| 40>   H                      -2.944506            -0.806253            9.884226
| 41>   C                    : -2.832736            1.034180             7.154251
| 42>   O                    : -2.230653            1.418563             8.352736
| 43>   H                    : -1.523829            0.825899             8.486310
| 44>   H                    : -3.188711            1.935277             6.626943
| 45>   H                    : -2.262248            0.407505             6.481360
| 46>   H                    : -3.804278            0.576429             7.324600
| 47> *
| 48>
| 49> #Run DFT-D3 single point of the particle with dimer basis set
| 50> $new_job
| 51> %base "21-22_DFT_B"
| 52> ! wB97X-D3 def2-TZVP TIGHTSCF CHELPG PMODEL
| 53>
| 54> %scf
| 55> MaxIter 1000
| 56> end
| 57>
| 58> * xyz 0 1
| 59>   C                    : -3.092686            -1.451874            10.711364
| 60>   O                    : -2.273163            -2.540808            10.545648
| 61>   H                    : -2.684214            -3.268882            11.063944
| 62>   H                    : -4.148534            -1.721086            10.677316
| 63>   H                    : -2.829864            -0.967831            11.633750
| 64>   H                    : -2.944506            -0.806253            9.884226
| 65>   C                      -2.832736            1.034180             7.154251
| 66>   O                      -2.230653            1.418563             8.352736
| 67>   H                      -1.523829            0.825899             8.486310
| 68>   H                      -3.188711            1.935277             6.626943
| 69>   H                      -2.262248            0.407505             6.481360
| 70>   H                      -3.804278            0.576429             7.324600
| 71> *
| 72>
| 73>                          ****END OF INPUT****
 Total Charge           Charge          ....    0
 Multiplicity           Mult            ....    1
 Number of Electrons    NEL             ....   36
Dispersion correction           -0.001423001
FINAL SINGLE POINT ENERGY      -231.466538725722
Dispersion correction           -0.000205283
FINAL SINGLE POINT ENERGY      -115.732822992931

CARTESIAN COORDINATES (ANGSTROEM)
---------------------------------
  C     -3.092686   -1.451874   10.711364
  O     -2.273163   -2.540808   10.545648
  H     -2.684214   -3.268882   11.063944
  H     -4.148534   -1.721086   10.677316
  H     -2.829864   -0.967831   11.633750
  H     -2.944506   -0.806253    9.884226
  C     -2.832736    1.034180    7.154251
  O     -2.230653    1.418563    8.352736
  H     -1.523829    0.825899    8.486310
  H     -3.188711    1.935277    6.626943
  H     -2.262248    0.407505    6.481360
  H     -3.804278    0.576429    7.324600

 Multiplicity           Mult            ....    1
 Number of Electrons    NEL             ....   18
 Basis Dimension        Dim             ....  172

ORBITAL ENERGIES
----------------

  NO   OCC          E(Eh)            E(eV)
   0   2.0000     -19.231941      -523.3277
   1   2.0000     -10.310084      -280.5517
   2   2.0000      -1.151022       -31.3209
   3   2.0000      -0.799925       -21.7671
   4   2.0000      -0.622533       -16.9400
   5   2.0000      -0.540437       -14.7060
   6   2.0000      -0.527812       -14.3625
   7   2.0000      -0.445370       -12.1191
   8   2.0000      -0.369422       -10.0525
   9   0.0000       0.086234         2.3466
  10   0.0000       0.123788         3.3684
  11   0.0000       0.151678         4.1274
  12   0.0000       0.172853         4.7036
  13   0.0000       0.193751         5.2722

MULLIKEN ATOMIC CHARGES
-----------------------
   0 C :    0.007333
   1 O :    0.000042
   2 H :    0.000008
   3 H :   -0.000514
   4 H :   -0.000088
   5 H :   -0.016938
   6 C :   -0.178023
   7 O :   -0.448407
   8 H :    0.311694
   9 H :    0.111145
  10 H :    0.109442
  11 H :    0.104306
Sum of atomic charges:   -0.0000000

LOEWDIN ATOMIC CHARGES
----------------------
   0 C :   -0.002775
   1 O :   -0.000022
   2 H :   -0.000005
   3 H :   -0.000028
   4 H :   -0.000074
   5 H :   -0.006993
   6 C :   -0.404778
   7 O :   -0.037722
   8 H :    0.154380
   9 H :    0.107756
  10 H :    0.094164
  11 H :    0.096097

  Mayer bond orders larger than 0.1
B(  6-C ,  7-O ) :   1.0156 B(  6-C ,  9-H ) :   0.9800 B(  6-C , 10-H ) :   0.9770
B(  6-C , 11-H ) :   0.9802 B(  7-O ,  8-H ) :   0.9061

Dispersion correction           -0.000244901
FINAL SINGLE POINT ENERGY      -115.731918101529

DIPOLE MOMENT
-------------
                                X             Y             Z
Electronic contribution:      0.90029       0.52106       1.60904
Nuclear contribution   :     -0.67136      -1.03839      -1.98911
                        -----------------------------------------
Total Dipole Moment    :      0.22893      -0.51733      -0.38007
                        -----------------------------------------
Magnitude (a.u.)       :      0.68153
Magnitude (Debye)      :      1.73232

Rotational constants in cm-1:     4.455500     0.852305     0.810061
Rotational constants in MHz : 133572.543868 25551.470729 24285.032019

                             ****ORCA TERMINATED NORMALLY****
TOTAL RUN TIME: 0 days 0 hours 1 minutes 0 seconds 286 msec
