                         Program Version 4.1.2  - RELEASE  -
|  1> #Run DFT-D3 single point of the dimer
|  2> ! wB97X-D3 def2-TZVP TIGHTSCF CHELPG PMODEL PAL8
|  3>
|  4> %base "15-208_DFT_AB"
|  5>
|  6> %scf
|  7> MaxIter 1000
|  8> end
|  9>
| 10> * xyz 0 1
| 11>   C                      5.561840             9.425816             -0.276154
| 12>   O                      6.689713             8.819843             -0.791196
| 13>   H                      6.817594             8.027454             -0.302918
| 14>   H                      5.761854             9.879597             0.725095
| 15>   H                      5.304196             10.222995            -1.050051
| 16>   H                      4.714096             8.755683             -0.068706
| 17>   C                      8.601425             6.920076             1.637831
| 18>   O                      7.416930             6.742712             0.853105
| 19>   H                      7.440295             5.891707             0.379606
| 20>   H                      9.457461             6.865217             0.985946
| 21>   H                      8.621270             7.835848             2.165665
| 22>   H                      8.698329             6.067218             2.366144
| 23> *
| 24>
| 25> #Run DFT-D3 single point of the molecule with dimer basis set
| 26> $new_job
| 27> %base "15-208_DFT_A"
| 28> ! wB97X-D3 def2-TZVP TIGHTSCF CHELPG PMODEL
| 29>
| 30> %scf
| 31> MaxIter 1000
| 32> end
| 33>
| 34> * xyz 0 1
| 35>   C                      5.561840             9.425816             -0.276154
| 36>   O                      6.689713             8.819843             -0.791196
| 37>   H                      6.817594             8.027454             -0.302918
| 38>   H                      5.761854             9.879597             0.725095
| 39>   H                      5.304196             10.222995            -1.050051
| 40>   H                      4.714096             8.755683             -0.068706
| 41>   C                    : 8.601425             6.920076             1.637831
| 42>   O                    : 7.416930             6.742712             0.853105
| 43>   H                    : 7.440295             5.891707             0.379606
| 44>   H                    : 9.457461             6.865217             0.985946
| 45>   H                    : 8.621270             7.835848             2.165665
| 46>   H                    : 8.698329             6.067218             2.366144
| 47> *
| 48>
| 49> #Run DFT-D3 single point of the particle with dimer basis set
| 50> $new_job
| 51> %base "15-208_DFT_B"
| 52> ! wB97X-D3 def2-TZVP TIGHTSCF CHELPG PMODEL
| 53>
| 54> %scf
| 55> MaxIter 1000
| 56> end
| 57>
| 58> * xyz 0 1
| 59>   C                    : 5.561840             9.425816             -0.276154
| 60>   O                    : 6.689713             8.819843             -0.791196
| 61>   H                    : 6.817594             8.027454             -0.302918
| 62>   H                    : 5.761854             9.879597             0.725095
| 63>   H                    : 5.304196             10.222995            -1.050051
| 64>   H                    : 4.714096             8.755683             -0.068706
| 65>   C                      8.601425             6.920076             1.637831
| 66>   O                      7.416930             6.742712             0.853105
| 67>   H                      7.440295             5.891707             0.379606
| 68>   H                      9.457461             6.865217             0.985946
| 69>   H                      8.621270             7.835848             2.165665
| 70>   H                      8.698329             6.067218             2.366144
| 71> *
| 72>
| 73>                          ****END OF INPUT****
 Total Charge           Charge          ....    0
 Multiplicity           Mult            ....    1
 Number of Electrons    NEL             ....   36
Dispersion correction           -0.001747375
FINAL SINGLE POINT ENERGY      -231.475216625388
Dispersion correction           -0.000229524
FINAL SINGLE POINT ENERGY      -115.732833220345

CARTESIAN COORDINATES (ANGSTROEM)
---------------------------------
  C      5.561840    9.425816   -0.276154
  O      6.689713    8.819843   -0.791196
  H      6.817594    8.027454   -0.302918
  H      5.761854    9.879597    0.725095
  H      5.304196   10.222995   -1.050051
  H      4.714096    8.755683   -0.068706
  C      8.601425    6.920076    1.637831
  O      7.416930    6.742712    0.853105
  H      7.440295    5.891707    0.379606
  H      9.457461    6.865217    0.985946
  H      8.621270    7.835848    2.165665
  H      8.698329    6.067218    2.366144

 Multiplicity           Mult            ....    1
 Number of Electrons    NEL             ....   18
 Basis Dimension        Dim             ....  172

ORBITAL ENERGIES
----------------

  NO   OCC          E(Eh)            E(eV)
   0   2.0000     -19.229233      -523.2540
   1   2.0000     -10.313494      -280.6444
   2   2.0000      -1.125983       -30.6395
   3   2.0000      -0.798383       -21.7251
   4   2.0000      -0.605093       -16.4654
   5   2.0000      -0.538107       -14.6426
   6   2.0000      -0.535080       -14.5603
   7   2.0000      -0.431919       -11.7531
   8   2.0000      -0.370793       -10.0898
   9   0.0000       0.099301         2.7021
  10   0.0000       0.123895         3.3714
  11   0.0000       0.152164         4.1406
  12   0.0000       0.193027         5.2525
  13   0.0000       0.198305         5.3961

MULLIKEN ATOMIC CHARGES
-----------------------
   0 C :    0.004382
   1 O :    0.000774
   2 H :   -0.016720
   3 H :   -0.001193
   4 H :   -0.000114
   5 H :   -0.001503
   6 C :   -0.152131
   7 O :   -0.483941
   8 H :    0.317562
   9 H :    0.104303
  10 H :    0.130534
  11 H :    0.098046
Sum of atomic charges:    0.0000000

LOEWDIN ATOMIC CHARGES
----------------------
   0 C :   -0.004178
   1 O :   -0.009011
   2 H :   -0.057268
   3 H :   -0.000250
   4 H :   -0.000067
   5 H :   -0.000532
   6 C :   -0.361007
   7 O :   -0.040900
   8 H :    0.176448
   9 H :    0.092634
  10 H :    0.101247
  11 H :    0.102885

  Mayer bond orders larger than 0.1
B(  6-C ,  7-O ) :   0.9740 B(  6-C ,  9-H ) :   0.9823 B(  6-C , 10-H ) :   0.9730
B(  6-C , 11-H ) :   0.9736 B(  7-O ,  8-H ) :   0.8924

Dispersion correction           -0.000240935
FINAL SINGLE POINT ENERGY      -115.734103213633

DIPOLE MOMENT
-------------
                                X             Y             Z
Electronic contribution:     -1.53518       0.04957      -0.89744
Nuclear contribution   :      2.05633      -0.50528       0.92857
                        -----------------------------------------
Total Dipole Moment    :      0.52115      -0.45571       0.03113
                        -----------------------------------------
Magnitude (a.u.)       :      0.69299
Magnitude (Debye)      :      1.76145

Rotational constants in cm-1:     4.329891     0.813484     0.784846
Rotational constants in MHz : 129806.855311 24387.637739 23529.084517

                             ****ORCA TERMINATED NORMALLY****
TOTAL RUN TIME: 0 days 0 hours 1 minutes 6 seconds 494 msec
