                         Program Version 4.1.2  - RELEASE  -
|  1> #Run DFT-D3 single point of the dimer
|  2> ! wB97X-D3 def2-TZVP TIGHTSCF  CHELPG PAL8
|  3>
|  4> %base "96_charges"
|  5>
|  6> %scf
|  7> MaxIter 1000
|  8> end
|  9> %output
| 10>   Print[ P_Mayer ] 1
| 11>   Print[ P_NatPop ] 1
| 12>   Print[ P_Hirshfeld ] 1
| 13>   Print[ P_Mulliken ] 1
| 14>   Print [ P_Loewdin ] 1
| 15> end
| 16>
| 17> * xyz 0 1
| 18>   C                      -7.308510            7.454032             -4.615022
| 19>   O                      -8.033384            7.339524             -5.821730
| 20>   H                      -7.957203            6.461520             -6.219535
| 21>   H                      -7.846512            6.916053             -3.835317
| 22>   H                      -6.307834            6.995753             -4.789746
| 23>   H                      -7.130098            8.532339             -4.357535
| 24> *
| 25>
| 26>                          ****END OF INPUT****

CARTESIAN COORDINATES (ANGSTROEM)
---------------------------------
  C     -7.308510    7.454032   -4.615022
  O     -8.033384    7.339524   -5.821730
  H     -7.957203    6.461520   -6.219535
  H     -7.846512    6.916053   -3.835317
  H     -6.307834    6.995753   -4.789746
  H     -7.130098    8.532339   -4.357535

 Total Charge           Charge          ....    0
 Multiplicity           Mult            ....    1
 Number of Electrons    NEL             ....   18
 Basis Dimension        Dim             ....   86

ORBITAL ENERGIES
----------------

  NO   OCC          E(Eh)            E(eV)
   0   2.0000     -19.224737      -523.1317
   1   2.0000     -10.317904      -280.7644
   2   2.0000      -1.130835       -30.7716
   3   2.0000      -0.791200       -21.5296
   4   2.0000      -0.605959       -16.4890
   5   2.0000      -0.546284       -14.8652
   6   2.0000      -0.526379       -14.3235
   7   2.0000      -0.422038       -11.4842
   8   2.0000      -0.370295       -10.0762
   9   0.0000       0.113771         3.0959
  10   0.0000       0.155135         4.2214
  11   0.0000       0.198406         5.3989
  12   0.0000       0.205693         5.5972
  13   0.0000       0.221880         6.0377

MULLIKEN ATOMIC CHARGES
-----------------------
   0 C :   -0.144564
   1 O :   -0.491472
   2 H :    0.317982
   3 H :    0.102248
   4 H :    0.097357
   5 H :    0.118449
Sum of atomic charges:   -0.0000000

LOEWDIN ATOMIC CHARGES
----------------------
   0 C :   -0.385793
   1 O :   -0.089636
   2 H :    0.170494
   3 H :    0.093078
   4 H :    0.098025
   5 H :    0.113832

  Mayer bond orders larger than 0.1
B(  0-C ,  1-O ) :   0.9894 B(  0-C ,  3-H ) :   0.9760 B(  0-C ,  4-H ) :   0.9849
B(  0-C ,  5-H ) :   0.9681 B(  1-O ,  2-H ) :   0.8933

Dispersion correction           -0.000237606
FINAL SINGLE POINT ENERGY      -115.733734592763

DIPOLE MOMENT
-------------
                                X             Y             Z
Electronic contribution:     -0.99208       0.01374      -1.41783
Nuclear contribution   :      1.34665      -0.53255       1.64394
                        -----------------------------------------
Total Dipole Moment    :      0.35457      -0.51881       0.22611
                        -----------------------------------------
Magnitude (a.u.)       :      0.66784
Magnitude (Debye)      :      1.69753

Rotational constants in cm-1:     4.167357     0.830744     0.803855
Rotational constants in MHz : 124934.229911 24905.092756 24098.963866

                             ****ORCA TERMINATED NORMALLY****
TOTAL RUN TIME: 0 days 0 hours 0 minutes 40 seconds 533 msec
