                         Program Version 4.1.2  - RELEASE  -
|  1> #Run DFT-D3 single point of the dimer
|  2> ! wB97X-D3 def2-TZVP TIGHTSCF CHELPG PMODEL PAL8
|  3>
|  4> %base "12-147_DFT_AB"
|  5>
|  6> %scf
|  7> MaxIter 1000
|  8> end
|  9>
| 10> * xyz 0 1
| 11>   C                      6.459684             2.625476             -5.733349
| 12>   O                      5.669296             1.772671             -6.552629
| 13>   H                      4.759688             1.963351             -6.356221
| 14>   H                      6.406761             2.293092             -4.689490
| 15>   H                      7.541756             2.639299             -5.944496
| 16>   H                      6.294017             3.691201             -5.920072
| 17>   C                      2.081507             2.833800             -5.791431
| 18>   O                      3.349953             3.010321             -5.209117
| 19>   H                      3.428262             3.942163             -5.033029
| 20>   H                      1.897315             3.364822             -6.734705
| 21>   H                      1.948587             1.815339             -5.918795
| 22>   H                      1.333457             3.113603             -5.042429
| 23> *
| 24>
| 25> #Run DFT-D3 single point of the molecule with dimer basis set
| 26> $new_job
| 27> %base "12-147_DFT_A"
| 28> ! wB97X-D3 def2-TZVP TIGHTSCF CHELPG PMODEL
| 29>
| 30> %scf
| 31> MaxIter 1000
| 32> end
| 33>
| 34> * xyz 0 1
| 35>   C                      6.459684             2.625476             -5.733349
| 36>   O                      5.669296             1.772671             -6.552629
| 37>   H                      4.759688             1.963351             -6.356221
| 38>   H                      6.406761             2.293092             -4.689490
| 39>   H                      7.541756             2.639299             -5.944496
| 40>   H                      6.294017             3.691201             -5.920072
| 41>   C                    : 2.081507             2.833800             -5.791431
| 42>   O                    : 3.349953             3.010321             -5.209117
| 43>   H                    : 3.428262             3.942163             -5.033029
| 44>   H                    : 1.897315             3.364822             -6.734705
| 45>   H                    : 1.948587             1.815339             -5.918795
| 46>   H                    : 1.333457             3.113603             -5.042429
| 47> *
| 48>
| 49> #Run DFT-D3 single point of the particle with dimer basis set
| 50> $new_job
| 51> %base "12-147_DFT_B"
| 52> ! wB97X-D3 def2-TZVP TIGHTSCF CHELPG PMODEL
| 53>
| 54> %scf
| 55> MaxIter 1000
| 56> end
| 57>
| 58> * xyz 0 1
| 59>   C                    : 6.459684             2.625476             -5.733349
| 60>   O                    : 5.669296             1.772671             -6.552629
| 61>   H                    : 4.759688             1.963351             -6.356221
| 62>   H                    : 6.406761             2.293092             -4.689490
| 63>   H                    : 7.541756             2.639299             -5.944496
| 64>   H                    : 6.294017             3.691201             -5.920072
| 65>   C                      2.081507             2.833800             -5.791431
| 66>   O                      3.349953             3.010321             -5.209117
| 67>   H                      3.428262             3.942163             -5.033029
| 68>   H                      1.897315             3.364822             -6.734705
| 69>   H                      1.948587             1.815339             -5.918795
| 70>   H                      1.333457             3.113603             -5.042429
| 71> *
| 72>
| 73>                          ****END OF INPUT****
 Total Charge           Charge          ....    0
 Multiplicity           Mult            ....    1
 Number of Electrons    NEL             ....   36
Dispersion correction           -0.001945793
FINAL SINGLE POINT ENERGY      -231.471210608534
Dispersion correction           -0.000256012
FINAL SINGLE POINT ENERGY      -115.730399873412

CARTESIAN COORDINATES (ANGSTROEM)
---------------------------------
  C      6.459684    2.625476   -5.733349
  O      5.669296    1.772671   -6.552629
  H      4.759688    1.963351   -6.356221
  H      6.406761    2.293092   -4.689490
  H      7.541756    2.639299   -5.944496
  H      6.294017    3.691201   -5.920072
  C      2.081507    2.833800   -5.791431
  O      3.349953    3.010321   -5.209117
  H      3.428262    3.942163   -5.033029
  H      1.897315    3.364822   -6.734705
  H      1.948587    1.815339   -5.918795
  H      1.333457    3.113603   -5.042429

 Multiplicity           Mult            ....    1
 Number of Electrons    NEL             ....   18
 Basis Dimension        Dim             ....  172

ORBITAL ENERGIES
----------------

  NO   OCC          E(Eh)            E(eV)
   0   2.0000     -19.230159      -523.2792
   1   2.0000     -10.305705      -280.4325
   2   2.0000      -1.141852       -31.0714
   3   2.0000      -0.800329       -21.7781
   4   2.0000      -0.612190       -16.6585
   5   2.0000      -0.545520       -14.8444
   6   2.0000      -0.531961       -14.4754
   7   2.0000      -0.438667       -11.9367
   8   2.0000      -0.374294       -10.1851
   9   0.0000       0.097929         2.6648
  10   0.0000       0.129686         3.5289
  11   0.0000       0.155531         4.2322
  12   0.0000       0.184534         5.0214
  13   0.0000       0.200769         5.4632

MULLIKEN ATOMIC CHARGES
-----------------------
   0 C :    0.004998
   1 O :   -0.000526
   2 H :   -0.005162
   3 H :   -0.002381
   4 H :   -0.000346
   5 H :   -0.005101
   6 C :   -0.161847
   7 O :   -0.468512
   8 H :    0.311649
   9 H :    0.099523
  10 H :    0.125172
  11 H :    0.102534
Sum of atomic charges:   -0.0000000

LOEWDIN ATOMIC CHARGES
----------------------
   0 C :   -0.012473
   1 O :   -0.004370
   2 H :   -0.026846
   3 H :   -0.001358
   4 H :   -0.000151
   5 H :   -0.002127
   6 C :   -0.381602
   7 O :   -0.029048
   8 H :    0.165187
   9 H :    0.096209
  10 H :    0.097230
  11 H :    0.099348

  Mayer bond orders larger than 0.1
B(  6-C ,  7-O ) :   0.9891 B(  6-C ,  9-H ) :   0.9686 B(  6-C , 10-H ) :   0.9798
B(  6-C , 11-H ) :   0.9785 B(  7-O ,  8-H ) :   0.9016

Dispersion correction           -0.000223872
FINAL SINGLE POINT ENERGY      -115.734038933474

DIPOLE MOMENT
-------------
                                X             Y             Z
Electronic contribution:      1.67079       0.08150       0.62388
Nuclear contribution   :     -2.13658       0.40883      -0.72882
                        -----------------------------------------
Total Dipole Moment    :     -0.46579       0.49033      -0.10493
                        -----------------------------------------
Magnitude (a.u.)       :      0.68440
Magnitude (Debye)      :      1.73960

Rotational constants in cm-1:     4.390530     0.843781     0.819510
Rotational constants in MHz : 131624.781422 25295.908493 24568.301089

                             ****ORCA TERMINATED NORMALLY****
TOTAL RUN TIME: 0 days 0 hours 1 minutes 15 seconds 238 msec
