                         Program Version 4.1.2  - RELEASE  -
|  1> #Run DFT-D3 single point of the dimer
|  2> ! wB97X-D3 def2-TZVP TIGHTSCF CHELPG PMODEL PAL8
|  3>
|  4> %base "6-200_DFT_AB"
|  5>
|  6> %scf
|  7> MaxIter 1000
|  8> end
|  9>
| 10> * xyz 0 1
| 11>   C                      4.223520             -10.032611           4.805641
| 12>   O                      2.979543             -10.721792           4.726138
| 13>   H                      2.877643             -10.978138           3.793741
| 14>   H                      4.545430             -9.361094            3.979504
| 15>   H                      4.223243             -9.353971            5.656804
| 16>   H                      5.004691             -10.707598           5.085326
| 17>   C                      1.353720             -9.965171            8.187853
| 18>   O                      1.179884             -9.789870            6.808501
| 19>   H                      1.895537             -10.289178           6.352749
| 20>   H                      0.519713             -10.394416           8.655236
| 21>   H                      2.191824             -10.578000           8.358750
| 22>   H                      1.371204             -8.999001            8.666845
| 23> *
| 24>
| 25> #Run DFT-D3 single point of the molecule with dimer basis set
| 26> $new_job
| 27> %base "6-200_DFT_A"
| 28> ! wB97X-D3 def2-TZVP TIGHTSCF CHELPG PMODEL
| 29>
| 30> %scf
| 31> MaxIter 1000
| 32> end
| 33>
| 34> * xyz 0 1
| 35>   C                      4.223520             -10.032611           4.805641
| 36>   O                      2.979543             -10.721792           4.726138
| 37>   H                      2.877643             -10.978138           3.793741
| 38>   H                      4.545430             -9.361094            3.979504
| 39>   H                      4.223243             -9.353971            5.656804
| 40>   H                      5.004691             -10.707598           5.085326
| 41>   C                    : 1.353720             -9.965171            8.187853
| 42>   O                    : 1.179884             -9.789870            6.808501
| 43>   H                    : 1.895537             -10.289178           6.352749
| 44>   H                    : 0.519713             -10.394416           8.655236
| 45>   H                    : 2.191824             -10.578000           8.358750
| 46>   H                    : 1.371204             -8.999001            8.666845
| 47> *
| 48>
| 49> #Run DFT-D3 single point of the particle with dimer basis set
| 50> $new_job
| 51> %base "6-200_DFT_B"
| 52> ! wB97X-D3 def2-TZVP TIGHTSCF CHELPG PMODEL
| 53>
| 54> %scf
| 55> MaxIter 1000
| 56> end
| 57>
| 58> * xyz 0 1
| 59>   C                    : 4.223520             -10.032611           4.805641
| 60>   O                    : 2.979543             -10.721792           4.726138
| 61>   H                    : 2.877643             -10.978138           3.793741
| 62>   H                    : 4.545430             -9.361094            3.979504
| 63>   H                    : 4.223243             -9.353971            5.656804
| 64>   H                    : 5.004691             -10.707598           5.085326
| 65>   C                      1.353720             -9.965171            8.187853
| 66>   O                      1.179884             -9.789870            6.808501
| 67>   H                      1.895537             -10.289178           6.352749
| 68>   H                      0.519713             -10.394416           8.655236
| 69>   H                      2.191824             -10.578000           8.358750
| 70>   H                      1.371204             -8.999001            8.666845
| 71> *
| 72>
| 73>                          ****END OF INPUT****
 Total Charge           Charge          ....    0
 Multiplicity           Mult            ....    1
 Number of Electrons    NEL             ....   36
Dispersion correction           -0.001676714
FINAL SINGLE POINT ENERGY      -231.468024561571
Dispersion correction           -0.000267633
FINAL SINGLE POINT ENERGY      -115.731766475475

CARTESIAN COORDINATES (ANGSTROEM)
---------------------------------
  C      4.223520  -10.032611    4.805641
  O      2.979543  -10.721792    4.726138
  H      2.877643  -10.978138    3.793741
  H      4.545430   -9.361094    3.979504
  H      4.223243   -9.353971    5.656804
  H      5.004691  -10.707598    5.085326
  C      1.353720   -9.965171    8.187853
  O      1.179884   -9.789870    6.808501
  H      1.895537  -10.289178    6.352749
  H      0.519713  -10.394416    8.655236
  H      2.191824  -10.578000    8.358750
  H      1.371204   -8.999001    8.666845

 Multiplicity           Mult            ....    1
 Number of Electrons    NEL             ....   18
 Basis Dimension        Dim             ....  172

ORBITAL ENERGIES
----------------

  NO   OCC          E(Eh)            E(eV)
   0   2.0000     -19.229627      -523.2648
   1   2.0000     -10.299745      -280.2703
   2   2.0000      -1.134916       -30.8826
   3   2.0000      -0.800714       -21.7885
   4   2.0000      -0.614429       -16.7195
   5   2.0000      -0.544746       -14.8233
   6   2.0000      -0.534411       -14.5421
   7   2.0000      -0.436819       -11.8864
   8   2.0000      -0.367763       -10.0074
   9   0.0000       0.070589         1.9208
  10   0.0000       0.132853         3.6151
  11   0.0000       0.149597         4.0707
  12   0.0000       0.170958         4.6520
  13   0.0000       0.190827         5.1927

MULLIKEN ATOMIC CHARGES
-----------------------
   0 C :   -0.001838
   1 O :    0.000544
   2 H :   -0.000051
   3 H :   -0.000127
   4 H :   -0.002783
   5 H :    0.000156
   6 C :   -0.156168
   7 O :   -0.466594
   8 H :    0.310042
   9 H :    0.106896
  10 H :    0.103779
  11 H :    0.106145
Sum of atomic charges:    0.0000000

LOEWDIN ATOMIC CHARGES
----------------------
   0 C :   -0.005792
   1 O :   -0.016333
   2 H :   -0.000676
   3 H :   -0.000083
   4 H :   -0.002255
   5 H :   -0.000075
   6 C :   -0.382572
   7 O :   -0.068351
   8 H :    0.194169
   9 H :    0.090461
  10 H :    0.090911
  11 H :    0.100597

  Mayer bond orders larger than 0.1
B(  6-C ,  7-O ) :   1.0091 B(  6-C ,  9-H ) :   0.9787 B(  6-C , 10-H ) :   0.9910
B(  6-C , 11-H ) :   0.9807 B(  7-O ,  8-H ) :   0.9036

Dispersion correction           -0.000227778
FINAL SINGLE POINT ENERGY      -115.729629359031

DIPOLE MOMENT
-------------
                                X             Y             Z
Electronic contribution:     -0.27851       0.25690      -1.71305
Nuclear contribution   :      0.78624      -0.65497       1.98601
                        -----------------------------------------
Total Dipole Moment    :      0.50773      -0.39807       0.27295
                        -----------------------------------------
Magnitude (a.u.)       :      0.70053
Magnitude (Debye)      :      1.78062

Rotational constants in cm-1:     4.474487     0.859005     0.813129
Rotational constants in MHz : 134141.731722 25752.328545 24376.996510

                             ****ORCA TERMINATED NORMALLY****
TOTAL RUN TIME: 0 days 0 hours 1 minutes 6 seconds 678 msec
