                         Program Version 4.1.2  - RELEASE  -
|  1> #Run DFT-D3 single point of the dimer
|  2> ! wB97X-D3 def2-TZVP TIGHTSCF CHELPG PMODEL PAL8
|  3>
|  4> %base "21-89_DFT_AB"
|  5>
|  6> %scf
|  7> MaxIter 1000
|  8> end
|  9>
| 10> * xyz 0 1
| 11>   C                      -0.279772            8.880130             -5.984317
| 12>   O                      0.783245             8.630714             -6.886738
| 13>   H                      0.274807             8.473379             -7.649880
| 14>   H                      -0.903684            9.718744             -6.263217
| 15>   H                      -0.970593            8.024726             -5.917269
| 16>   H                      0.085905             9.093486             -4.943612
| 17>   C                      0.532629             8.603630             -10.535834
| 18>   O                      -0.494195            8.133551             -9.745553
| 19>   H                      -0.850439            7.321259             -10.181752
| 20>   H                      1.165827             9.326268             -9.997597
| 21>   H                      1.089022             7.697224             -10.843455
| 22>   H                      0.160255             9.153806             -11.436289
| 23> *
| 24>
| 25> #Run DFT-D3 single point of the molecule with dimer basis set
| 26> $new_job
| 27> %base "21-89_DFT_A"
| 28> ! wB97X-D3 def2-TZVP TIGHTSCF CHELPG PMODEL
| 29>
| 30> %scf
| 31> MaxIter 1000
| 32> end
| 33>
| 34> * xyz 0 1
| 35>   C                      -0.279772            8.880130             -5.984317
| 36>   O                      0.783245             8.630714             -6.886738
| 37>   H                      0.274807             8.473379             -7.649880
| 38>   H                      -0.903684            9.718744             -6.263217
| 39>   H                      -0.970593            8.024726             -5.917269
| 40>   H                      0.085905             9.093486             -4.943612
| 41>   C                    : 0.532629             8.603630             -10.535834
| 42>   O                    : -0.494195            8.133551             -9.745553
| 43>   H                    : -0.850439            7.321259             -10.181752
| 44>   H                    : 1.165827             9.326268             -9.997597
| 45>   H                    : 1.089022             7.697224             -10.843455
| 46>   H                    : 0.160255             9.153806             -11.436289
| 47> *
| 48>
| 49> #Run DFT-D3 single point of the particle with dimer basis set
| 50> $new_job
| 51> %base "21-89_DFT_B"
| 52> ! wB97X-D3 def2-TZVP TIGHTSCF CHELPG PMODEL
| 53>
| 54> %scf
| 55> MaxIter 1000
| 56> end
| 57>
| 58> * xyz 0 1
| 59>   C                    : -0.279772            8.880130             -5.984317
| 60>   O                    : 0.783245             8.630714             -6.886738
| 61>   H                    : 0.274807             8.473379             -7.649880
| 62>   H                    : -0.903684            9.718744             -6.263217
| 63>   H                    : -0.970593            8.024726             -5.917269
| 64>   H                    : 0.085905             9.093486             -4.943612
| 65>   C                      0.532629             8.603630             -10.535834
| 66>   O                      -0.494195            8.133551             -9.745553
| 67>   H                      -0.850439            7.321259             -10.181752
| 68>   H                      1.165827             9.326268             -9.997597
| 69>   H                      1.089022             7.697224             -10.843455
| 70>   H                      0.160255             9.153806             -11.436289
| 71> *
| 72>
| 73>                          ****END OF INPUT****
 Total Charge           Charge          ....    0
 Multiplicity           Mult            ....    1
 Number of Electrons    NEL             ....   36
Dispersion correction           -0.001601794
FINAL SINGLE POINT ENERGY      -231.471674730960
Dispersion correction           -0.000223180
FINAL SINGLE POINT ENERGY      -115.732111102174

CARTESIAN COORDINATES (ANGSTROEM)
---------------------------------
  C     -0.279772    8.880130   -5.984317
  O      0.783245    8.630714   -6.886738
  H      0.274807    8.473379   -7.649880
  H     -0.903684    9.718744   -6.263217
  H     -0.970593    8.024726   -5.917269
  H      0.085905    9.093486   -4.943612
  C      0.532629    8.603630  -10.535834
  O     -0.494195    8.133551   -9.745553
  H     -0.850439    7.321259  -10.181752
  H      1.165827    9.326268   -9.997597
  H      1.089022    7.697224  -10.843455
  H      0.160255    9.153806  -11.436289

 Multiplicity           Mult            ....    1
 Number of Electrons    NEL             ....   18
 Basis Dimension        Dim             ....  172

ORBITAL ENERGIES
----------------

  NO   OCC          E(Eh)            E(eV)
   0   2.0000     -19.231614      -523.3188
   1   2.0000     -10.315237      -280.6919
   2   2.0000      -1.144151       -31.1339
   3   2.0000      -0.786251       -21.3950
   4   2.0000      -0.611910       -16.6509
   5   2.0000      -0.548001       -14.9119
   6   2.0000      -0.532769       -14.4974
   7   2.0000      -0.428130       -11.6500
   8   2.0000      -0.368080       -10.0160
   9   0.0000       0.096310         2.6207
  10   0.0000       0.116611         3.1732
  11   0.0000       0.153566         4.1788
  12   0.0000       0.185699         5.0531
  13   0.0000       0.201673         5.4878

MULLIKEN ATOMIC CHARGES
-----------------------
   0 C :    0.000370
   1 O :   -0.001913
   2 H :   -0.001689
   3 H :   -0.000579
   4 H :   -0.000633
   5 H :   -0.000094
   6 C :   -0.156792
   7 O :   -0.464882
   8 H :    0.317802
   9 H :    0.118209
  10 H :    0.097333
  11 H :    0.092869
Sum of atomic charges:    0.0000000

LOEWDIN ATOMIC CHARGES
----------------------
   0 C :   -0.001677
   1 O :   -0.001903
   2 H :   -0.019319
   3 H :   -0.000163
   4 H :   -0.000186
   5 H :   -0.000019
   6 C :   -0.417601
   7 O :   -0.050021
   8 H :    0.189481
   9 H :    0.108033
  10 H :    0.097926
  11 H :    0.095449

  Mayer bond orders larger than 0.1
B(  6-C ,  7-O ) :   0.9929 B(  6-C ,  9-H ) :   0.9740 B(  6-C , 10-H ) :   0.9922
B(  6-C , 11-H ) :   0.9664 B(  7-O ,  8-H ) :   0.8912

Dispersion correction           -0.000220759
FINAL SINGLE POINT ENERGY      -115.732167109246

DIPOLE MOMENT
-------------
                                X             Y             Z
Electronic contribution:     -1.29290      -0.46212       1.17851
Nuclear contribution   :      1.45263       0.12657      -1.73377
                        -----------------------------------------
Total Dipole Moment    :      0.15973      -0.33556      -0.55526
                        -----------------------------------------
Magnitude (a.u.)       :      0.66815
Magnitude (Debye)      :      1.69831

Rotational constants in cm-1:     4.119768     0.870261     0.833452
Rotational constants in MHz : 123507.546069 26089.766585 24986.265079

                             ****ORCA TERMINATED NORMALLY****
TOTAL RUN TIME: 0 days 0 hours 1 minutes 5 seconds 615 msec
