                         Program Version 4.1.2  - RELEASE  -
|  1> #Run DFT-D3 single point of the dimer
|  2> ! wB97X-D3 def2-TZVP TIGHTSCF CHELPG PMODEL PAL8
|  3>
|  4> %base "22-3_DFT_AB"
|  5>
|  6> %scf
|  7> MaxIter 1000
|  8> end
|  9>
| 10> * xyz 0 1
| 11>   C                      -3.366488            1.354718             8.299496
| 12>   O                      -2.747762            2.580068             8.513952
| 13>   H                      -2.097212            2.607204             7.804503
| 14>   H                      -3.091532            0.606645             9.087924
| 15>   H                      -4.464560            1.385830             8.357553
| 16>   H                      -3.098089            0.935276             7.304372
| 17>   C                      -6.372342            -1.014732            6.938762
| 18>   O                      -5.634204            -1.266209            8.100461
| 19>   H                      -5.812488            -2.188515            8.332082
| 20>   H                      -7.397570            -0.775769            7.160779
| 21>   H                      -5.957204            -0.257292            6.274746
| 22>   H                      -6.374269            -1.879775            6.204587
| 23> *
| 24>
| 25> #Run DFT-D3 single point of the molecule with dimer basis set
| 26> $new_job
| 27> %base "22-3_DFT_A"
| 28> ! wB97X-D3 def2-TZVP TIGHTSCF CHELPG PMODEL
| 29>
| 30> %scf
| 31> MaxIter 1000
| 32> end
| 33>
| 34> * xyz 0 1
| 35>   C                      -3.366488            1.354718             8.299496
| 36>   O                      -2.747762            2.580068             8.513952
| 37>   H                      -2.097212            2.607204             7.804503
| 38>   H                      -3.091532            0.606645             9.087924
| 39>   H                      -4.464560            1.385830             8.357553
| 40>   H                      -3.098089            0.935276             7.304372
| 41>   C                    : -6.372342            -1.014732            6.938762
| 42>   O                    : -5.634204            -1.266209            8.100461
| 43>   H                    : -5.812488            -2.188515            8.332082
| 44>   H                    : -7.397570            -0.775769            7.160779
| 45>   H                    : -5.957204            -0.257292            6.274746
| 46>   H                    : -6.374269            -1.879775            6.204587
| 47> *
| 48>
| 49> #Run DFT-D3 single point of the particle with dimer basis set
| 50> $new_job
| 51> %base "22-3_DFT_B"
| 52> ! wB97X-D3 def2-TZVP TIGHTSCF CHELPG PMODEL
| 53>
| 54> %scf
| 55> MaxIter 1000
| 56> end
| 57>
| 58> * xyz 0 1
| 59>   C                    : -3.366488            1.354718             8.299496
| 60>   O                    : -2.747762            2.580068             8.513952
| 61>   H                    : -2.097212            2.607204             7.804503
| 62>   H                    : -3.091532            0.606645             9.087924
| 63>   H                    : -4.464560            1.385830             8.357553
| 64>   H                    : -3.098089            0.935276             7.304372
| 65>   C                      -6.372342            -1.014732            6.938762
| 66>   O                      -5.634204            -1.266209            8.100461
| 67>   H                      -5.812488            -2.188515            8.332082
| 68>   H                      -7.397570            -0.775769            7.160779
| 69>   H                      -5.957204            -0.257292            6.274746
| 70>   H                      -6.374269            -1.879775            6.204587
| 71> *
| 72>
| 73>                          ****END OF INPUT****
 Total Charge           Charge          ....    0
 Multiplicity           Mult            ....    1
 Number of Electrons    NEL             ....   36
Dispersion correction           -0.001608611
FINAL SINGLE POINT ENERGY      -231.466674105063
Dispersion correction           -0.000239875
FINAL SINGLE POINT ENERGY      -115.732529454164

CARTESIAN COORDINATES (ANGSTROEM)
---------------------------------
  C     -3.366488    1.354718    8.299496
  O     -2.747762    2.580068    8.513952
  H     -2.097212    2.607204    7.804503
  H     -3.091532    0.606645    9.087924
  H     -4.464560    1.385830    8.357553
  H     -3.098089    0.935276    7.304372
  C     -6.372342   -1.014732    6.938762
  O     -5.634204   -1.266209    8.100461
  H     -5.812488   -2.188515    8.332082
  H     -7.397570   -0.775769    7.160779
  H     -5.957204   -0.257292    6.274746
  H     -6.374269   -1.879775    6.204587

 Multiplicity           Mult            ....    1
 Number of Electrons    NEL             ....   18
 Basis Dimension        Dim             ....  172

ORBITAL ENERGIES
----------------

  NO   OCC          E(Eh)            E(eV)
   0   2.0000     -19.234918      -523.4087
   1   2.0000     -10.314183      -280.6632
   2   2.0000      -1.142582       -31.0912
   3   2.0000      -0.794646       -21.6234
   4   2.0000      -0.612893       -16.6777
   5   2.0000      -0.550216       -14.9721
   6   2.0000      -0.526337       -14.3224
   7   2.0000      -0.427084       -11.6215
   8   2.0000      -0.377165       -10.2632
   9   0.0000       0.096064         2.6140
  10   0.0000       0.119769         3.2591
  11   0.0000       0.150259         4.0888
  12   0.0000       0.179700         4.8899
  13   0.0000       0.197792         5.3822

MULLIKEN ATOMIC CHARGES
-----------------------
   0 C :    0.002520
   1 O :   -0.000099
   2 H :   -0.000009
   3 H :   -0.002535
   4 H :   -0.001966
   5 H :   -0.001490
   6 C :   -0.176275
   7 O :   -0.461447
   8 H :    0.318281
   9 H :    0.105342
  10 H :    0.121066
  11 H :    0.096612
Sum of atomic charges:   -0.0000000

LOEWDIN ATOMIC CHARGES
----------------------
   0 C :   -0.006040
   1 O :   -0.000028
   2 H :   -0.000015
   3 H :   -0.001363
   4 H :   -0.002472
   5 H :   -0.000534
   6 C :   -0.406489
   7 O :   -0.059686
   8 H :    0.178500
   9 H :    0.090469
  10 H :    0.106131
  11 H :    0.101526

  Mayer bond orders larger than 0.1
B(  6-C ,  7-O ) :   1.0010 B(  6-C ,  9-H ) :   0.9754 B(  6-C , 10-H ) :   0.9717
B(  6-C , 11-H ) :   0.9790 B(  7-O ,  8-H ) :   0.8954

Dispersion correction           -0.000244597
FINAL SINGLE POINT ENERGY      -115.732400085409

DIPOLE MOMENT
-------------
                                X             Y             Z
Electronic contribution:      1.03616      -0.10334       1.67763
Nuclear contribution   :     -1.42040      -0.38508      -1.99018
                        -----------------------------------------
Total Dipole Moment    :     -0.38423      -0.48842      -0.31255
                        -----------------------------------------
Magnitude (a.u.)       :      0.69561
Magnitude (Debye)      :      1.76810

Rotational constants in cm-1:     4.360993     0.831575     0.808894
Rotational constants in MHz : 130739.281319 24929.988363 24250.027109

                             ****ORCA TERMINATED NORMALLY****
TOTAL RUN TIME: 0 days 0 hours 1 minutes 0 seconds 183 msec
