                         Program Version 4.1.2  - RELEASE  -
|  1> #Run DFT-D3 single point of the dimer
|  2> ! wB97X-D3 def2-TZVP TIGHTSCF CHELPG PMODEL PAL8
|  3>
|  4> %base "16-168_DFT_AB"
|  5>
|  6> %scf
|  7> MaxIter 1000
|  8> end
|  9>
| 10> * xyz 0 1
| 11>   C                      6.927127             -4.964074            -3.543295
| 12>   O                      7.098830             -4.110192            -4.645305
| 13>   H                      6.671527             -4.533860            -5.377378
| 14>   H                      7.355301             -5.940963            -3.781098
| 15>   H                      7.411281             -4.637179            -2.614870
| 16>   H                      5.821214             -5.071691            -3.295689
| 17>   C                      4.456608             -5.758991            -6.873054
| 18>   O                      5.760010             -5.413687            -6.980068
| 19>   H                      6.153159             -5.988479            -7.622950
| 20>   H                      3.953173             -5.299988            -7.743366
| 21>   H                      4.340412             -6.843411            -6.864687
| 22>   H                      4.166670             -5.363471            -5.862831
| 23> *
| 24>
| 25> #Run DFT-D3 single point of the molecule with dimer basis set
| 26> $new_job
| 27> %base "16-168_DFT_A"
| 28> ! wB97X-D3 def2-TZVP TIGHTSCF CHELPG PMODEL
| 29>
| 30> %scf
| 31> MaxIter 1000
| 32> end
| 33>
| 34> * xyz 0 1
| 35>   C                      6.927127             -4.964074            -3.543295
| 36>   O                      7.098830             -4.110192            -4.645305
| 37>   H                      6.671527             -4.533860            -5.377378
| 38>   H                      7.355301             -5.940963            -3.781098
| 39>   H                      7.411281             -4.637179            -2.614870
| 40>   H                      5.821214             -5.071691            -3.295689
| 41>   C                    : 4.456608             -5.758991            -6.873054
| 42>   O                    : 5.760010             -5.413687            -6.980068
| 43>   H                    : 6.153159             -5.988479            -7.622950
| 44>   H                    : 3.953173             -5.299988            -7.743366
| 45>   H                    : 4.340412             -6.843411            -6.864687
| 46>   H                    : 4.166670             -5.363471            -5.862831
| 47> *
| 48>
| 49> #Run DFT-D3 single point of the particle with dimer basis set
| 50> $new_job
| 51> %base "16-168_DFT_B"
| 52> ! wB97X-D3 def2-TZVP TIGHTSCF CHELPG PMODEL
| 53>
| 54> %scf
| 55> MaxIter 1000
| 56> end
| 57>
| 58> * xyz 0 1
| 59>   C                    : 6.927127             -4.964074            -3.543295
| 60>   O                    : 7.098830             -4.110192            -4.645305
| 61>   H                    : 6.671527             -4.533860            -5.377378
| 62>   H                    : 7.355301             -5.940963            -3.781098
| 63>   H                    : 7.411281             -4.637179            -2.614870
| 64>   H                    : 5.821214             -5.071691            -3.295689
| 65>   C                      4.456608             -5.758991            -6.873054
| 66>   O                      5.760010             -5.413687            -6.980068
| 67>   H                      6.153159             -5.988479            -7.622950
| 68>   H                      3.953173             -5.299988            -7.743366
| 69>   H                      4.340412             -6.843411            -6.864687
| 70>   H                      4.166670             -5.363471            -5.862831
| 71> *
| 72>
| 73>                          ****END OF INPUT****
 Total Charge           Charge          ....    0
 Multiplicity           Mult            ....    1
 Number of Electrons    NEL             ....   36
Dispersion correction           -0.001801427
FINAL SINGLE POINT ENERGY      -231.471626028141
Dispersion correction           -0.000232081
FINAL SINGLE POINT ENERGY      -115.734218821483

CARTESIAN COORDINATES (ANGSTROEM)
---------------------------------
  C      6.927127   -4.964074   -3.543295
  O      7.098830   -4.110192   -4.645305
  H      6.671527   -4.533860   -5.377378
  H      7.355301   -5.940963   -3.781098
  H      7.411281   -4.637179   -2.614870
  H      5.821214   -5.071691   -3.295689
  C      4.456608   -5.758991   -6.873054
  O      5.760010   -5.413687   -6.980068
  H      6.153159   -5.988479   -7.622950
  H      3.953173   -5.299988   -7.743366
  H      4.340412   -6.843411   -6.864687
  H      4.166670   -5.363471   -5.862831

 Multiplicity           Mult            ....    1
 Number of Electrons    NEL             ....   18
 Basis Dimension        Dim             ....  172

ORBITAL ENERGIES
----------------

  NO   OCC          E(Eh)            E(eV)
   0   2.0000     -19.224674      -523.1300
   1   2.0000     -10.311118      -280.5798
   2   2.0000      -1.159598       -31.5543
   3   2.0000      -0.788534       -21.4571
   4   2.0000      -0.622434       -16.9373
   5   2.0000      -0.558723       -15.2036
   6   2.0000      -0.525493       -14.2994
   7   2.0000      -0.428064       -11.6482
   8   2.0000      -0.368147       -10.0178
   9   0.0000       0.095377         2.5954
  10   0.0000       0.123204         3.3526
  11   0.0000       0.160696         4.3728
  12   0.0000       0.184172         5.0116
  13   0.0000       0.199432         5.4268

MULLIKEN ATOMIC CHARGES
-----------------------
   0 C :   -0.000072
   1 O :   -0.000169
   2 H :   -0.006849
   3 H :   -0.001594
   4 H :   -0.000232
   5 H :   -0.000471
   6 C :   -0.139507
   7 O :   -0.455034
   8 H :    0.307933
   9 H :    0.093884
  10 H :    0.092994
  11 H :    0.109118
Sum of atomic charges:   -0.0000000

LOEWDIN ATOMIC CHARGES
----------------------
   0 C :   -0.002663
   1 O :   -0.003469
   2 H :   -0.033186
   3 H :   -0.000616
   4 H :   -0.000051
   5 H :   -0.000419
   6 C :   -0.428022
   7 O :   -0.000260
   8 H :    0.163943
   9 H :    0.097350
  10 H :    0.091361
  11 H :    0.116032

  Mayer bond orders larger than 0.1
B(  6-C ,  7-O ) :   0.9851 B(  6-C ,  9-H ) :   0.9783 B(  6-C , 10-H ) :   0.9782
B(  6-C , 11-H ) :   0.9780 B(  7-O ,  8-H ) :   0.9008

Dispersion correction           -0.000193831
FINAL SINGLE POINT ENERGY      -115.729259268968

DIPOLE MOMENT
-------------
                                X             Y             Z
Electronic contribution:      1.59394       0.50936      -0.07908
Nuclear contribution   :     -1.78758      -1.02100      -0.29339
                        -----------------------------------------
Total Dipole Moment    :     -0.19364      -0.51164      -0.37247
                        -----------------------------------------
Magnitude (a.u.)       :      0.66182
Magnitude (Debye)      :      1.68222

Rotational constants in cm-1:     4.064718     0.912298     0.878912
Rotational constants in MHz : 121857.192578 27350.011544 26349.107388

                             ****ORCA TERMINATED NORMALLY****
TOTAL RUN TIME: 0 days 0 hours 1 minutes 4 seconds 521 msec
