                         Program Version 4.1.2  - RELEASE  -
|  1> #Run DFT-D3 single point of the dimer
|  2> ! wB97X-D3 def2-TZVP TIGHTSCF CHELPG PMODEL PAL8
|  3>
|  4> %base "12-50_DFT_AB"
|  5>
|  6> %scf
|  7> MaxIter 1000
|  8> end
|  9>
| 10> * xyz 0 1
| 11>   C                      -2.565252            4.718114             -0.085181
| 12>   O                      -2.001019            4.805665             -1.430314
| 13>   H                      -1.240345            5.338943             -1.221299
| 14>   H                      -1.779562            4.387065             0.613376
| 15>   H                      -2.893558            5.626545             0.347260
| 16>   H                      -3.394099            4.098800             0.009473
| 17>   C                      -2.764552            7.689700             -2.700682
| 18>   O                      -1.783057            8.128319             -1.781473
| 19>   H                      -2.098016            8.161863             -0.870368
| 20>   H                      -3.585737            8.485283             -2.820275
| 21>   H                      -2.383180            7.442190             -3.645396
| 22>   H                      -3.302192            6.826364             -2.326708
| 23> *
| 24>
| 25> #Run DFT-D3 single point of the molecule with dimer basis set
| 26> $new_job
| 27> %base "12-50_DFT_A"
| 28> ! wB97X-D3 def2-TZVP TIGHTSCF CHELPG PMODEL
| 29>
| 30> %scf
| 31> MaxIter 1000
| 32> end
| 33>
| 34> * xyz 0 1
| 35>   C                      -2.565252            4.718114             -0.085181
| 36>   O                      -2.001019            4.805665             -1.430314
| 37>   H                      -1.240345            5.338943             -1.221299
| 38>   H                      -1.779562            4.387065             0.613376
| 39>   H                      -2.893558            5.626545             0.347260
| 40>   H                      -3.394099            4.098800             0.009473
| 41>   C                    : -2.764552            7.689700             -2.700682
| 42>   O                    : -1.783057            8.128319             -1.781473
| 43>   H                    : -2.098016            8.161863             -0.870368
| 44>   H                    : -3.585737            8.485283             -2.820275
| 45>   H                    : -2.383180            7.442190             -3.645396
| 46>   H                    : -3.302192            6.826364             -2.326708
| 47> *
| 48>
| 49> #Run DFT-D3 single point of the particle with dimer basis set
| 50> $new_job
| 51> %base "12-50_DFT_B"
| 52> ! wB97X-D3 def2-TZVP TIGHTSCF CHELPG PMODEL
| 53>
| 54> %scf
| 55> MaxIter 1000
| 56> end
| 57>
| 58> * xyz 0 1
| 59>   C                    : -2.565252            4.718114             -0.085181
| 60>   O                    : -2.001019            4.805665             -1.430314
| 61>   H                    : -1.240345            5.338943             -1.221299
| 62>   H                    : -1.779562            4.387065             0.613376
| 63>   H                    : -2.893558            5.626545             0.347260
| 64>   H                    : -3.394099            4.098800             0.009473
| 65>   C                      -2.764552            7.689700             -2.700682
| 66>   O                      -1.783057            8.128319             -1.781473
| 67>   H                      -2.098016            8.161863             -0.870368
| 68>   H                      -3.585737            8.485283             -2.820275
| 69>   H                      -2.383180            7.442190             -3.645396
| 70>   H                      -3.302192            6.826364             -2.326708
| 71> *
| 72>
| 73>                          ****END OF INPUT****
 Total Charge           Charge          ....    0
 Multiplicity           Mult            ....    1
 Number of Electrons    NEL             ....   36
Dispersion correction           -0.002249352
FINAL SINGLE POINT ENERGY      -231.462814215235
Dispersion correction           -0.000233859
FINAL SINGLE POINT ENERGY      -115.727524660281

CARTESIAN COORDINATES (ANGSTROEM)
---------------------------------
  C     -2.565252    4.718114   -0.085181
  O     -2.001019    4.805665   -1.430314
  H     -1.240345    5.338943   -1.221299
  H     -1.779562    4.387065    0.613376
  H     -2.893558    5.626545    0.347260
  H     -3.394099    4.098800    0.009473
  C     -2.764552    7.689700   -2.700682
  O     -1.783057    8.128319   -1.781473
  H     -2.098016    8.161863   -0.870368
  H     -3.585737    8.485283   -2.820275
  H     -2.383180    7.442190   -3.645396
  H     -3.302192    6.826364   -2.326708

 Multiplicity           Mult            ....    1
 Number of Electrons    NEL             ....   18
 Basis Dimension        Dim             ....  172

ORBITAL ENERGIES
----------------

  NO   OCC          E(Eh)            E(eV)
   0   2.0000     -19.229967      -523.2740
   1   2.0000     -10.314660      -280.6762
   2   2.0000      -1.132363       -30.8132
   3   2.0000      -0.799655       -21.7597
   4   2.0000      -0.613181       -16.6855
   5   2.0000      -0.540500       -14.7078
   6   2.0000      -0.529588       -14.4108
   7   2.0000      -0.430814       -11.7230
   8   2.0000      -0.369792       -10.0625
   9   0.0000       0.078150         2.1266
  10   0.0000       0.132597         3.6081
  11   0.0000       0.148814         4.0494
  12   0.0000       0.172348         4.6898
  13   0.0000       0.189805         5.1649

MULLIKEN ATOMIC CHARGES
-----------------------
   0 C :   -0.000573
   1 O :    0.002065
   2 H :   -0.003466
   3 H :    0.000170
   4 H :   -0.001661
   5 H :   -0.000226
   6 C :   -0.155367
   7 O :   -0.487072
   8 H :    0.321208
   9 H :    0.096623
  10 H :    0.126048
  11 H :    0.102251
Sum of atomic charges:   -0.0000000

LOEWDIN ATOMIC CHARGES
----------------------
   0 C :   -0.004063
   1 O :   -0.004711
   2 H :   -0.005457
   3 H :   -0.000037
   4 H :   -0.001119
   5 H :   -0.000074
   6 C :   -0.375703
   7 O :   -0.075577
   8 H :    0.171537
   9 H :    0.103196
  10 H :    0.097490
  11 H :    0.094517

  Mayer bond orders larger than 0.1
B(  6-C ,  7-O ) :   0.9878 B(  6-C ,  9-H ) :   0.9791 B(  6-C , 10-H ) :   0.9729
B(  6-C , 11-H ) :   0.9798 B(  7-O ,  8-H ) :   0.8923

Dispersion correction           -0.000254506
FINAL SINGLE POINT ENERGY      -115.732403781759

DIPOLE MOMENT
-------------
                                X             Y             Z
Electronic contribution:      1.49570       0.50803       0.99530
Nuclear contribution   :     -2.08668      -0.69002      -0.78119
                        -----------------------------------------
Total Dipole Moment    :     -0.59098      -0.18200       0.21410
                        -----------------------------------------
Magnitude (a.u.)       :      0.65438
Magnitude (Debye)      :      1.66330

Rotational constants in cm-1:     4.396076     0.819189     0.792856
Rotational constants in MHz : 131791.037232 24558.677203 23769.226004

                             ****ORCA TERMINATED NORMALLY****
TOTAL RUN TIME: 0 days 0 hours 1 minutes 5 seconds 227 msec
