                         Program Version 4.1.2  - RELEASE  -
|  1> #Run DFT-D3 single point of the dimer
|  2> ! wB97X-D3 def2-TZVP TIGHTSCF CHELPG PMODEL PAL8
|  3>
|  4> %base "6-210_DFT_AB"
|  5>
|  6> %scf
|  7> MaxIter 1000
|  8> end
|  9>
| 10> * xyz 0 1
| 11>   C                      -0.073123            -1.446190            -8.216808
| 12>   O                      -1.511276            -1.386033            -7.972228
| 13>   H                      -1.960776            -1.925502            -8.635251
| 14>   H                      0.244114             -2.511909            -8.329340
| 15>   H                      0.238899             -0.965654            -9.158565
| 16>   H                      0.527147             -0.841932            -7.501318
| 17>   C                      -2.199423            -3.220114            -4.600146
| 18>   O                      -2.828646            -2.675775            -5.718328
| 19>   H                      -2.224699            -2.440707            -6.411759
| 20>   H                      -2.777657            -4.032801            -4.099867
| 21>   H                      -1.242190            -3.615599            -4.941980
| 22>   H                      -1.968914            -2.377201            -3.845331
| 23> *
| 24>
| 25> #Run DFT-D3 single point of the molecule with dimer basis set
| 26> $new_job
| 27> %base "6-210_DFT_A"
| 28> ! wB97X-D3 def2-TZVP TIGHTSCF CHELPG PMODEL
| 29>
| 30> %scf
| 31> MaxIter 1000
| 32> end
| 33>
| 34> * xyz 0 1
| 35>   C                      -0.073123            -1.446190            -8.216808
| 36>   O                      -1.511276            -1.386033            -7.972228
| 37>   H                      -1.960776            -1.925502            -8.635251
| 38>   H                      0.244114             -2.511909            -8.329340
| 39>   H                      0.238899             -0.965654            -9.158565
| 40>   H                      0.527147             -0.841932            -7.501318
| 41>   C                    : -2.199423            -3.220114            -4.600146
| 42>   O                    : -2.828646            -2.675775            -5.718328
| 43>   H                    : -2.224699            -2.440707            -6.411759
| 44>   H                    : -2.777657            -4.032801            -4.099867
| 45>   H                    : -1.242190            -3.615599            -4.941980
| 46>   H                    : -1.968914            -2.377201            -3.845331
| 47> *
| 48>
| 49> #Run DFT-D3 single point of the particle with dimer basis set
| 50> $new_job
| 51> %base "6-210_DFT_B"
| 52> ! wB97X-D3 def2-TZVP TIGHTSCF CHELPG PMODEL
| 53>
| 54> %scf
| 55> MaxIter 1000
| 56> end
| 57>
| 58> * xyz 0 1
| 59>   C                    : -0.073123            -1.446190            -8.216808
| 60>   O                    : -1.511276            -1.386033            -7.972228
| 61>   H                    : -1.960776            -1.925502            -8.635251
| 62>   H                    : 0.244114             -2.511909            -8.329340
| 63>   H                    : 0.238899             -0.965654            -9.158565
| 64>   H                    : 0.527147             -0.841932            -7.501318
| 65>   C                      -2.199423            -3.220114            -4.600146
| 66>   O                      -2.828646            -2.675775            -5.718328
| 67>   H                      -2.224699            -2.440707            -6.411759
| 68>   H                      -2.777657            -4.032801            -4.099867
| 69>   H                      -1.242190            -3.615599            -4.941980
| 70>   H                      -1.968914            -2.377201            -3.845331
| 71> *
| 72>
| 73>                          ****END OF INPUT****
 Total Charge           Charge          ....    0
 Multiplicity           Mult            ....    1
 Number of Electrons    NEL             ....   36
Dispersion correction           -0.001616187
FINAL SINGLE POINT ENERGY      -231.468924116675
Dispersion correction           -0.000275350
FINAL SINGLE POINT ENERGY      -115.730738322800

CARTESIAN COORDINATES (ANGSTROEM)
---------------------------------
  C     -0.073123   -1.446190   -8.216808
  O     -1.511276   -1.386033   -7.972228
  H     -1.960776   -1.925502   -8.635251
  H      0.244114   -2.511909   -8.329340
  H      0.238899   -0.965654   -9.158565
  H      0.527147   -0.841932   -7.501318
  C     -2.199423   -3.220114   -4.600146
  O     -2.828646   -2.675775   -5.718328
  H     -2.224699   -2.440707   -6.411759
  H     -2.777657   -4.032801   -4.099867
  H     -1.242190   -3.615599   -4.941980
  H     -1.968914   -2.377201   -3.845331

 Multiplicity           Mult            ....    1
 Number of Electrons    NEL             ....   18
 Basis Dimension        Dim             ....  172

ORBITAL ENERGIES
----------------

  NO   OCC          E(Eh)            E(eV)
   0   2.0000     -19.226521      -523.1802
   1   2.0000     -10.321189      -280.8538
   2   2.0000      -1.141864       -31.0717
   3   2.0000      -0.791732       -21.5441
   4   2.0000      -0.616270       -16.7696
   5   2.0000      -0.538046       -14.6410
   6   2.0000      -0.533888       -14.5278
   7   2.0000      -0.423309       -11.5188
   8   2.0000      -0.369378       -10.0513
   9   0.0000       0.067321         1.8319
  10   0.0000       0.132848         3.6150
  11   0.0000       0.143939         3.9168
  12   0.0000       0.174764         4.7556
  13   0.0000       0.180011         4.8984

MULLIKEN ATOMIC CHARGES
-----------------------
   0 C :   -0.002047
   1 O :   -0.000311
   2 H :   -0.000276
   3 H :    0.000058
   4 H :   -0.000082
   5 H :    0.000038
   6 C :   -0.148939
   7 O :   -0.469654
   8 H :    0.310410
   9 H :    0.118683
  10 H :    0.098088
  11 H :    0.094034
Sum of atomic charges:   -0.0000000

LOEWDIN ATOMIC CHARGES
----------------------
   0 C :   -0.003243
   1 O :   -0.015007
   2 H :   -0.002164
   3 H :   -0.000169
   4 H :   -0.000088
   5 H :   -0.000102
   6 C :   -0.401204
   7 O :   -0.053419
   8 H :    0.169436
   9 H :    0.108741
  10 H :    0.093704
  11 H :    0.103515

  Mayer bond orders larger than 0.1
B(  6-C ,  7-O ) :   0.9961 B(  6-C ,  9-H ) :   0.9676 B(  6-C , 10-H ) :   0.9899
B(  6-C , 11-H ) :   0.9715 B(  7-O ,  8-H ) :   0.9049

Dispersion correction           -0.000245657
FINAL SINGLE POINT ENERGY      -115.731366095492

DIPOLE MOMENT
-------------
                                X             Y             Z
Electronic contribution:     -0.99947       0.58974      -1.39515
Nuclear contribution   :      1.65323      -0.67648       1.35060
                        -----------------------------------------
Total Dipole Moment    :      0.65376      -0.08674      -0.04455
                        -----------------------------------------
Magnitude (a.u.)       :      0.66099
Magnitude (Debye)      :      1.68011

Rotational constants in cm-1:     4.191476     0.839942     0.816405
Rotational constants in MHz : 125657.274460 25180.817063 24475.197573

                             ****ORCA TERMINATED NORMALLY****
TOTAL RUN TIME: 0 days 0 hours 1 minutes 6 seconds 229 msec
