                         Program Version 4.1.2  - RELEASE  -
|  1> #Run DFT-D3 single point of the dimer
|  2> ! wB97X-D3 def2-TZVP TIGHTSCF CHELPG PMODEL PAL8
|  3>
|  4> %base "1-166_DFT_AB"
|  5>
|  6> %scf
|  7> MaxIter 1000
|  8> end
|  9>
| 10> * xyz 0 1
| 11>   C                      0.144095             -7.252960            6.891746
| 12>   O                      0.342838             -6.072351            7.719867
| 13>   H                      0.144008             -6.243576            8.650731
| 14>   H                      -0.412885            -7.910515            7.511644
| 15>   H                      -0.473165            -7.072138            6.063705
| 16>   H                      1.048022             -7.622503            6.470122
| 17>   C                      0.147487             -10.878635           5.552531
| 18>   O                      -0.847567            -10.263458           6.365772
| 19>   H                      -1.074027            -9.403888            6.015301
| 20>   H                      -0.429552            -11.525158           4.836190
| 21>   H                      0.745412             -10.186834           4.917920
| 22>   H                      0.793972             -11.591896           6.171292
| 23> *
| 24>
| 25> #Run DFT-D3 single point of the molecule with dimer basis set
| 26> $new_job
| 27> %base "1-166_DFT_A"
| 28> ! wB97X-D3 def2-TZVP TIGHTSCF CHELPG PMODEL
| 29>
| 30> %scf
| 31> MaxIter 1000
| 32> end
| 33>
| 34> * xyz 0 1
| 35>   C                      0.144095             -7.252960            6.891746
| 36>   O                      0.342838             -6.072351            7.719867
| 37>   H                      0.144008             -6.243576            8.650731
| 38>   H                      -0.412885            -7.910515            7.511644
| 39>   H                      -0.473165            -7.072138            6.063705
| 40>   H                      1.048022             -7.622503            6.470122
| 41>   C                    : 0.147487             -10.878635           5.552531
| 42>   O                    : -0.847567            -10.263458           6.365772
| 43>   H                    : -1.074027            -9.403888            6.015301
| 44>   H                    : -0.429552            -11.525158           4.836190
| 45>   H                    : 0.745412             -10.186834           4.917920
| 46>   H                    : 0.793972             -11.591896           6.171292
| 47> *
| 48>
| 49> #Run DFT-D3 single point of the particle with dimer basis set
| 50> $new_job
| 51> %base "1-166_DFT_B"
| 52> ! wB97X-D3 def2-TZVP TIGHTSCF CHELPG PMODEL
| 53>
| 54> %scf
| 55> MaxIter 1000
| 56> end
| 57>
| 58> * xyz 0 1
| 59>   C                    : 0.144095             -7.252960            6.891746
| 60>   O                    : 0.342838             -6.072351            7.719867
| 61>   H                    : 0.144008             -6.243576            8.650731
| 62>   H                    : -0.412885            -7.910515            7.511644
| 63>   H                    : -0.473165            -7.072138            6.063705
| 64>   H                    : 1.048022             -7.622503            6.470122
| 65>   C                      0.147487             -10.878635           5.552531
| 66>   O                      -0.847567            -10.263458           6.365772
| 67>   H                      -1.074027            -9.403888            6.015301
| 68>   H                      -0.429552            -11.525158           4.836190
| 69>   H                      0.745412             -10.186834           4.917920
| 70>   H                      0.793972             -11.591896           6.171292
| 71> *
| 72>
| 73>                          ****END OF INPUT****
 Total Charge           Charge          ....    0
 Multiplicity           Mult            ....    1
 Number of Electrons    NEL             ....   36
Dispersion correction           -0.001871360
FINAL SINGLE POINT ENERGY      -231.459358156928
Dispersion correction           -0.000249000
FINAL SINGLE POINT ENERGY      -115.727416463393

CARTESIAN COORDINATES (ANGSTROEM)
---------------------------------
  C      0.144095   -7.252960    6.891746
  O      0.342838   -6.072351    7.719867
  H      0.144008   -6.243576    8.650731
  H     -0.412885   -7.910515    7.511644
  H     -0.473165   -7.072138    6.063705
  H      1.048022   -7.622503    6.470122
  C      0.147487  -10.878635    5.552531
  O     -0.847567  -10.263458    6.365772
  H     -1.074027   -9.403888    6.015301
  H     -0.429552  -11.525158    4.836190
  H      0.745412  -10.186834    4.917920
  H      0.793972  -11.591896    6.171292

 Multiplicity           Mult            ....    1
 Number of Electrons    NEL             ....   18
 Basis Dimension        Dim             ....  172

ORBITAL ENERGIES
----------------

  NO   OCC          E(Eh)            E(eV)
   0   2.0000     -19.231505      -523.3159
   1   2.0000     -10.326180      -280.9897
   2   2.0000      -1.134288       -30.8655
   3   2.0000      -0.790335       -21.5061
   4   2.0000      -0.611645       -16.6437
   5   2.0000      -0.530335       -14.4312
   6   2.0000      -0.524966       -14.2850
   7   2.0000      -0.437869       -11.9150
   8   2.0000      -0.369052       -10.0424
   9   0.0000       0.076507         2.0819
  10   0.0000       0.130091         3.5400
  11   0.0000       0.148488         4.0406
  12   0.0000       0.175792         4.7835
  13   0.0000       0.190783         5.1915

MULLIKEN ATOMIC CHARGES
-----------------------
   0 C :   -0.014572
   1 O :   -0.000218
   2 H :   -0.000067
   3 H :   -0.003971
   4 H :    0.000682
   5 H :    0.002087
   6 C :   -0.172291
   7 O :   -0.465884
   8 H :    0.318762
   9 H :    0.107228
  10 H :    0.109265
  11 H :    0.118979
Sum of atomic charges:   -0.0000000

LOEWDIN ATOMIC CHARGES
----------------------
   0 C :   -0.015714
   1 O :   -0.000069
   2 H :   -0.000016
   3 H :   -0.008650
   4 H :   -0.001864
   5 H :   -0.001095
   6 C :   -0.387752
   7 O :   -0.068334
   8 H :    0.167706
   9 H :    0.101802
  10 H :    0.098438
  11 H :    0.115547

  Mayer bond orders larger than 0.1
B(  6-C ,  7-O ) :   0.9900 B(  6-C ,  9-H ) :   0.9847 B(  6-C , 10-H ) :   0.9699
B(  6-C , 11-H ) :   0.9696 B(  7-O ,  8-H ) :   0.8966

Dispersion correction           -0.000263625
FINAL SINGLE POINT ENERGY      -115.731920031740

DIPOLE MOMENT
-------------
                                X             Y             Z
Electronic contribution:     -1.15768       0.78543       1.17541
Nuclear contribution   :      1.40293      -0.48688      -1.73864
                        -----------------------------------------
Total Dipole Moment    :      0.24525       0.29855      -0.56323
                        -----------------------------------------
Magnitude (a.u.)       :      0.68302
Magnitude (Debye)      :      1.73609

Rotational constants in cm-1:     4.116344     0.817158     0.781406
Rotational constants in MHz : 123404.887114 24497.772239 23425.975096

                             ****ORCA TERMINATED NORMALLY****
TOTAL RUN TIME: 0 days 0 hours 6 minutes 15 seconds 698 msec
