                         Program Version 4.1.2  - RELEASE  -
|  1> #Run DFT-D3 single point of the dimer
|  2> ! wB97X-D3 def2-TZVP TIGHTSCF CHELPG PMODEL PAL8
|  3>
|  4> %base "17-211_DFT_AB"
|  5>
|  6> %scf
|  7> MaxIter 1000
|  8> end
|  9>
| 10> * xyz 0 1
| 11>   C                      4.294245             -7.367143            -6.150160
| 12>   O                      4.476665             -6.250817            -5.388786
| 13>   H                      4.724105             -5.603909            -6.035506
| 14>   H                      3.504387             -8.016956            -5.806962
| 15>   H                      4.175112             -7.146652            -7.235176
| 16>   H                      5.112388             -8.124913            -6.191092
| 17>   C                      6.950680             -5.180777            -2.894263
| 18>   O                      5.691752             -5.668641            -2.476561
| 19>   H                      5.101750             -5.781446            -3.215510
| 20>   H                      6.944204             -4.105749            -2.819759
| 21>   H                      7.739030             -5.548484            -2.227779
| 22>   H                      7.139983             -5.373746            -3.987873
| 23> *
| 24>
| 25> #Run DFT-D3 single point of the molecule with dimer basis set
| 26> $new_job
| 27> %base "17-211_DFT_A"
| 28> ! wB97X-D3 def2-TZVP TIGHTSCF CHELPG PMODEL
| 29>
| 30> %scf
| 31> MaxIter 1000
| 32> end
| 33>
| 34> * xyz 0 1
| 35>   C                      4.294245             -7.367143            -6.150160
| 36>   O                      4.476665             -6.250817            -5.388786
| 37>   H                      4.724105             -5.603909            -6.035506
| 38>   H                      3.504387             -8.016956            -5.806962
| 39>   H                      4.175112             -7.146652            -7.235176
| 40>   H                      5.112388             -8.124913            -6.191092
| 41>   C                    : 6.950680             -5.180777            -2.894263
| 42>   O                    : 5.691752             -5.668641            -2.476561
| 43>   H                    : 5.101750             -5.781446            -3.215510
| 44>   H                    : 6.944204             -4.105749            -2.819759
| 45>   H                    : 7.739030             -5.548484            -2.227779
| 46>   H                    : 7.139983             -5.373746            -3.987873
| 47> *
| 48>
| 49> #Run DFT-D3 single point of the particle with dimer basis set
| 50> $new_job
| 51> %base "17-211_DFT_B"
| 52> ! wB97X-D3 def2-TZVP TIGHTSCF CHELPG PMODEL
| 53>
| 54> %scf
| 55> MaxIter 1000
| 56> end
| 57>
| 58> * xyz 0 1
| 59>   C                    : 4.294245             -7.367143            -6.150160
| 60>   O                    : 4.476665             -6.250817            -5.388786
| 61>   H                    : 4.724105             -5.603909            -6.035506
| 62>   H                    : 3.504387             -8.016956            -5.806962
| 63>   H                    : 4.175112             -7.146652            -7.235176
| 64>   H                    : 5.112388             -8.124913            -6.191092
| 65>   C                      6.950680             -5.180777            -2.894263
| 66>   O                      5.691752             -5.668641            -2.476561
| 67>   H                      5.101750             -5.781446            -3.215510
| 68>   H                      6.944204             -4.105749            -2.819759
| 69>   H                      7.739030             -5.548484            -2.227779
| 70>   H                      7.139983             -5.373746            -3.987873
| 71> *
| 72>
| 73>                          ****END OF INPUT****
 Total Charge           Charge          ....    0
 Multiplicity           Mult            ....    1
 Number of Electrons    NEL             ....   36
Dispersion correction           -0.001592966
FINAL SINGLE POINT ENERGY      -231.468222027872
Dispersion correction           -0.000238376
FINAL SINGLE POINT ENERGY      -115.727983601676

CARTESIAN COORDINATES (ANGSTROEM)
---------------------------------
  C      4.294245   -7.367143   -6.150160
  O      4.476665   -6.250817   -5.388786
  H      4.724105   -5.603909   -6.035506
  H      3.504387   -8.016956   -5.806962
  H      4.175112   -7.146652   -7.235176
  H      5.112388   -8.124913   -6.191092
  C      6.950680   -5.180777   -2.894263
  O      5.691752   -5.668641   -2.476561
  H      5.101750   -5.781446   -3.215510
  H      6.944204   -4.105749   -2.819759
  H      7.739030   -5.548484   -2.227779
  H      7.139983   -5.373746   -3.987873

 Multiplicity           Mult            ....    1
 Number of Electrons    NEL             ....   18
 Basis Dimension        Dim             ....  172

ORBITAL ENERGIES
----------------

  NO   OCC          E(Eh)            E(eV)
   0   2.0000     -19.227255      -523.2002
   1   2.0000     -10.314945      -280.6839
   2   2.0000      -1.135392       -30.8956
   3   2.0000      -0.796215       -21.6661
   4   2.0000      -0.612640       -16.6708
   5   2.0000      -0.536388       -14.5959
   6   2.0000      -0.530954       -14.4480
   7   2.0000      -0.432964       -11.7815
   8   2.0000      -0.369729       -10.0608
   9   0.0000       0.069437         1.8895
  10   0.0000       0.126000         3.4286
  11   0.0000       0.151513         4.1229
  12   0.0000       0.170270         4.6333
  13   0.0000       0.188147         5.1197

MULLIKEN ATOMIC CHARGES
-----------------------
   0 C :   -0.001674
   1 O :   -0.001972
   2 H :   -0.000063
   3 H :    0.000187
   4 H :   -0.000002
   5 H :    0.000043
   6 C :   -0.162241
   7 O :   -0.477650
   8 H :    0.315169
   9 H :    0.107016
  10 H :    0.121002
  11 H :    0.100184
Sum of atomic charges:    0.0000000

LOEWDIN ATOMIC CHARGES
----------------------
   0 C :   -0.001118
   1 O :   -0.007821
   2 H :   -0.000720
   3 H :   -0.000023
   4 H :   -0.000032
   5 H :   -0.000037
   6 C :   -0.383360
   7 O :   -0.071121
   8 H :    0.163634
   9 H :    0.091925
  10 H :    0.107084
  11 H :    0.101588

  Mayer bond orders larger than 0.1
B(  6-C ,  7-O ) :   0.9909 B(  6-C ,  9-H ) :   0.9784 B(  6-C , 10-H ) :   0.9723
B(  6-C , 11-H ) :   0.9782 B(  7-O ,  8-H ) :   0.9059

Dispersion correction           -0.000246953
FINAL SINGLE POINT ENERGY      -115.734035655370

DIPOLE MOMENT
-------------
                                X             Y             Z
Electronic contribution:     -1.51041      -0.70733       0.68614
Nuclear contribution   :      1.63017       0.83979      -1.33193
                        -----------------------------------------
Total Dipole Moment    :      0.11976       0.13246      -0.64579
                        -----------------------------------------
Magnitude (a.u.)       :      0.67002
Magnitude (Debye)      :      1.70307

Rotational constants in cm-1:     4.282048     0.835093     0.795038
Rotational constants in MHz : 128372.554970 25035.454837 23834.646674

                             ****ORCA TERMINATED NORMALLY****
TOTAL RUN TIME: 0 days 0 hours 1 minutes 8 seconds 213 msec
