                         Program Version 4.1.2  - RELEASE  -
|  1> #Run DFT-D3 single point of the dimer
|  2> ! wB97X-D3 def2-TZVP TIGHTSCF CHELPG PMODEL PAL8
|  3>
|  4> %base "15-26_DFT_AB"
|  5>
|  6> %scf
|  7> MaxIter 1000
|  8> end
|  9>
| 10> * xyz 0 1
| 11>   C                      4.420336             -3.631376            1.742753
| 12>   O                      3.162538             -4.207617            1.389367
| 13>   H                      2.908502             -4.657569            2.203867
| 14>   H                      4.810058             -2.966194            0.971924
| 15>   H                      4.419981             -3.156620            2.638260
| 16>   H                      5.257324             -4.385752            1.882703
| 17>   C                      7.645717             -4.783339            -1.647874
| 18>   O                      7.887351             -5.714347            -2.654001
| 19>   H                      7.890592             -6.610636            -2.236015
| 20>   H                      6.697391             -5.034375            -1.097132
| 21>   H                      8.505209             -4.668471            -0.925371
| 22>   H                      7.544905             -3.785441            -2.124647
| 23> *
| 24>
| 25> #Run DFT-D3 single point of the molecule with dimer basis set
| 26> $new_job
| 27> %base "15-26_DFT_A"
| 28> ! wB97X-D3 def2-TZVP TIGHTSCF CHELPG PMODEL
| 29>
| 30> %scf
| 31> MaxIter 1000
| 32> end
| 33>
| 34> * xyz 0 1
| 35>   C                      4.420336             -3.631376            1.742753
| 36>   O                      3.162538             -4.207617            1.389367
| 37>   H                      2.908502             -4.657569            2.203867
| 38>   H                      4.810058             -2.966194            0.971924
| 39>   H                      4.419981             -3.156620            2.638260
| 40>   H                      5.257324             -4.385752            1.882703
| 41>   C                    : 7.645717             -4.783339            -1.647874
| 42>   O                    : 7.887351             -5.714347            -2.654001
| 43>   H                    : 7.890592             -6.610636            -2.236015
| 44>   H                    : 6.697391             -5.034375            -1.097132
| 45>   H                    : 8.505209             -4.668471            -0.925371
| 46>   H                    : 7.544905             -3.785441            -2.124647
| 47> *
| 48>
| 49> #Run DFT-D3 single point of the particle with dimer basis set
| 50> $new_job
| 51> %base "15-26_DFT_B"
| 52> ! wB97X-D3 def2-TZVP TIGHTSCF CHELPG PMODEL
| 53>
| 54> %scf
| 55> MaxIter 1000
| 56> end
| 57>
| 58> * xyz 0 1
| 59>   C                    : 4.420336             -3.631376            1.742753
| 60>   O                    : 3.162538             -4.207617            1.389367
| 61>   H                    : 2.908502             -4.657569            2.203867
| 62>   H                    : 4.810058             -2.966194            0.971924
| 63>   H                    : 4.419981             -3.156620            2.638260
| 64>   H                    : 5.257324             -4.385752            1.882703
| 65>   C                      7.645717             -4.783339            -1.647874
| 66>   O                      7.887351             -5.714347            -2.654001
| 67>   H                      7.890592             -6.610636            -2.236015
| 68>   H                      6.697391             -5.034375            -1.097132
| 69>   H                      8.505209             -4.668471            -0.925371
| 70>   H                      7.544905             -3.785441            -2.124647
| 71> *
| 72>
| 73>                          ****END OF INPUT****
 Total Charge           Charge          ....    0
 Multiplicity           Mult            ....    1
 Number of Electrons    NEL             ....   36
Dispersion correction           -0.000902539
FINAL SINGLE POINT ENERGY      -231.463452586850
Dispersion correction           -0.000239924
FINAL SINGLE POINT ENERGY      -115.728322042625

CARTESIAN COORDINATES (ANGSTROEM)
---------------------------------
  C      4.420336   -3.631376    1.742753
  O      3.162538   -4.207617    1.389367
  H      2.908502   -4.657569    2.203867
  H      4.810058   -2.966194    0.971924
  H      4.419981   -3.156620    2.638260
  H      5.257324   -4.385752    1.882703
  C      7.645717   -4.783339   -1.647874
  O      7.887351   -5.714347   -2.654001
  H      7.890592   -6.610636   -2.236015
  H      6.697391   -5.034375   -1.097132
  H      8.505209   -4.668471   -0.925371
  H      7.544905   -3.785441   -2.124647

 Multiplicity           Mult            ....    1
 Number of Electrons    NEL             ....   18
 Basis Dimension        Dim             ....  172

ORBITAL ENERGIES
----------------

  NO   OCC          E(Eh)            E(eV)
   0   2.0000     -19.234012      -523.3841
   1   2.0000     -10.319263      -280.8014
   2   2.0000      -1.139335       -31.0029
   3   2.0000      -0.785445       -21.3730
   4   2.0000      -0.608894       -16.5688
   5   2.0000      -0.542214       -14.7544
   6   2.0000      -0.526061       -14.3149
   7   2.0000      -0.429340       -11.6829
   8   2.0000      -0.371791       -10.1169
   9   0.0000       0.081897         2.2285
  10   0.0000       0.112310         3.0561
  11   0.0000       0.142707         3.8833
  12   0.0000       0.172425         4.6919
  13   0.0000       0.184288         5.0147

MULLIKEN ATOMIC CHARGES
-----------------------
   0 C :    0.000187
   1 O :    0.000018
   2 H :   -0.000001
   3 H :   -0.000250
   4 H :   -0.000067
   5 H :   -0.000467
   6 C :   -0.163385
   7 O :   -0.465914
   8 H :    0.317655
   9 H :    0.099204
  10 H :    0.095966
  11 H :    0.117055
Sum of atomic charges:    0.0000000

LOEWDIN ATOMIC CHARGES
----------------------
   0 C :   -0.000708
   1 O :   -0.000003
   2 H :   -0.000001
   3 H :   -0.000237
   4 H :   -0.000010
   5 H :   -0.000371
   6 C :   -0.418090
   7 O :   -0.074185
   8 H :    0.187523
   9 H :    0.098423
  10 H :    0.096440
  11 H :    0.111217

  Mayer bond orders larger than 0.1
B(  6-C ,  7-O ) :   1.0058 B(  6-C ,  9-H ) :   0.9788 B(  6-C , 10-H ) :   0.9690
B(  6-C , 11-H ) :   0.9715 B(  7-O ,  8-H ) :   0.8933

Dispersion correction           -0.000244487
FINAL SINGLE POINT ENERGY      -115.734700178249

DIPOLE MOMENT
-------------
                                X             Y             Z
Electronic contribution:      0.31527      -1.15093      -1.43560
Nuclear contribution   :     -0.40571       0.94617       2.04857
                        -----------------------------------------
Total Dipole Moment    :     -0.09044      -0.20476       0.61297
                        -----------------------------------------
Magnitude (a.u.)       :      0.65256
Magnitude (Debye)      :      1.65867

Rotational constants in cm-1:     4.071700     0.846061     0.816197
Rotational constants in MHz : 122066.486001 25364.264501 24468.984428

                             ****ORCA TERMINATED NORMALLY****
TOTAL RUN TIME: 0 days 0 hours 0 minutes 59 seconds 236 msec
