                         Program Version 4.1.2  - RELEASE  -
|  1> #Run DFT-D3 single point of the dimer
|  2> ! wB97X-D3 def2-TZVP TIGHTSCF CHELPG PMODEL PAL8
|  3>
|  4> %base "2-2_DFT_AB"
|  5>
|  6> %scf
|  7> MaxIter 1000
|  8> end
|  9>
| 10> * xyz 0 1
| 11>   C                      8.949076             -5.978823            1.374421
| 12>   O                      8.061541             -5.195316            2.119433
| 13>   H                      7.149420             -5.531842            2.087189
| 14>   H                      8.545516             -6.842409            0.887766
| 15>   H                      9.373425             -5.345801            0.537664
| 16>   H                      9.797121             -6.359743            1.900939
| 17>   C                      7.870330             -9.516202            3.642286
| 18>   O                      7.784803             -9.773389            5.046397
| 19>   H                      6.890367             -9.496004            5.288827
| 20>   H                      7.029758             -8.916929            3.367131
| 21>   H                      8.824142             -9.213947            3.272093
| 22>   H                      7.754524             -10.506116           3.127816
| 23> *
| 24>
| 25> #Run DFT-D3 single point of the molecule with dimer basis set
| 26> $new_job
| 27> %base "2-2_DFT_A"
| 28> ! wB97X-D3 def2-TZVP TIGHTSCF CHELPG PMODEL
| 29>
| 30> %scf
| 31> MaxIter 1000
| 32> end
| 33>
| 34> * xyz 0 1
| 35>   C                      8.949076             -5.978823            1.374421
| 36>   O                      8.061541             -5.195316            2.119433
| 37>   H                      7.149420             -5.531842            2.087189
| 38>   H                      8.545516             -6.842409            0.887766
| 39>   H                      9.373425             -5.345801            0.537664
| 40>   H                      9.797121             -6.359743            1.900939
| 41>   C                    : 7.870330             -9.516202            3.642286
| 42>   O                    : 7.784803             -9.773389            5.046397
| 43>   H                    : 6.890367             -9.496004            5.288827
| 44>   H                    : 7.029758             -8.916929            3.367131
| 45>   H                    : 8.824142             -9.213947            3.272093
| 46>   H                    : 7.754524             -10.506116           3.127816
| 47> *
| 48>
| 49> #Run DFT-D3 single point of the particle with dimer basis set
| 50> $new_job
| 51> %base "2-2_DFT_B"
| 52> ! wB97X-D3 def2-TZVP TIGHTSCF CHELPG PMODEL
| 53>
| 54> %scf
| 55> MaxIter 1000
| 56> end
| 57>
| 58> * xyz 0 1
| 59>   C                    : 8.949076             -5.978823            1.374421
| 60>   O                    : 8.061541             -5.195316            2.119433
| 61>   H                    : 7.149420             -5.531842            2.087189
| 62>   H                    : 8.545516             -6.842409            0.887766
| 63>   H                    : 9.373425             -5.345801            0.537664
| 64>   H                    : 9.797121             -6.359743            1.900939
| 65>   C                      7.870330             -9.516202            3.642286
| 66>   O                      7.784803             -9.773389            5.046397
| 67>   H                      6.890367             -9.496004            5.288827
| 68>   H                      7.029758             -8.916929            3.367131
| 69>   H                      8.824142             -9.213947            3.272093
| 70>   H                      7.754524             -10.506116           3.127816
| 71> *
| 72>
| 73>                          ****END OF INPUT****
 Total Charge           Charge          ....    0
 Multiplicity           Mult            ....    1
 Number of Electrons    NEL             ....   36
Dispersion correction           -0.001215366
FINAL SINGLE POINT ENERGY      -231.460516824127
Dispersion correction           -0.000265437
FINAL SINGLE POINT ENERGY      -115.731503521723

CARTESIAN COORDINATES (ANGSTROEM)
---------------------------------
  C      8.949076   -5.978823    1.374421
  O      8.061541   -5.195316    2.119433
  H      7.149420   -5.531842    2.087189
  H      8.545516   -6.842409    0.887766
  H      9.373425   -5.345801    0.537664
  H      9.797121   -6.359743    1.900939
  C      7.870330   -9.516202    3.642286
  O      7.784803   -9.773389    5.046397
  H      6.890367   -9.496004    5.288827
  H      7.029758   -8.916929    3.367131
  H      8.824142   -9.213947    3.272093
  H      7.754524  -10.506116    3.127816

 Multiplicity           Mult            ....    1
 Number of Electrons    NEL             ....   18
 Basis Dimension        Dim             ....  172

ORBITAL ENERGIES
----------------

  NO   OCC          E(Eh)            E(eV)
   0   2.0000     -19.229758      -523.2683
   1   2.0000     -10.312340      -280.6130
   2   2.0000      -1.131961       -30.8022
   3   2.0000      -0.796135       -21.6639
   4   2.0000      -0.609625       -16.5887
   5   2.0000      -0.542955       -14.7746
   6   2.0000      -0.525666       -14.3041
   7   2.0000      -0.441598       -12.0165
   8   2.0000      -0.366984        -9.9861
   9   0.0000       0.081008         2.2043
  10   0.0000       0.111680         3.0390
  11   0.0000       0.152610         4.1527
  12   0.0000       0.156865         4.2685
  13   0.0000       0.182979         4.9791

MULLIKEN ATOMIC CHARGES
-----------------------
   0 C :   -0.000754
   1 O :    0.000123
   2 H :   -0.000098
   3 H :   -0.000140
   4 H :   -0.000062
   5 H :   -0.000057
   6 C :   -0.170316
   7 O :   -0.468091
   8 H :    0.314940
   9 H :    0.108401
  10 H :    0.118568
  11 H :    0.097485
Sum of atomic charges:    0.0000000

LOEWDIN ATOMIC CHARGES
----------------------
   0 C :   -0.001146
   1 O :   -0.000017
   2 H :   -0.000165
   3 H :   -0.000370
   4 H :   -0.000010
   5 H :   -0.000368
   6 C :   -0.371397
   7 O :   -0.094366
   8 H :    0.174035
   9 H :    0.093401
  10 H :    0.097577
  11 H :    0.102827

  Mayer bond orders larger than 0.1
B(  6-C ,  7-O ) :   1.0091 B(  6-C ,  9-H ) :   0.9893 B(  6-C , 10-H ) :   0.9734
B(  6-C , 11-H ) :   0.9787 B(  7-O ,  8-H ) :   0.9021

Dispersion correction           -0.000234486
FINAL SINGLE POINT ENERGY      -115.728759876588

DIPOLE MOMENT
-------------
                                X             Y             Z
Electronic contribution:      0.11360      -0.14500       1.80864
Nuclear contribution   :     -0.64571       0.42412      -2.22165
                        -----------------------------------------
Total Dipole Moment    :     -0.53211       0.27911      -0.41301
                        -----------------------------------------
Magnitude (a.u.)       :      0.72912
Magnitude (Debye)      :      1.85328

Rotational constants in cm-1:     4.307910     0.828771     0.788247
Rotational constants in MHz : 129147.885028 24845.937186 23631.046337

                             ****ORCA TERMINATED NORMALLY****
TOTAL RUN TIME: 0 days 0 hours 5 minutes 23 seconds 909 msec
