                         Program Version 4.1.2  - RELEASE  -
|  1> #Run DFT-D3 single point of the dimer
|  2> ! wB97X-D3 def2-TZVP TIGHTSCF CHELPG PMODEL PAL8
|  3>
|  4> %base "10-114_DFT_AB"
|  5>
|  6> %scf
|  7> MaxIter 1000
|  8> end
|  9>
| 10> * xyz 0 1
| 11>   C                      -7.366661            -2.963687            2.761216
| 12>   O                      -7.991004            -1.877299            2.184801
| 13>   H                      -8.630948            -1.490112            2.772157
| 14>   H                      -8.031490            -3.775481            2.924278
| 15>   H                      -6.620792            -3.428823            2.136483
| 16>   H                      -6.995310            -2.677469            3.725112
| 17>   C                      -10.743004           1.820091             2.620393
| 18>   O                      -9.711612            1.782854             3.626180
| 19>   H                      -9.175963            0.974226             3.359488
| 20>   H                      -11.598526           2.488233             3.021385
| 21>   H                      -10.435831           2.280965             1.702688
| 22>   H                      -11.148913           0.839138             2.373878
| 23> *
| 24>
| 25> #Run DFT-D3 single point of the molecule with dimer basis set
| 26> $new_job
| 27> %base "10-114_DFT_A"
| 28> ! wB97X-D3 def2-TZVP TIGHTSCF CHELPG PMODEL
| 29>
| 30> %scf
| 31> MaxIter 1000
| 32> end
| 33>
| 34> * xyz 0 1
| 35>   C                      -7.366661            -2.963687            2.761216
| 36>   O                      -7.991004            -1.877299            2.184801
| 37>   H                      -8.630948            -1.490112            2.772157
| 38>   H                      -8.031490            -3.775481            2.924278
| 39>   H                      -6.620792            -3.428823            2.136483
| 40>   H                      -6.995310            -2.677469            3.725112
| 41>   C                    : -10.743004           1.820091             2.620393
| 42>   O                    : -9.711612            1.782854             3.626180
| 43>   H                    : -9.175963            0.974226             3.359488
| 44>   H                    : -11.598526           2.488233             3.021385
| 45>   H                    : -10.435831           2.280965             1.702688
| 46>   H                    : -11.148913           0.839138             2.373878
| 47> *
| 48>
| 49> #Run DFT-D3 single point of the particle with dimer basis set
| 50> $new_job
| 51> %base "10-114_DFT_B"
| 52> ! wB97X-D3 def2-TZVP TIGHTSCF CHELPG PMODEL
| 53>
| 54> %scf
| 55> MaxIter 1000
| 56> end
| 57>
| 58> * xyz 0 1
| 59>   C                    : -7.366661            -2.963687            2.761216
| 60>   O                    : -7.991004            -1.877299            2.184801
| 61>   H                    : -8.630948            -1.490112            2.772157
| 62>   H                    : -8.031490            -3.775481            2.924278
| 63>   H                    : -6.620792            -3.428823            2.136483
| 64>   H                    : -6.995310            -2.677469            3.725112
| 65>   C                      -10.743004           1.820091             2.620393
| 66>   O                      -9.711612            1.782854             3.626180
| 67>   H                      -9.175963            0.974226             3.359488
| 68>   H                      -11.598526           2.488233             3.021385
| 69>   H                      -10.435831           2.280965             1.702688
| 70>   H                      -11.148913           0.839138             2.373878
| 71> *
| 72>
| 73>                          ****END OF INPUT****
 Total Charge           Charge          ....    0
 Multiplicity           Mult            ....    1
 Number of Electrons    NEL             ....   36
Dispersion correction           -0.001051909
FINAL SINGLE POINT ENERGY      -231.462312697357
Dispersion correction           -0.000218071
FINAL SINGLE POINT ENERGY      -115.731996464614

CARTESIAN COORDINATES (ANGSTROEM)
---------------------------------
  C     -7.366661   -2.963687    2.761216
  O     -7.991004   -1.877299    2.184801
  H     -8.630948   -1.490112    2.772157
  H     -8.031490   -3.775481    2.924278
  H     -6.620792   -3.428823    2.136483
  H     -6.995310   -2.677469    3.725112
  C    -10.743004    1.820091    2.620393
  O     -9.711612    1.782854    3.626180
  H     -9.175963    0.974226    3.359488
  H    -11.598526    2.488233    3.021385
  H    -10.435831    2.280965    1.702688
  H    -11.148913    0.839138    2.373878

 Multiplicity           Mult            ....    1
 Number of Electrons    NEL             ....   18
 Basis Dimension        Dim             ....  172

ORBITAL ENERGIES
----------------

  NO   OCC          E(Eh)            E(eV)
   0   2.0000     -19.238186      -523.4977
   1   2.0000     -10.318310      -280.7755
   2   2.0000      -1.124127       -30.5891
   3   2.0000      -0.789085       -21.4721
   4   2.0000      -0.602844       -16.4042
   5   2.0000      -0.539327       -14.6758
   6   2.0000      -0.513838       -13.9822
   7   2.0000      -0.439715       -11.9653
   8   2.0000      -0.375572       -10.2198
   9   0.0000       0.072005         1.9594
  10   0.0000       0.111257         3.0275
  11   0.0000       0.149118         4.0577
  12   0.0000       0.180605         4.9145
  13   0.0000       0.192755         5.2451

MULLIKEN ATOMIC CHARGES
-----------------------
   0 C :    0.000222
   1 O :    0.000105
   2 H :   -0.001775
   3 H :   -0.000012
   4 H :    0.000004
   5 H :   -0.000048
   6 C :   -0.179896
   7 O :   -0.463389
   8 H :    0.315280
   9 H :    0.116090
  10 H :    0.107710
  11 H :    0.105707
Sum of atomic charges:   -0.0000000

LOEWDIN ATOMIC CHARGES
----------------------
   0 C :   -0.000024
   1 O :   -0.000246
   2 H :   -0.002169
   3 H :   -0.000001
   4 H :   -0.000001
   5 H :   -0.000003
   6 C :   -0.381436
   7 O :   -0.111565
   8 H :    0.194810
   9 H :    0.119693
  10 H :    0.088201
  11 H :    0.092740

  Mayer bond orders larger than 0.1
B(  6-C ,  7-O ) :   1.0048 B(  6-C ,  9-H ) :   0.9754 B(  6-C , 10-H ) :   0.9704
B(  6-C , 11-H ) :   0.9747 B(  7-O ,  8-H ) :   0.8994

Dispersion correction           -0.000255117
FINAL SINGLE POINT ENERGY      -115.730792032053

DIPOLE MOMENT
-------------
                                X             Y             Z
Electronic contribution:      1.34378       0.01956       1.33100
Nuclear contribution   :     -1.42269      -0.50246      -1.89695
                        -----------------------------------------
Total Dipole Moment    :     -0.07891      -0.48290      -0.56596
                        -----------------------------------------
Magnitude (a.u.)       :      0.74815
Magnitude (Debye)      :      1.90165

Rotational constants in cm-1:     4.122287     0.808850     0.769227
Rotational constants in MHz : 123583.041629 24248.709578 23060.832806

                             ****ORCA TERMINATED NORMALLY****
TOTAL RUN TIME: 0 days 0 hours 1 minutes 0 seconds 564 msec
