                         Program Version 4.1.2  - RELEASE  -
|  1> #Run DFT-D3 single point of the dimer
|  2> ! wB97X-D3 def2-TZVP TIGHTSCF CHELPG PMODEL PAL8
|  3>
|  4> %base "18-192_DFT_AB"
|  5>
|  6> %scf
|  7> MaxIter 1000
|  8> end
|  9>
| 10> * xyz 0 1
| 11>   C                      -3.298790            -3.261726            -5.806009
| 12>   O                      -2.323678            -3.800694            -6.630534
| 13>   H                      -2.343861            -3.387255            -7.476994
| 14>   H                      -2.987311            -2.325919            -5.315744
| 15>   H                      -4.237736            -3.025110            -6.254356
| 16>   H                      -3.616633            -3.976953            -5.027807
| 17>   C                      0.652887             -4.603899            -7.329924
| 18>   O                      1.034029             -3.278051            -7.200782
| 19>   H                      0.242085             -2.708499            -7.235678
| 20>   H                      -0.055861            -4.676612            -8.180890
| 21>   H                      1.491770             -5.297775            -7.503752
| 22>   H                      0.134496             -4.970212            -6.478246
| 23> *
| 24>
| 25> #Run DFT-D3 single point of the molecule with dimer basis set
| 26> $new_job
| 27> %base "18-192_DFT_A"
| 28> ! wB97X-D3 def2-TZVP TIGHTSCF CHELPG PMODEL
| 29>
| 30> %scf
| 31> MaxIter 1000
| 32> end
| 33>
| 34> * xyz 0 1
| 35>   C                      -3.298790            -3.261726            -5.806009
| 36>   O                      -2.323678            -3.800694            -6.630534
| 37>   H                      -2.343861            -3.387255            -7.476994
| 38>   H                      -2.987311            -2.325919            -5.315744
| 39>   H                      -4.237736            -3.025110            -6.254356
| 40>   H                      -3.616633            -3.976953            -5.027807
| 41>   C                    : 0.652887             -4.603899            -7.329924
| 42>   O                    : 1.034029             -3.278051            -7.200782
| 43>   H                    : 0.242085             -2.708499            -7.235678
| 44>   H                    : -0.055861            -4.676612            -8.180890
| 45>   H                    : 1.491770             -5.297775            -7.503752
| 46>   H                    : 0.134496             -4.970212            -6.478246
| 47> *
| 48>
| 49> #Run DFT-D3 single point of the particle with dimer basis set
| 50> $new_job
| 51> %base "18-192_DFT_B"
| 52> ! wB97X-D3 def2-TZVP TIGHTSCF CHELPG PMODEL
| 53>
| 54> %scf
| 55> MaxIter 1000
| 56> end
| 57>
| 58> * xyz 0 1
| 59>   C                    : -3.298790            -3.261726            -5.806009
| 60>   O                    : -2.323678            -3.800694            -6.630534
| 61>   H                    : -2.343861            -3.387255            -7.476994
| 62>   H                    : -2.987311            -2.325919            -5.315744
| 63>   H                    : -4.237736            -3.025110            -6.254356
| 64>   H                    : -3.616633            -3.976953            -5.027807
| 65>   C                      0.652887             -4.603899            -7.329924
| 66>   O                      1.034029             -3.278051            -7.200782
| 67>   H                      0.242085             -2.708499            -7.235678
| 68>   H                      -0.055861            -4.676612            -8.180890
| 69>   H                      1.491770             -5.297775            -7.503752
| 70>   H                      0.134496             -4.970212            -6.478246
| 71> *
| 72>
| 73>                          ****END OF INPUT****
 Total Charge           Charge          ....    0
 Multiplicity           Mult            ....    1
 Number of Electrons    NEL             ....   36
Dispersion correction           -0.001908439
FINAL SINGLE POINT ENERGY      -231.469029521899
Dispersion correction           -0.000249632
FINAL SINGLE POINT ENERGY      -115.734076259283

CARTESIAN COORDINATES (ANGSTROEM)
---------------------------------
  C     -3.298790   -3.261726   -5.806009
  O     -2.323678   -3.800694   -6.630534
  H     -2.343861   -3.387255   -7.476994
  H     -2.987311   -2.325919   -5.315744
  H     -4.237736   -3.025110   -6.254356
  H     -3.616633   -3.976953   -5.027807
  C      0.652887   -4.603899   -7.329924
  O      1.034029   -3.278051   -7.200782
  H      0.242085   -2.708499   -7.235678
  H     -0.055861   -4.676612   -8.180890
  H      1.491770   -5.297775   -7.503752
  H      0.134496   -4.970212   -6.478246

 Multiplicity           Mult            ....    1
 Number of Electrons    NEL             ....   18
 Basis Dimension        Dim             ....  172

ORBITAL ENERGIES
----------------

  NO   OCC          E(Eh)            E(eV)
   0   2.0000     -19.230097      -523.2775
   1   2.0000     -10.309746      -280.5424
   2   2.0000      -1.141192       -31.0534
   3   2.0000      -0.793922       -21.6037
   4   2.0000      -0.615091       -16.7375
   5   2.0000      -0.544312       -14.8115
   6   2.0000      -0.534073       -14.5329
   7   2.0000      -0.427986       -11.6461
   8   2.0000      -0.369789       -10.0625
   9   0.0000       0.070464         1.9174
  10   0.0000       0.121687         3.3113
  11   0.0000       0.150926         4.1069
  12   0.0000       0.171057         4.6547
  13   0.0000       0.194541         5.2937

MULLIKEN ATOMIC CHARGES
-----------------------
   0 C :    0.000004
   1 O :   -0.000148
   2 H :   -0.000389
   3 H :   -0.000092
   4 H :   -0.000006
   5 H :   -0.000061
   6 C :   -0.162447
   7 O :   -0.472720
   8 H :    0.319357
   9 H :    0.093401
  10 H :    0.123134
  11 H :    0.099966
Sum of atomic charges:   -0.0000000

LOEWDIN ATOMIC CHARGES
----------------------
   0 C :   -0.000470
   1 O :   -0.005247
   2 H :   -0.002194
   3 H :   -0.000047
   4 H :   -0.000006
   5 H :   -0.000022
   6 C :   -0.403994
   7 O :   -0.063529
   8 H :    0.181245
   9 H :    0.097542
  10 H :    0.110339
  11 H :    0.086384

  Mayer bond orders larger than 0.1
B(  6-C ,  7-O ) :   1.0007 B(  6-C ,  9-H ) :   0.9901 B(  6-C , 10-H ) :   0.9689
B(  6-C , 11-H ) :   0.9757 B(  7-O ,  8-H ) :   0.8942

Dispersion correction           -0.000225227
FINAL SINGLE POINT ENERGY      -115.733619546317

DIPOLE MOMENT
-------------
                                X             Y             Z
Electronic contribution:      0.72021       1.69654       0.24245
Nuclear contribution   :     -1.36631      -1.84954      -0.30567
                        -----------------------------------------
Total Dipole Moment    :     -0.64609      -0.15300      -0.06322
                        -----------------------------------------
Magnitude (a.u.)       :      0.66697
Magnitude (Debye)      :      1.69529

Rotational constants in cm-1:     4.349305     0.857348     0.820394
Rotational constants in MHz : 130388.875476 25702.652798 24594.784743

                             ****ORCA TERMINATED NORMALLY****
TOTAL RUN TIME: 0 days 0 hours 1 minutes 4 seconds 640 msec
