                         Program Version 4.1.2  - RELEASE  -
|  1> #Run DFT-D3 single point of the dimer
|  2> ! wB97X-D3 def2-TZVP TIGHTSCF CHELPG PMODEL PAL8
|  3>
|  4> %base "15-89_DFT_AB"
|  5>
|  6> %scf
|  7> MaxIter 1000
|  8> end
|  9>
| 10> * xyz 0 1
| 11>   C                      -3.485730            -1.394707            -9.730617
| 12>   O                      -2.209008            -1.200329            -10.263792
| 13>   H                      -1.614533            -1.875366            -9.926658
| 14>   H                      -4.240539            -0.844386            -10.235814
| 15>   H                      -3.804167            -2.419185            -9.794614
| 16>   H                      -3.535408            -1.094552            -8.687688
| 17>   C                      -4.432749            -0.665005            -4.183704
| 18>   O                      -5.511980            -0.222480            -3.434438
| 19>   H                      -5.248983            0.389718             -2.720610
| 20>   H                      -4.629903            -0.997595            -5.147036
| 21>   H                      -3.745433            0.176684             -4.392793
| 22>   H                      -3.865923            -1.420292            -3.627078
| 23> *
| 24>
| 25> #Run DFT-D3 single point of the molecule with dimer basis set
| 26> $new_job
| 27> %base "15-89_DFT_A"
| 28> ! wB97X-D3 def2-TZVP TIGHTSCF CHELPG PMODEL
| 29>
| 30> %scf
| 31> MaxIter 1000
| 32> end
| 33>
| 34> * xyz 0 1
| 35>   C                      -3.485730            -1.394707            -9.730617
| 36>   O                      -2.209008            -1.200329            -10.263792
| 37>   H                      -1.614533            -1.875366            -9.926658
| 38>   H                      -4.240539            -0.844386            -10.235814
| 39>   H                      -3.804167            -2.419185            -9.794614
| 40>   H                      -3.535408            -1.094552            -8.687688
| 41>   C                    : -4.432749            -0.665005            -4.183704
| 42>   O                    : -5.511980            -0.222480            -3.434438
| 43>   H                    : -5.248983            0.389718             -2.720610
| 44>   H                    : -4.629903            -0.997595            -5.147036
| 45>   H                    : -3.745433            0.176684             -4.392793
| 46>   H                    : -3.865923            -1.420292            -3.627078
| 47> *
| 48>
| 49> #Run DFT-D3 single point of the particle with dimer basis set
| 50> $new_job
| 51> %base "15-89_DFT_B"
| 52> ! wB97X-D3 def2-TZVP TIGHTSCF CHELPG PMODEL
| 53>
| 54> %scf
| 55> MaxIter 1000
| 56> end
| 57>
| 58> * xyz 0 1
| 59>   C                    : -3.485730            -1.394707            -9.730617
| 60>   O                    : -2.209008            -1.200329            -10.263792
| 61>   H                    : -1.614533            -1.875366            -9.926658
| 62>   H                    : -4.240539            -0.844386            -10.235814
| 63>   H                    : -3.804167            -2.419185            -9.794614
| 64>   H                    : -3.535408            -1.094552            -8.687688
| 65>   C                      -4.432749            -0.665005            -4.183704
| 66>   O                      -5.511980            -0.222480            -3.434438
| 67>   H                      -5.248983            0.389718             -2.720610
| 68>   H                      -4.629903            -0.997595            -5.147036
| 69>   H                      -3.745433            0.176684             -4.392793
| 70>   H                      -3.865923            -1.420292            -3.627078
| 71> *
| 72>
| 73>                          ****END OF INPUT****
 Total Charge           Charge          ....    0
 Multiplicity           Mult            ....    1
 Number of Electrons    NEL             ....   36
Dispersion correction           -0.000632984
FINAL SINGLE POINT ENERGY      -231.465370191952
Dispersion correction           -0.000232783
FINAL SINGLE POINT ENERGY      -115.735176701900

CARTESIAN COORDINATES (ANGSTROEM)
---------------------------------
  C     -3.485730   -1.394707   -9.730617
  O     -2.209008   -1.200329  -10.263792
  H     -1.614533   -1.875366   -9.926658
  H     -4.240539   -0.844386  -10.235814
  H     -3.804167   -2.419185   -9.794614
  H     -3.535408   -1.094552   -8.687688
  C     -4.432749   -0.665005   -4.183704
  O     -5.511980   -0.222480   -3.434438
  H     -5.248983    0.389718   -2.720610
  H     -4.629903   -0.997595   -5.147036
  H     -3.745433    0.176684   -4.392793
  H     -3.865923   -1.420292   -3.627078

 Multiplicity           Mult            ....    1
 Number of Electrons    NEL             ....   18
 Basis Dimension        Dim             ....  172

ORBITAL ENERGIES
----------------

  NO   OCC          E(Eh)            E(eV)
   0   2.0000     -19.228841      -523.2434
   1   2.0000     -10.306807      -280.4625
   2   2.0000      -1.138245       -30.9732
   3   2.0000      -0.799904       -21.7665
   4   2.0000      -0.614404       -16.7188
   5   2.0000      -0.550940       -14.9918
   6   2.0000      -0.533316       -14.5123
   7   2.0000      -0.421094       -11.4585
   8   2.0000      -0.370700       -10.0873
   9   0.0000       0.084752         2.3062
  10   0.0000       0.113279         3.0825
  11   0.0000       0.143570         3.9067
  12   0.0000       0.166472         4.5299
  13   0.0000       0.193529         5.2662

MULLIKEN ATOMIC CHARGES
-----------------------
   0 C :    0.000015
   1 O :   -0.000000
   2 H :   -0.000000
   3 H :   -0.000001
   4 H :   -0.000001
   5 H :   -0.000103
   6 C :   -0.150391
   7 O :   -0.483503
   8 H :    0.323852
   9 H :    0.121103
  10 H :    0.093837
  11 H :    0.095194
Sum of atomic charges:   -0.0000000

LOEWDIN ATOMIC CHARGES
----------------------
   0 C :   -0.000029
   1 O :   -0.000001
   2 H :   -0.000000
   3 H :   -0.000000
   4 H :   -0.000001
   5 H :   -0.000132
   6 C :   -0.400669
   7 O :   -0.067438
   8 H :    0.182080
   9 H :    0.093683
  10 H :    0.097812
  11 H :    0.094695

  Mayer bond orders larger than 0.1
B(  6-C ,  7-O ) :   1.0041 B(  6-C ,  9-H ) :   0.9695 B(  6-C , 10-H ) :   0.9869
B(  6-C , 11-H ) :   0.9797 B(  7-O ,  8-H ) :   0.8889

Dispersion correction           -0.000235534
FINAL SINGLE POINT ENERGY      -115.730046338796

DIPOLE MOMENT
-------------
                                X             Y             Z
Electronic contribution:     -1.62361       0.40132       0.84351
Nuclear contribution   :      2.21158      -0.16320      -0.70392
                        -----------------------------------------
Total Dipole Moment    :      0.58797       0.23812       0.13959
                        -----------------------------------------
Magnitude (a.u.)       :      0.64953
Magnitude (Debye)      :      1.65098

Rotational constants in cm-1:     4.495062     0.843899     0.823758
Rotational constants in MHz : 134758.567962 25299.452294 24695.657946

                             ****ORCA TERMINATED NORMALLY****
TOTAL RUN TIME: 0 days 0 hours 1 minutes 1 seconds 691 msec
