                         Program Version 4.1.2  - RELEASE  -
|  1> #Run DFT-D3 single point of the dimer
|  2> ! wB97X-D3 def2-TZVP TIGHTSCF CHELPG PMODEL PAL8
|  3>
|  4> %base "10-197_DFT_AB"
|  5>
|  6> %scf
|  7> MaxIter 1000
|  8> end
|  9>
| 10> * xyz 0 1
| 11>   C                      3.420418             5.845011             0.660086
| 12>   O                      2.429957             6.029736             -0.337725
| 13>   H                      1.566711             5.596374             -0.098511
| 14>   H                      4.368750             5.492269             0.227254
| 15>   H                      3.701800             6.816077             1.027696
| 16>   H                      2.997500             5.226315             1.460489
| 17>   C                      1.479605             2.669316             -2.231585
| 18>   O                      1.534654             4.022932             -2.513377
| 19>   H                      2.421682             4.241726             -2.256229
| 20>   H                      1.978938             2.115206             -3.031284
| 21>   H                      2.101613             2.426588             -1.337169
| 22>   H                      0.458590             2.271273             -1.986803
| 23> *
| 24>
| 25> #Run DFT-D3 single point of the molecule with dimer basis set
| 26> $new_job
| 27> %base "10-197_DFT_A"
| 28> ! wB97X-D3 def2-TZVP TIGHTSCF CHELPG PMODEL
| 29>
| 30> %scf
| 31> MaxIter 1000
| 32> end
| 33>
| 34> * xyz 0 1
| 35>   C                      3.420418             5.845011             0.660086
| 36>   O                      2.429957             6.029736             -0.337725
| 37>   H                      1.566711             5.596374             -0.098511
| 38>   H                      4.368750             5.492269             0.227254
| 39>   H                      3.701800             6.816077             1.027696
| 40>   H                      2.997500             5.226315             1.460489
| 41>   C                    : 1.479605             2.669316             -2.231585
| 42>   O                    : 1.534654             4.022932             -2.513377
| 43>   H                    : 2.421682             4.241726             -2.256229
| 44>   H                    : 1.978938             2.115206             -3.031284
| 45>   H                    : 2.101613             2.426588             -1.337169
| 46>   H                    : 0.458590             2.271273             -1.986803
| 47> *
| 48>
| 49> #Run DFT-D3 single point of the particle with dimer basis set
| 50> $new_job
| 51> %base "10-197_DFT_B"
| 52> ! wB97X-D3 def2-TZVP TIGHTSCF CHELPG PMODEL
| 53>
| 54> %scf
| 55> MaxIter 1000
| 56> end
| 57>
| 58> * xyz 0 1
| 59>   C                    : 3.420418             5.845011             0.660086
| 60>   O                    : 2.429957             6.029736             -0.337725
| 61>   H                    : 1.566711             5.596374             -0.098511
| 62>   H                    : 4.368750             5.492269             0.227254
| 63>   H                    : 3.701800             6.816077             1.027696
| 64>   H                    : 2.997500             5.226315             1.460489
| 65>   C                      1.479605             2.669316             -2.231585
| 66>   O                      1.534654             4.022932             -2.513377
| 67>   H                      2.421682             4.241726             -2.256229
| 68>   H                      1.978938             2.115206             -3.031284
| 69>   H                      2.101613             2.426588             -1.337169
| 70>   H                      0.458590             2.271273             -1.986803
| 71> *
| 72>
| 73>                          ****END OF INPUT****
 Total Charge           Charge          ....    0
 Multiplicity           Mult            ....    1
 Number of Electrons    NEL             ....   36
Dispersion correction           -0.001669084
FINAL SINGLE POINT ENERGY      -231.465858825681
Dispersion correction           -0.000248258
FINAL SINGLE POINT ENERGY      -115.731215439420

CARTESIAN COORDINATES (ANGSTROEM)
---------------------------------
  C      3.420418    5.845011    0.660086
  O      2.429957    6.029736   -0.337725
  H      1.566711    5.596374   -0.098511
  H      4.368750    5.492269    0.227254
  H      3.701800    6.816077    1.027696
  H      2.997500    5.226315    1.460489
  C      1.479605    2.669316   -2.231585
  O      1.534654    4.022932   -2.513377
  H      2.421682    4.241726   -2.256229
  H      1.978938    2.115206   -3.031284
  H      2.101613    2.426588   -1.337169
  H      0.458590    2.271273   -1.986803

 Multiplicity           Mult            ....    1
 Number of Electrons    NEL             ....   18
 Basis Dimension        Dim             ....  172

ORBITAL ENERGIES
----------------

  NO   OCC          E(Eh)            E(eV)
   0   2.0000     -19.232875      -523.3531
   1   2.0000     -10.317052      -280.7413
   2   2.0000      -1.154582       -31.4178
   3   2.0000      -0.788846       -21.4656
   4   2.0000      -0.620061       -16.8727
   5   2.0000      -0.548288       -14.9197
   6   2.0000      -0.528498       -14.3812
   7   2.0000      -0.435733       -11.8569
   8   2.0000      -0.372317       -10.1313
   9   0.0000       0.075044         2.0421
  10   0.0000       0.128206         3.4887
  11   0.0000       0.152754         4.1566
  12   0.0000       0.170140         4.6298
  13   0.0000       0.186783         5.0826

MULLIKEN ATOMIC CHARGES
-----------------------
   0 C :   -0.001578
   1 O :   -0.002348
   2 H :   -0.004006
   3 H :    0.000108
   4 H :   -0.000034
   5 H :    0.000192
   6 C :   -0.179243
   7 O :   -0.450926
   8 H :    0.319418
   9 H :    0.104650
  10 H :    0.095750
  11 H :    0.118016
Sum of atomic charges:    0.0000000

LOEWDIN ATOMIC CHARGES
----------------------
   0 C :   -0.001180
   1 O :   -0.005986
   2 H :   -0.006008
   3 H :   -0.000106
   4 H :   -0.000033
   5 H :   -0.000024
   6 C :   -0.418714
   7 O :   -0.040755
   8 H :    0.170675
   9 H :    0.094005
  10 H :    0.096536
  11 H :    0.111591

  Mayer bond orders larger than 0.1
B(  6-C ,  7-O ) :   0.9965 B(  6-C ,  9-H ) :   0.9774 B(  6-C , 10-H ) :   0.9862
B(  6-C , 11-H ) :   0.9695 B(  7-O ,  8-H ) :   0.9000

Dispersion correction           -0.000214700
FINAL SINGLE POINT ENERGY      -115.731124252034

DIPOLE MOMENT
-------------
                                X             Y             Z
Electronic contribution:     -0.21128       1.85054      -0.50957
Nuclear contribution   :      0.75167      -2.21691       0.78400
                        -----------------------------------------
Total Dipole Moment    :      0.54039      -0.36637       0.27444
                        -----------------------------------------
Magnitude (a.u.)       :      0.70821
Magnitude (Debye)      :      1.80013

Rotational constants in cm-1:     4.204913     0.864464     0.828179
Rotational constants in MHz : 126060.122613 25915.977833 24828.173594

                             ****ORCA TERMINATED NORMALLY****
TOTAL RUN TIME: 0 days 0 hours 1 minutes 6 seconds 842 msec
