                         Program Version 4.1.2  - RELEASE  -
|  1> #Run DFT-D3 single point of the dimer
|  2> ! wB97X-D3 def2-TZVP TIGHTSCF CHELPG PMODEL PAL8
|  3>
|  4> %base "3-60_DFT_AB"
|  5>
|  6> %scf
|  7> MaxIter 1000
|  8> end
|  9>
| 10> * xyz 0 1
| 11>   C                      -8.550756            3.122368             3.230009
| 12>   O                      -8.562572            2.964860             1.793958
| 13>   H                      -8.190921            3.761981             1.375839
| 14>   H                      -9.274297            2.452273             3.762807
| 15>   H                      -7.574168            2.767367             3.602449
| 16>   H                      -8.847867            4.108928             3.617314
| 17>   C                      -7.165216            5.901897             7.263181
| 18>   O                      -5.837204            6.029091             7.816969
| 19>   H                      -5.273024            5.306955             7.507821
| 20>   H                      -7.074525            5.478458             6.246550
| 21>   H                      -7.760018            5.322633             7.967423
| 22>   H                      -7.523470            6.906454             7.065021
| 23> *
| 24>
| 25> #Run DFT-D3 single point of the molecule with dimer basis set
| 26> $new_job
| 27> %base "3-60_DFT_A"
| 28> ! wB97X-D3 def2-TZVP TIGHTSCF CHELPG PMODEL
| 29>
| 30> %scf
| 31> MaxIter 1000
| 32> end
| 33>
| 34> * xyz 0 1
| 35>   C                      -8.550756            3.122368             3.230009
| 36>   O                      -8.562572            2.964860             1.793958
| 37>   H                      -8.190921            3.761981             1.375839
| 38>   H                      -9.274297            2.452273             3.762807
| 39>   H                      -7.574168            2.767367             3.602449
| 40>   H                      -8.847867            4.108928             3.617314
| 41>   C                    : -7.165216            5.901897             7.263181
| 42>   O                    : -5.837204            6.029091             7.816969
| 43>   H                    : -5.273024            5.306955             7.507821
| 44>   H                    : -7.074525            5.478458             6.246550
| 45>   H                    : -7.760018            5.322633             7.967423
| 46>   H                    : -7.523470            6.906454             7.065021
| 47> *
| 48>
| 49> #Run DFT-D3 single point of the particle with dimer basis set
| 50> $new_job
| 51> %base "3-60_DFT_B"
| 52> ! wB97X-D3 def2-TZVP TIGHTSCF CHELPG PMODEL
| 53>
| 54> %scf
| 55> MaxIter 1000
| 56> end
| 57>
| 58> * xyz 0 1
| 59>   C                    : -8.550756            3.122368             3.230009
| 60>   O                    : -8.562572            2.964860             1.793958
| 61>   H                    : -8.190921            3.761981             1.375839
| 62>   H                    : -9.274297            2.452273             3.762807
| 63>   H                    : -7.574168            2.767367             3.602449
| 64>   H                    : -8.847867            4.108928             3.617314
| 65>   C                      -7.165216            5.901897             7.263181
| 66>   O                      -5.837204            6.029091             7.816969
| 67>   H                      -5.273024            5.306955             7.507821
| 68>   H                      -7.074525            5.478458             6.246550
| 69>   H                      -7.760018            5.322633             7.967423
| 70>   H                      -7.523470            6.906454             7.065021
| 71> *
| 72>
| 73>                          ****END OF INPUT****
 Total Charge           Charge          ....    0
 Multiplicity           Mult            ....    1
 Number of Electrons    NEL             ....   36
Dispersion correction           -0.000825271
FINAL SINGLE POINT ENERGY      -231.464275911669
Dispersion correction           -0.000281362
FINAL SINGLE POINT ENERGY      -115.731217780200

CARTESIAN COORDINATES (ANGSTROEM)
---------------------------------
  C     -8.550756    3.122368    3.230009
  O     -8.562572    2.964860    1.793958
  H     -8.190921    3.761981    1.375839
  H     -9.274297    2.452273    3.762807
  H     -7.574168    2.767367    3.602449
  H     -8.847867    4.108928    3.617314
  C     -7.165216    5.901897    7.263181
  O     -5.837204    6.029091    7.816969
  H     -5.273024    5.306955    7.507821
  H     -7.074525    5.478458    6.246550
  H     -7.760018    5.322633    7.967423
  H     -7.523470    6.906454    7.065021

 Multiplicity           Mult            ....    1
 Number of Electrons    NEL             ....   18
 Basis Dimension        Dim             ....  172

ORBITAL ENERGIES
----------------

  NO   OCC          E(Eh)            E(eV)
   0   2.0000     -19.223894      -523.1088
   1   2.0000     -10.315372      -280.6956
   2   2.0000      -1.121586       -30.5199
   3   2.0000      -0.795147       -21.6370
   4   2.0000      -0.598675       -16.2908
   5   2.0000      -0.553453       -15.0602
   6   2.0000      -0.517707       -14.0875
   7   2.0000      -0.424608       -11.5542
   8   2.0000      -0.373989       -10.1768
   9   0.0000       0.079350         2.1592
  10   0.0000       0.114604         3.1185
  11   0.0000       0.145520         3.9598
  12   0.0000       0.165242         4.4965
  13   0.0000       0.181504         4.9390

MULLIKEN ATOMIC CHARGES
-----------------------
   0 C :    0.000161
   1 O :   -0.000005
   2 H :   -0.000003
   3 H :   -0.000027
   4 H :   -0.000081
   5 H :   -0.000387
   6 C :   -0.155438
   7 O :   -0.494164
   8 H :    0.314610
   9 H :    0.105102
  10 H :    0.111689
  11 H :    0.118541
Sum of atomic charges:   -0.0000000

LOEWDIN ATOMIC CHARGES
----------------------
   0 C :   -0.000358
   1 O :   -0.000004
   2 H :   -0.000000
   3 H :   -0.000005
   4 H :   -0.000072
   5 H :   -0.000337
   6 C :   -0.357907
   7 O :   -0.111775
   8 H :    0.166868
   9 H :    0.100493
  10 H :    0.097819
  11 H :    0.105277

  Mayer bond orders larger than 0.1
B(  6-C ,  7-O ) :   0.9916 B(  6-C ,  9-H ) :   0.9849 B(  6-C , 10-H ) :   0.9735
B(  6-C , 11-H ) :   0.9727 B(  7-O ,  8-H ) :   0.8998

Dispersion correction           -0.000243528
FINAL SINGLE POINT ENERGY      -115.732903851001

DIPOLE MOMENT
-------------
                                X             Y             Z
Electronic contribution:      1.44396       0.22289       0.79314
Nuclear contribution   :     -1.63446      -0.72352      -1.25153
                        -----------------------------------------
Total Dipole Moment    :     -0.19050      -0.50063      -0.45839
                        -----------------------------------------
Magnitude (a.u.)       :      0.70501
Magnitude (Debye)      :      1.79198

Rotational constants in cm-1:     4.180325     0.805451     0.789878
Rotational constants in MHz : 125322.993428 24146.827637 23679.948339

                             ****ORCA TERMINATED NORMALLY****
TOTAL RUN TIME: 0 days 0 hours 5 minutes 55 seconds 19 msec
