                         Program Version 4.1.2  - RELEASE  -
|  1> #Run DFT-D3 single point of the dimer
|  2> ! wB97X-D3 def2-TZVP TIGHTSCF CHELPG PMODEL PAL8
|  3>
|  4> %base "7-43_DFT_AB"
|  5>
|  6> %scf
|  7> MaxIter 1000
|  8> end
|  9>
| 10> * xyz 0 1
| 11>   C                      -9.811344            4.558187             10.207530
| 12>   O                      -8.653833            5.412163             9.985210
| 13>   H                      -8.166910            5.609681             10.804078
| 14>   H                      -10.766672           5.084000             10.437990
| 15>   H                      -10.064099           3.949902             9.357270
| 16>   H                      -9.652676            3.829172             10.959154
| 17>   C                      -5.694663            5.855385             7.654485
| 18>   O                      -6.732413            4.908999             7.753493
| 19>   H                      -6.902734            4.785585             8.716413
| 20>   H                      -5.860336            6.901046             8.030014
| 21>   H                      -4.748003            5.517548             8.206239
| 22>   H                      -5.409941            5.988484             6.609934
| 23> *
| 24>
| 25> #Run DFT-D3 single point of the molecule with dimer basis set
| 26> $new_job
| 27> %base "7-43_DFT_A"
| 28> ! wB97X-D3 def2-TZVP TIGHTSCF CHELPG PMODEL
| 29>
| 30> %scf
| 31> MaxIter 1000
| 32> end
| 33>
| 34> * xyz 0 1
| 35>   C                      -9.811344            4.558187             10.207530
| 36>   O                      -8.653833            5.412163             9.985210
| 37>   H                      -8.166910            5.609681             10.804078
| 38>   H                      -10.766672           5.084000             10.437990
| 39>   H                      -10.064099           3.949902             9.357270
| 40>   H                      -9.652676            3.829172             10.959154
| 41>   C                    : -5.694663            5.855385             7.654485
| 42>   O                    : -6.732413            4.908999             7.753493
| 43>   H                    : -6.902734            4.785585             8.716413
| 44>   H                    : -5.860336            6.901046             8.030014
| 45>   H                    : -4.748003            5.517548             8.206239
| 46>   H                    : -5.409941            5.988484             6.609934
| 47> *
| 48>
| 49> #Run DFT-D3 single point of the particle with dimer basis set
| 50> $new_job
| 51> %base "7-43_DFT_B"
| 52> ! wB97X-D3 def2-TZVP TIGHTSCF CHELPG PMODEL
| 53>
| 54> %scf
| 55> MaxIter 1000
| 56> end
| 57>
| 58> * xyz 0 1
| 59>   C                    : -9.811344            4.558187             10.207530
| 60>   O                    : -8.653833            5.412163             9.985210
| 61>   H                    : -8.166910            5.609681             10.804078
| 62>   H                    : -10.766672           5.084000             10.437990
| 63>   H                    : -10.064099           3.949902             9.357270
| 64>   H                    : -9.652676            3.829172             10.959154
| 65>   C                      -5.694663            5.855385             7.654485
| 66>   O                      -6.732413            4.908999             7.753493
| 67>   H                      -6.902734            4.785585             8.716413
| 68>   H                      -5.860336            6.901046             8.030014
| 69>   H                      -4.748003            5.517548             8.206239
| 70>   H                      -5.409941            5.988484             6.609934
| 71> *
| 72>
| 73>                          ****END OF INPUT****
 Total Charge           Charge          ....    0
 Multiplicity           Mult            ....    1
 Number of Electrons    NEL             ....   36
Dispersion correction           -0.001573912
FINAL SINGLE POINT ENERGY      -231.466866188557
Dispersion correction           -0.000289716
FINAL SINGLE POINT ENERGY      -115.730542244102

CARTESIAN COORDINATES (ANGSTROEM)
---------------------------------
  C     -9.811344    4.558187   10.207530
  O     -8.653833    5.412163    9.985210
  H     -8.166910    5.609681   10.804078
  H    -10.766672    5.084000   10.437990
  H    -10.064099    3.949902    9.357270
  H     -9.652676    3.829172   10.959154
  C     -5.694663    5.855385    7.654485
  O     -6.732413    4.908999    7.753493
  H     -6.902734    4.785585    8.716413
  H     -5.860336    6.901046    8.030014
  H     -4.748003    5.517548    8.206239
  H     -5.409941    5.988484    6.609934

 Multiplicity           Mult            ....    1
 Number of Electrons    NEL             ....   18
 Basis Dimension        Dim             ....  172

ORBITAL ENERGIES
----------------

  NO   OCC          E(Eh)            E(eV)
   0   2.0000     -19.240895      -523.5714
   1   2.0000     -10.320967      -280.8478
   2   2.0000      -1.138385       -30.9770
   3   2.0000      -0.789671       -21.4880
   4   2.0000      -0.612197       -16.6587
   5   2.0000      -0.533039       -14.5047
   6   2.0000      -0.525946       -14.3117
   7   2.0000      -0.437297       -11.8994
   8   2.0000      -0.374347       -10.1865
   9   0.0000       0.073412         1.9977
  10   0.0000       0.122798         3.3415
  11   0.0000       0.148558         4.0425
  12   0.0000       0.170711         4.6453
  13   0.0000       0.193256         5.2588

MULLIKEN ATOMIC CHARGES
-----------------------
   0 C :   -0.002098
   1 O :   -0.003638
   2 H :   -0.000508
   3 H :    0.000061
   4 H :   -0.000240
   5 H :    0.000040
   6 C :   -0.178878
   7 O :   -0.453521
   8 H :    0.319966
   9 H :    0.100058
  10 H :    0.096224
  11 H :    0.122533
Sum of atomic charges:    0.0000000

LOEWDIN ATOMIC CHARGES
----------------------
   0 C :   -0.002045
   1 O :   -0.011524
   2 H :   -0.001533
   3 H :   -0.000028
   4 H :   -0.000266
   5 H :   -0.000041
   6 C :   -0.411287
   7 O :   -0.067641
   8 H :    0.190249
   9 H :    0.096697
  10 H :    0.100484
  11 H :    0.106935

  Mayer bond orders larger than 0.1
B(  6-C ,  7-O ) :   1.0161 B(  6-C ,  9-H ) :   0.9609 B(  6-C , 10-H ) :   0.9800
B(  6-C , 11-H ) :   0.9743 B(  7-O ,  8-H ) :   0.8934

Dispersion correction           -0.000270187
FINAL SINGLE POINT ENERGY      -115.733242036205

DIPOLE MOMENT
-------------
                                X             Y             Z
Electronic contribution:     -1.53435      -1.30157      -0.06103
Nuclear contribution   :      1.82014       1.57871       0.58951
                        -----------------------------------------
Total Dipole Moment    :      0.28579       0.27714       0.52848
                        -----------------------------------------
Magnitude (a.u.)       :      0.66164
Magnitude (Debye)      :      1.68176

Rotational constants in cm-1:     4.223645     0.820516     0.789354
Rotational constants in MHz : 126621.688234 24598.463676 23664.239954

                             ****ORCA TERMINATED NORMALLY****
TOTAL RUN TIME: 0 days 0 hours 1 minutes 1 seconds 63 msec
