                         Program Version 4.1.2  - RELEASE  -
|  1> #Run DFT-D3 single point of the dimer
|  2> ! wB97X-D3 def2-TZVP TIGHTSCF CHELPG PMODEL PAL8
|  3>
|  4> %base "17-215_DFT_AB"
|  5>
|  6> %scf
|  7> MaxIter 1000
|  8> end
|  9>
| 10> * xyz 0 1
| 11>   C                      7.365069             -7.681559            8.766105
| 12>   O                      7.672023             -6.390432            9.124255
| 13>   H                      7.661325             -6.344541            10.049661
| 14>   H                      8.065978             -8.404759            9.169280
| 15>   H                      6.408734             -8.016274            9.069796
| 16>   H                      7.248683             -7.726035            7.660480
| 17>   C                      11.444901            -6.669576            8.433527
| 18>   O                      10.383963            -5.787107            8.745090
| 19>   H                      9.547265             -6.276719            8.536339
| 20>   H                      11.721595            -7.245196            9.365166
| 21>   H                      11.150588            -7.497450            7.707435
| 22>   H                      12.298860            -6.100439            8.008087
| 23> *
| 24>
| 25> #Run DFT-D3 single point of the molecule with dimer basis set
| 26> $new_job
| 27> %base "17-215_DFT_A"
| 28> ! wB97X-D3 def2-TZVP TIGHTSCF CHELPG PMODEL
| 29>
| 30> %scf
| 31> MaxIter 1000
| 32> end
| 33>
| 34> * xyz 0 1
| 35>   C                      7.365069             -7.681559            8.766105
| 36>   O                      7.672023             -6.390432            9.124255
| 37>   H                      7.661325             -6.344541            10.049661
| 38>   H                      8.065978             -8.404759            9.169280
| 39>   H                      6.408734             -8.016274            9.069796
| 40>   H                      7.248683             -7.726035            7.660480
| 41>   C                    : 11.444901            -6.669576            8.433527
| 42>   O                    : 10.383963            -5.787107            8.745090
| 43>   H                    : 9.547265             -6.276719            8.536339
| 44>   H                    : 11.721595            -7.245196            9.365166
| 45>   H                    : 11.150588            -7.497450            7.707435
| 46>   H                    : 12.298860            -6.100439            8.008087
| 47> *
| 48>
| 49> #Run DFT-D3 single point of the particle with dimer basis set
| 50> $new_job
| 51> %base "17-215_DFT_B"
| 52> ! wB97X-D3 def2-TZVP TIGHTSCF CHELPG PMODEL
| 53>
| 54> %scf
| 55> MaxIter 1000
| 56> end
| 57>
| 58> * xyz 0 1
| 59>   C                    : 7.365069             -7.681559            8.766105
| 60>   O                    : 7.672023             -6.390432            9.124255
| 61>   H                    : 7.661325             -6.344541            10.049661
| 62>   H                    : 8.065978             -8.404759            9.169280
| 63>   H                    : 6.408734             -8.016274            9.069796
| 64>   H                    : 7.248683             -7.726035            7.660480
| 65>   C                      11.444901            -6.669576            8.433527
| 66>   O                      10.383963            -5.787107            8.745090
| 67>   H                      9.547265             -6.276719            8.536339
| 68>   H                      11.721595            -7.245196            9.365166
| 69>   H                      11.150588            -7.497450            7.707435
| 70>   H                      12.298860            -6.100439            8.008087
| 71> *
| 72>
| 73>                          ****END OF INPUT****
 Total Charge           Charge          ....    0
 Multiplicity           Mult            ....    1
 Number of Electrons    NEL             ....   36
Dispersion correction           -0.001789298
FINAL SINGLE POINT ENERGY      -231.469313499702
Dispersion correction           -0.000219125
FINAL SINGLE POINT ENERGY      -115.732220477469

CARTESIAN COORDINATES (ANGSTROEM)
---------------------------------
  C      7.365069   -7.681559    8.766105
  O      7.672023   -6.390432    9.124255
  H      7.661325   -6.344541   10.049661
  H      8.065978   -8.404759    9.169280
  H      6.408734   -8.016274    9.069796
  H      7.248683   -7.726035    7.660480
  C     11.444901   -6.669576    8.433527
  O     10.383963   -5.787107    8.745090
  H      9.547265   -6.276719    8.536339
  H     11.721595   -7.245196    9.365166
  H     11.150588   -7.497450    7.707435
  H     12.298860   -6.100439    8.008087

 Multiplicity           Mult            ....    1
 Number of Electrons    NEL             ....   18
 Basis Dimension        Dim             ....  172

ORBITAL ENERGIES
----------------

  NO   OCC          E(Eh)            E(eV)
   0   2.0000     -19.235423      -523.4225
   1   2.0000     -10.323586      -280.9191
   2   2.0000      -1.132884       -30.8273
   3   2.0000      -0.784358       -21.3435
   4   2.0000      -0.607989       -16.5442
   5   2.0000      -0.539324       -14.6758
   6   2.0000      -0.519142       -14.1266
   7   2.0000      -0.435155       -11.8412
   8   2.0000      -0.371258       -10.1024
   9   0.0000       0.066519         1.8101
  10   0.0000       0.132308         3.6003
  11   0.0000       0.150093         4.0842
  12   0.0000       0.162186         4.4133
  13   0.0000       0.189475         5.1559

MULLIKEN ATOMIC CHARGES
-----------------------
   0 C :   -0.003024
   1 O :   -0.002512
   2 H :   -0.001216
   3 H :   -0.000156
   4 H :   -0.000357
   5 H :    0.000032
   6 C :   -0.179164
   7 O :   -0.457636
   8 H :    0.314758
   9 H :    0.102595
  10 H :    0.102507
  11 H :    0.124173
Sum of atomic charges:   -0.0000000

LOEWDIN ATOMIC CHARGES
----------------------
   0 C :   -0.008597
   1 O :   -0.018232
   2 H :   -0.002925
   3 H :   -0.000864
   4 H :   -0.000188
   5 H :   -0.000392
   6 C :   -0.400591
   7 O :   -0.079283
   8 H :    0.200257
   9 H :    0.100927
  10 H :    0.101455
  11 H :    0.108434

  Mayer bond orders larger than 0.1
B(  6-C ,  7-O ) :   0.9984 B(  6-C ,  9-H ) :   0.9695 B(  6-C , 10-H ) :   0.9797
B(  6-C , 11-H ) :   0.9716 B(  7-O ,  8-H ) :   0.9018

Dispersion correction           -0.000255502
FINAL SINGLE POINT ENERGY      -115.732234202103

DIPOLE MOMENT
-------------
                                X             Y             Z
Electronic contribution:     -1.22635       1.36802       0.41149
Nuclear contribution   :      1.11021      -2.00889      -0.67746
                        -----------------------------------------
Total Dipole Moment    :     -0.11614      -0.64088      -0.26597
                        -----------------------------------------
Magnitude (a.u.)       :      0.70353
Magnitude (Debye)      :      1.78823

Rotational constants in cm-1:     4.015200     0.826698     0.793212
Rotational constants in MHz : 120372.653362 24783.793294 23779.893451

                             ****ORCA TERMINATED NORMALLY****
TOTAL RUN TIME: 0 days 0 hours 1 minutes 8 seconds 16 msec
