                         Program Version 4.1.2  - RELEASE  -
|  1> #Run DFT-D3 single point of the dimer
|  2> ! wB97X-D3 def2-TZVP TIGHTSCF CHELPG PMODEL PAL8
|  3>
|  4> %base "9-105_DFT_AB"
|  5>
|  6> %scf
|  7> MaxIter 1000
|  8> end
|  9>
| 10> * xyz 0 1
| 11>   C                      6.482871             0.175619             -3.124092
| 12>   O                      5.876064             1.479061             -3.086430
| 13>   H                      5.127288             1.460981             -2.485195
| 14>   H                      6.305677             -0.243266            -2.102666
| 15>   H                      5.921835             -0.472918            -3.836024
| 16>   H                      7.590044             0.153542             -3.268757
| 17>   C                      8.440851             4.101556             -1.792450
| 18>   O                      7.899929             3.599774             -0.570047
| 19>   H                      8.574306             3.057650             -0.195285
| 20>   H                      9.545632             4.229841             -1.805738
| 21>   H                      8.330681             3.390921             -2.631952
| 22>   H                      8.075778             5.093911             -2.047035
| 23> *
| 24>
| 25> #Run DFT-D3 single point of the molecule with dimer basis set
| 26> $new_job
| 27> %base "9-105_DFT_A"
| 28> ! wB97X-D3 def2-TZVP TIGHTSCF CHELPG PMODEL
| 29>
| 30> %scf
| 31> MaxIter 1000
| 32> end
| 33>
| 34> * xyz 0 1
| 35>   C                      6.482871             0.175619             -3.124092
| 36>   O                      5.876064             1.479061             -3.086430
| 37>   H                      5.127288             1.460981             -2.485195
| 38>   H                      6.305677             -0.243266            -2.102666
| 39>   H                      5.921835             -0.472918            -3.836024
| 40>   H                      7.590044             0.153542             -3.268757
| 41>   C                    : 8.440851             4.101556             -1.792450
| 42>   O                    : 7.899929             3.599774             -0.570047
| 43>   H                    : 8.574306             3.057650             -0.195285
| 44>   H                    : 9.545632             4.229841             -1.805738
| 45>   H                    : 8.330681             3.390921             -2.631952
| 46>   H                    : 8.075778             5.093911             -2.047035
| 47> *
| 48>
| 49> #Run DFT-D3 single point of the particle with dimer basis set
| 50> $new_job
| 51> %base "9-105_DFT_B"
| 52> ! wB97X-D3 def2-TZVP TIGHTSCF CHELPG PMODEL
| 53>
| 54> %scf
| 55> MaxIter 1000
| 56> end
| 57>
| 58> * xyz 0 1
| 59>   C                    : 6.482871             0.175619             -3.124092
| 60>   O                    : 5.876064             1.479061             -3.086430
| 61>   H                    : 5.127288             1.460981             -2.485195
| 62>   H                    : 6.305677             -0.243266            -2.102666
| 63>   H                    : 5.921835             -0.472918            -3.836024
| 64>   H                    : 7.590044             0.153542             -3.268757
| 65>   C                      8.440851             4.101556             -1.792450
| 66>   O                      7.899929             3.599774             -0.570047
| 67>   H                      8.574306             3.057650             -0.195285
| 68>   H                      9.545632             4.229841             -1.805738
| 69>   H                      8.330681             3.390921             -2.631952
| 70>   H                      8.075778             5.093911             -2.047035
| 71> *
| 72>
| 73>                          ****END OF INPUT****
 Total Charge           Charge          ....    0
 Multiplicity           Mult            ....    1
 Number of Electrons    NEL             ....   36
Dispersion correction           -0.001362715
FINAL SINGLE POINT ENERGY      -231.463843266095
Dispersion correction           -0.000249290
FINAL SINGLE POINT ENERGY      -115.730601356726

CARTESIAN COORDINATES (ANGSTROEM)
---------------------------------
  C      6.482871    0.175619   -3.124092
  O      5.876064    1.479061   -3.086430
  H      5.127288    1.460981   -2.485195
  H      6.305677   -0.243266   -2.102666
  H      5.921835   -0.472918   -3.836024
  H      7.590044    0.153542   -3.268757
  C      8.440851    4.101556   -1.792450
  O      7.899929    3.599774   -0.570047
  H      8.574306    3.057650   -0.195285
  H      9.545632    4.229841   -1.805738
  H      8.330681    3.390921   -2.631952
  H      8.075778    5.093911   -2.047035

 Multiplicity           Mult            ....    1
 Number of Electrons    NEL             ....   18
 Basis Dimension        Dim             ....  172

ORBITAL ENERGIES
----------------

  NO   OCC          E(Eh)            E(eV)
   0   2.0000     -19.233886      -523.3806
   1   2.0000     -10.317533      -280.7544
   2   2.0000      -1.139093       -30.9963
   3   2.0000      -0.797456       -21.6999
   4   2.0000      -0.615318       -16.7436
   5   2.0000      -0.540679       -14.7126
   6   2.0000      -0.519532       -14.1372
   7   2.0000      -0.439037       -11.9468
   8   2.0000      -0.376388       -10.2420
   9   0.0000       0.085046         2.3142
  10   0.0000       0.122194         3.3251
  11   0.0000       0.148873         4.0510
  12   0.0000       0.169407         4.6098
  13   0.0000       0.181002         4.9253

MULLIKEN ATOMIC CHARGES
-----------------------
   0 C :    0.000171
   1 O :   -0.000056
   2 H :   -0.000213
   3 H :   -0.000046
   4 H :    0.000010
   5 H :   -0.000234
   6 C :   -0.183812
   7 O :   -0.462869
   8 H :    0.314563
   9 H :    0.105731
  10 H :    0.104688
  11 H :    0.122067
Sum of atomic charges:    0.0000000

LOEWDIN ATOMIC CHARGES
----------------------
   0 C :   -0.000739
   1 O :   -0.000663
   2 H :   -0.000258
   3 H :   -0.000056
   4 H :   -0.000013
   5 H :   -0.000210
   6 C :   -0.384981
   7 O :   -0.073297
   8 H :    0.159899
   9 H :    0.098621
  10 H :    0.096744
  11 H :    0.104954

  Mayer bond orders larger than 0.1
B(  6-C ,  7-O ) :   1.0078 B(  6-C ,  9-H ) :   0.9793 B(  6-C , 10-H ) :   0.9701
B(  6-C , 11-H ) :   0.9744 B(  7-O ,  8-H ) :   0.9034

Dispersion correction           -0.000259508
FINAL SINGLE POINT ENERGY      -115.732555131281

DIPOLE MOMENT
-------------
                                X             Y             Z
Electronic contribution:     -0.96172      -0.55234       1.64903
Nuclear contribution   :      1.63495       0.41693      -1.88000
                        -----------------------------------------
Total Dipole Moment    :      0.67323      -0.13541      -0.23097
                        -----------------------------------------
Magnitude (a.u.)       :      0.72452
Magnitude (Debye)      :      1.84158

Rotational constants in cm-1:     4.386345     0.808737     0.780491
Rotational constants in MHz : 131499.306465 24245.335217 23398.545140

                             ****ORCA TERMINATED NORMALLY****
TOTAL RUN TIME: 0 days 0 hours 0 minutes 40 seconds 264 msec
