                         Program Version 4.1.2  - RELEASE  -
|  1> #Run DFT-D3 single point of the dimer
|  2> ! wB97X-D3 def2-TZVP TIGHTSCF CHELPG PMODEL PAL8
|  3>
|  4> %base "19-95_DFT_AB"
|  5>
|  6> %scf
|  7> MaxIter 1000
|  8> end
|  9>
| 10> * xyz 0 1
| 11>   C                      6.919625             2.237632             2.945838
| 12>   O                      7.105568             3.614791             3.004067
| 13>   H                      7.927648             3.903414             2.617584
| 14>   H                      7.422164             1.719098             3.729250
| 15>   H                      5.841692             1.966989             3.041488
| 16>   H                      7.318918             1.785904             1.953686
| 17>   C                      7.674039             0.035445             7.558897
| 18>   O                      8.497836             -1.111017            7.348845
| 19>   H                      8.080656             -1.808521            6.818184
| 20>   H                      7.815197             0.376542             8.597976
| 21>   H                      7.876174             0.780799             6.758844
| 22>   H                      6.562464             -0.208771            7.573850
| 23> *
| 24>
| 25> #Run DFT-D3 single point of the molecule with dimer basis set
| 26> $new_job
| 27> %base "19-95_DFT_A"
| 28> ! wB97X-D3 def2-TZVP TIGHTSCF CHELPG PMODEL
| 29>
| 30> %scf
| 31> MaxIter 1000
| 32> end
| 33>
| 34> * xyz 0 1
| 35>   C                      6.919625             2.237632             2.945838
| 36>   O                      7.105568             3.614791             3.004067
| 37>   H                      7.927648             3.903414             2.617584
| 38>   H                      7.422164             1.719098             3.729250
| 39>   H                      5.841692             1.966989             3.041488
| 40>   H                      7.318918             1.785904             1.953686
| 41>   C                    : 7.674039             0.035445             7.558897
| 42>   O                    : 8.497836             -1.111017            7.348845
| 43>   H                    : 8.080656             -1.808521            6.818184
| 44>   H                    : 7.815197             0.376542             8.597976
| 45>   H                    : 7.876174             0.780799             6.758844
| 46>   H                    : 6.562464             -0.208771            7.573850
| 47> *
| 48>
| 49> #Run DFT-D3 single point of the particle with dimer basis set
| 50> $new_job
| 51> %base "19-95_DFT_B"
| 52> ! wB97X-D3 def2-TZVP TIGHTSCF CHELPG PMODEL
| 53>
| 54> %scf
| 55> MaxIter 1000
| 56> end
| 57>
| 58> * xyz 0 1
| 59>   C                    : 6.919625             2.237632             2.945838
| 60>   O                    : 7.105568             3.614791             3.004067
| 61>   H                    : 7.927648             3.903414             2.617584
| 62>   H                    : 7.422164             1.719098             3.729250
| 63>   H                    : 5.841692             1.966989             3.041488
| 64>   H                    : 7.318918             1.785904             1.953686
| 65>   C                      7.674039             0.035445             7.558897
| 66>   O                      8.497836             -1.111017            7.348845
| 67>   H                      8.080656             -1.808521            6.818184
| 68>   H                      7.815197             0.376542             8.597976
| 69>   H                      7.876174             0.780799             6.758844
| 70>   H                      6.562464             -0.208771            7.573850
| 71> *
| 72>
| 73>                          ****END OF INPUT****
 Total Charge           Charge          ....    0
 Multiplicity           Mult            ....    1
 Number of Electrons    NEL             ....   36
Dispersion correction           -0.000834959
FINAL SINGLE POINT ENERGY      -231.464713316597
Dispersion correction           -0.000256335
FINAL SINGLE POINT ENERGY      -115.732657462018

CARTESIAN COORDINATES (ANGSTROEM)
---------------------------------
  C      6.919625    2.237632    2.945838
  O      7.105568    3.614791    3.004067
  H      7.927648    3.903414    2.617584
  H      7.422164    1.719098    3.729250
  H      5.841692    1.966989    3.041488
  H      7.318918    1.785904    1.953686
  C      7.674039    0.035445    7.558897
  O      8.497836   -1.111017    7.348845
  H      8.080656   -1.808521    6.818184
  H      7.815197    0.376542    8.597976
  H      7.876174    0.780799    6.758844
  H      6.562464   -0.208771    7.573850

 Multiplicity           Mult            ....    1
 Number of Electrons    NEL             ....   18
 Basis Dimension        Dim             ....  172

ORBITAL ENERGIES
----------------

  NO   OCC          E(Eh)            E(eV)
   0   2.0000     -19.227571      -523.2088
   1   2.0000     -10.322295      -280.8839
   2   2.0000      -1.125527       -30.6271
   3   2.0000      -0.792034       -21.5523
   4   2.0000      -0.605221       -16.4689
   5   2.0000      -0.548127       -14.9153
   6   2.0000      -0.513558       -13.9746
   7   2.0000      -0.420489       -11.4421
   8   2.0000      -0.374702       -10.1962
   9   0.0000       0.083775         2.2796
  10   0.0000       0.114198         3.1075
  11   0.0000       0.147216         4.0060
  12   0.0000       0.164303         4.4709
  13   0.0000       0.178867         4.8672

MULLIKEN ATOMIC CHARGES
-----------------------
   0 C :   -0.000722
   1 O :    0.000026
   2 H :    0.000005
   3 H :    0.000852
   4 H :    0.000033
   5 H :    0.000007
   6 C :   -0.164749
   7 O :   -0.493716
   8 H :    0.320296
   9 H :    0.122496
  10 H :    0.113225
  11 H :    0.102248
Sum of atomic charges:   -0.0000000

LOEWDIN ATOMIC CHARGES
----------------------
   0 C :   -0.000218
   1 O :   -0.000002
   2 H :   -0.000000
   3 H :   -0.000452
   4 H :   -0.000006
   5 H :   -0.000001
   6 C :   -0.384018
   7 O :   -0.098619
   8 H :    0.171438
   9 H :    0.108586
  10 H :    0.101023
  11 H :    0.102270

  Mayer bond orders larger than 0.1
B(  6-C ,  7-O ) :   0.9932 B(  6-C ,  9-H ) :   0.9705 B(  6-C , 10-H ) :   0.9702
B(  6-C , 11-H ) :   0.9767 B(  7-O ,  8-H ) :   0.8927

Dispersion correction           -0.000274419
FINAL SINGLE POINT ENERGY      -115.731686807830

DIPOLE MOMENT
-------------
                                X             Y             Z
Electronic contribution:      1.20485      -1.32223      -0.23384
Nuclear contribution   :     -1.83395       1.31865      -0.00692
                        -----------------------------------------
Total Dipole Moment    :     -0.62911      -0.00358      -0.24076
                        -----------------------------------------
Magnitude (a.u.)       :      0.67361
Magnitude (Debye)      :      1.71219

Rotational constants in cm-1:     4.170444     0.801437     0.787539
Rotational constants in MHz : 125026.761487 24026.488766 23609.822867

                             ****ORCA TERMINATED NORMALLY****
TOTAL RUN TIME: 0 days 0 hours 0 minutes 50 seconds 734 msec
