                         Program Version 4.1.2  - RELEASE  -
|  1> #Run DFT-D3 single point of the dimer
|  2> ! wB97X-D3 def2-TZVP TIGHTSCF CHELPG PMODEL PAL8
|  3>
|  4> %base "11-38_DFT_AB"
|  5>
|  6> %scf
|  7> MaxIter 1000
|  8> end
|  9>
| 10> * xyz 0 1
| 11>   C                      -4.262804            -3.298811            4.931557
| 12>   O                      -3.864564            -2.942529            6.210114
| 13>   H                      -2.899731            -2.834253            6.123950
| 14>   H                      -4.286093            -4.428996            4.908977
| 15>   H                      -5.227939            -2.841040            4.620827
| 16>   H                      -3.491225            -3.035285            4.130311
| 17>   C                      -6.242248            -0.142471            2.374967
| 18>   O                      -6.795535            0.871142             1.528577
| 19>   H                      -6.086667            1.558375             1.634918
| 20>   H                      -7.005123            -0.500635            3.005440
| 21>   H                      -5.854555            -0.967482            1.802231
| 22>   H                      -5.386707            0.238985             2.896178
| 23> *
| 24>
| 25> #Run DFT-D3 single point of the molecule with dimer basis set
| 26> $new_job
| 27> %base "11-38_DFT_A"
| 28> ! wB97X-D3 def2-TZVP TIGHTSCF CHELPG PMODEL
| 29>
| 30> %scf
| 31> MaxIter 1000
| 32> end
| 33>
| 34> * xyz 0 1
| 35>   C                      -4.262804            -3.298811            4.931557
| 36>   O                      -3.864564            -2.942529            6.210114
| 37>   H                      -2.899731            -2.834253            6.123950
| 38>   H                      -4.286093            -4.428996            4.908977
| 39>   H                      -5.227939            -2.841040            4.620827
| 40>   H                      -3.491225            -3.035285            4.130311
| 41>   C                    : -6.242248            -0.142471            2.374967
| 42>   O                    : -6.795535            0.871142             1.528577
| 43>   H                    : -6.086667            1.558375             1.634918
| 44>   H                    : -7.005123            -0.500635            3.005440
| 45>   H                    : -5.854555            -0.967482            1.802231
| 46>   H                    : -5.386707            0.238985             2.896178
| 47> *
| 48>
| 49> #Run DFT-D3 single point of the particle with dimer basis set
| 50> $new_job
| 51> %base "11-38_DFT_B"
| 52> ! wB97X-D3 def2-TZVP TIGHTSCF CHELPG PMODEL
| 53>
| 54> %scf
| 55> MaxIter 1000
| 56> end
| 57>
| 58> * xyz 0 1
| 59>   C                    : -4.262804            -3.298811            4.931557
| 60>   O                    : -3.864564            -2.942529            6.210114
| 61>   H                    : -2.899731            -2.834253            6.123950
| 62>   H                    : -4.286093            -4.428996            4.908977
| 63>   H                    : -5.227939            -2.841040            4.620827
| 64>   H                    : -3.491225            -3.035285            4.130311
| 65>   C                      -6.242248            -0.142471            2.374967
| 66>   O                      -6.795535            0.871142             1.528577
| 67>   H                      -6.086667            1.558375             1.634918
| 68>   H                      -7.005123            -0.500635            3.005440
| 69>   H                      -5.854555            -0.967482            1.802231
| 70>   H                      -5.386707            0.238985             2.896178
| 71> *
| 72>
| 73>                          ****END OF INPUT****
 Total Charge           Charge          ....    0
 Multiplicity           Mult            ....    1
 Number of Electrons    NEL             ....   36
Dispersion correction           -0.000994334
FINAL SINGLE POINT ENERGY      -231.459599380142
Dispersion correction           -0.000233823
FINAL SINGLE POINT ENERGY      -115.729795147384

CARTESIAN COORDINATES (ANGSTROEM)
---------------------------------
  C     -4.262804   -3.298811    4.931557
  O     -3.864564   -2.942529    6.210114
  H     -2.899731   -2.834253    6.123950
  H     -4.286093   -4.428996    4.908977
  H     -5.227939   -2.841040    4.620827
  H     -3.491225   -3.035285    4.130311
  C     -6.242248   -0.142471    2.374967
  O     -6.795535    0.871142    1.528577
  H     -6.086667    1.558375    1.634918
  H     -7.005123   -0.500635    3.005440
  H     -5.854555   -0.967482    1.802231
  H     -5.386707    0.238985    2.896178

 Multiplicity           Mult            ....    1
 Number of Electrons    NEL             ....   18
 Basis Dimension        Dim             ....  172

ORBITAL ENERGIES
----------------

  NO   OCC          E(Eh)            E(eV)
   0   2.0000     -19.232520      -523.3435
   1   2.0000     -10.305224      -280.4194
   2   2.0000      -1.129692       -30.7405
   3   2.0000      -0.795733       -21.6530
   4   2.0000      -0.608905       -16.5692
   5   2.0000      -0.541563       -14.7367
   6   2.0000      -0.524206       -14.2644
   7   2.0000      -0.446294       -12.1443
   8   2.0000      -0.372395       -10.1334
   9   0.0000       0.080563         2.1922
  10   0.0000       0.107680         2.9301
  11   0.0000       0.141120         3.8401
  12   0.0000       0.175612         4.7787
  13   0.0000       0.184537         5.0215

MULLIKEN ATOMIC CHARGES
-----------------------
   0 C :   -0.000139
   1 O :    0.000006
   2 H :    0.000000
   3 H :    0.000007
   4 H :    0.000323
   5 H :   -0.000124
   6 C :   -0.176813
   7 O :   -0.466832
   8 H :    0.315096
   9 H :    0.119670
  10 H :    0.105844
  11 H :    0.102962
Sum of atomic charges:    0.0000000

LOEWDIN ATOMIC CHARGES
----------------------
   0 C :   -0.000290
   1 O :   -0.000006
   2 H :   -0.000001
   3 H :   -0.000003
   4 H :   -0.000305
   5 H :   -0.000068
   6 C :   -0.369987
   7 O :   -0.104316
   8 H :    0.191457
   9 H :    0.095045
  10 H :    0.095097
  11 H :    0.093376

  Mayer bond orders larger than 0.1
B(  6-C ,  7-O ) :   1.0132 B(  6-C ,  9-H ) :   0.9784 B(  6-C , 10-H ) :   0.9727
B(  6-C , 11-H ) :   0.9910 B(  7-O ,  8-H ) :   0.9032

Dispersion correction           -0.000221183
FINAL SINGLE POINT ENERGY      -115.729315571632

DIPOLE MOMENT
-------------
                                X             Y             Z
Electronic contribution:     -0.89232       1.17365      -1.04268
Nuclear contribution   :      1.55389      -1.15480       1.44763
                        -----------------------------------------
Total Dipole Moment    :      0.66157       0.01884       0.40495
                        -----------------------------------------
Magnitude (a.u.)       :      0.77590
Magnitude (Debye)      :      1.97218

Rotational constants in cm-1:     4.283119     0.836730     0.797032
Rotational constants in MHz : 128404.680809 25084.541915 23894.414633

                             ****ORCA TERMINATED NORMALLY****
TOTAL RUN TIME: 0 days 0 hours 1 minutes 8 seconds 195 msec
