                         Program Version 4.1.2  - RELEASE  -
|  1> #Run DFT-D3 single point of the dimer
|  2> ! wB97X-D3 def2-TZVP TIGHTSCF CHELPG PMODEL PAL8
|  3>
|  4> %base "11-28_DFT_AB"
|  5>
|  6> %scf
|  7> MaxIter 1000
|  8> end
|  9>
| 10> * xyz 0 1
| 11>   C                      -8.448119            2.442185             -5.118233
| 12>   O                      -7.831945            1.753476             -4.059607
| 13>   H                      -8.251878            0.862124             -3.916511
| 14>   H                      -9.518605            2.289483             -5.032777
| 15>   H                      -8.197066            3.464053             -5.152794
| 16>   H                      -8.176135            2.038059             -6.035437
| 17>   C                      -8.471510            6.676102             -8.548774
| 18>   O                      -7.695524            6.375627             -9.654351
| 19>   H                      -8.332927            6.645817             -10.345592
| 20>   H                      -7.918044            7.033419             -7.642975
| 21>   H                      -9.113098            7.540617             -8.649670
| 22>   H                      -9.064198            5.845080             -8.224748
| 23> *
| 24>
| 25> #Run DFT-D3 single point of the molecule with dimer basis set
| 26> $new_job
| 27> %base "11-28_DFT_A"
| 28> ! wB97X-D3 def2-TZVP TIGHTSCF CHELPG PMODEL
| 29>
| 30> %scf
| 31> MaxIter 1000
| 32> end
| 33>
| 34> * xyz 0 1
| 35>   C                      -8.448119            2.442185             -5.118233
| 36>   O                      -7.831945            1.753476             -4.059607
| 37>   H                      -8.251878            0.862124             -3.916511
| 38>   H                      -9.518605            2.289483             -5.032777
| 39>   H                      -8.197066            3.464053             -5.152794
| 40>   H                      -8.176135            2.038059             -6.035437
| 41>   C                    : -8.471510            6.676102             -8.548774
| 42>   O                    : -7.695524            6.375627             -9.654351
| 43>   H                    : -8.332927            6.645817             -10.345592
| 44>   H                    : -7.918044            7.033419             -7.642975
| 45>   H                    : -9.113098            7.540617             -8.649670
| 46>   H                    : -9.064198            5.845080             -8.224748
| 47> *
| 48>
| 49> #Run DFT-D3 single point of the particle with dimer basis set
| 50> $new_job
| 51> %base "11-28_DFT_B"
| 52> ! wB97X-D3 def2-TZVP TIGHTSCF CHELPG PMODEL
| 53>
| 54> %scf
| 55> MaxIter 1000
| 56> end
| 57>
| 58> * xyz 0 1
| 59>   C                    : -8.448119            2.442185             -5.118233
| 60>   O                    : -7.831945            1.753476             -4.059607
| 61>   H                    : -8.251878            0.862124             -3.916511
| 62>   H                    : -9.518605            2.289483             -5.032777
| 63>   H                    : -8.197066            3.464053             -5.152794
| 64>   H                    : -8.176135            2.038059             -6.035437
| 65>   C                      -8.471510            6.676102             -8.548774
| 66>   O                      -7.695524            6.375627             -9.654351
| 67>   H                      -8.332927            6.645817             -10.345592
| 68>   H                      -7.918044            7.033419             -7.642975
| 69>   H                      -9.113098            7.540617             -8.649670
| 70>   H                      -9.064198            5.845080             -8.224748
| 71> *
| 72>
| 73>                          ****END OF INPUT****
 Total Charge           Charge          ....    0
 Multiplicity           Mult            ....    1
 Number of Electrons    NEL             ....   36
Dispersion correction           -0.000629237
FINAL SINGLE POINT ENERGY      -231.457431087631
Dispersion correction           -0.000222118
FINAL SINGLE POINT ENERGY      -115.729995316044

CARTESIAN COORDINATES (ANGSTROEM)
---------------------------------
  C     -8.448119    2.442185   -5.118233
  O     -7.831945    1.753476   -4.059607
  H     -8.251878    0.862124   -3.916511
  H     -9.518605    2.289483   -5.032777
  H     -8.197066    3.464053   -5.152794
  H     -8.176135    2.038059   -6.035437
  C     -8.471510    6.676102   -8.548774
  O     -7.695524    6.375627   -9.654351
  H     -8.332927    6.645817  -10.345592
  H     -7.918044    7.033419   -7.642975
  H     -9.113098    7.540617   -8.649670
  H     -9.064198    5.845080   -8.224748

 Multiplicity           Mult            ....    1
 Number of Electrons    NEL             ....   18
 Basis Dimension        Dim             ....  172

ORBITAL ENERGIES
----------------

  NO   OCC          E(Eh)            E(eV)
   0   2.0000     -19.238485      -523.5058
   1   2.0000     -10.309072      -280.5241
   2   2.0000      -1.151738       -31.3404
   3   2.0000      -0.792376       -21.5617
   4   2.0000      -0.616157       -16.7665
   5   2.0000      -0.551888       -15.0176
   6   2.0000      -0.529299       -14.4030
   7   2.0000      -0.431072       -11.7301
   8   2.0000      -0.377693       -10.2775
   9   0.0000       0.086808         2.3622
  10   0.0000       0.112295         3.0557
  11   0.0000       0.143149         3.8953
  12   0.0000       0.171733         4.6731
  13   0.0000       0.195350         5.3158

MULLIKEN ATOMIC CHARGES
-----------------------
   0 C :   -0.000009
   1 O :    0.000000
   2 H :    0.000000
   3 H :   -0.000004
   4 H :   -0.000037
   5 H :   -0.000004
   6 C :   -0.188022
   7 O :   -0.448830
   8 H :    0.321641
   9 H :    0.106930
  10 H :    0.103157
  11 H :    0.105177
Sum of atomic charges:    0.0000000

LOEWDIN ATOMIC CHARGES
----------------------
   0 C :   -0.000077
   1 O :   -0.000001
   2 H :   -0.000000
   3 H :   -0.000003
   4 H :   -0.000060
   5 H :   -0.000007
   6 C :   -0.429319
   7 O :   -0.056168
   8 H :    0.192683
   9 H :    0.109951
  10 H :    0.093030
  11 H :    0.089971

  Mayer bond orders larger than 0.1
B(  6-C ,  7-O ) :   1.0150 B(  6-C ,  9-H ) :   0.9714 B(  6-C , 10-H ) :   0.9821
B(  6-C , 11-H ) :   0.9763 B(  7-O ,  8-H ) :   0.8978

Dispersion correction           -0.000224780
FINAL SINGLE POINT ENERGY      -115.727281822227

DIPOLE MOMENT
-------------
                                X             Y             Z
Electronic contribution:      1.21619      -0.55219      -1.54338
Nuclear contribution   :     -1.89272       0.85630       1.51598
                        -----------------------------------------
Total Dipole Moment    :     -0.67652       0.30412      -0.02740
                        -----------------------------------------
Magnitude (a.u.)       :      0.74224
Magnitude (Debye)      :      1.88663

Rotational constants in cm-1:     4.398183     0.853864     0.827519
Rotational constants in MHz : 131854.215389 25598.188564 24808.388397

                             ****ORCA TERMINATED NORMALLY****
TOTAL RUN TIME: 0 days 0 hours 1 minutes 10 seconds 826 msec
