                         Program Version 4.1.2  - RELEASE  -
|  1> #Run DFT-D3 single point of the dimer
|  2> ! wB97X-D3 def2-TZVP TIGHTSCF CHELPG PMODEL PAL8
|  3>
|  4> %base "16-150_DFT_AB"
|  5>
|  6> %scf
|  7> MaxIter 1000
|  8> end
|  9>
| 10> * xyz 0 1
| 11>   C                      -5.590404            -4.921913            10.847072
| 12>   O                      -6.739722            -4.856644            9.969149
| 13>   H                      -7.118811            -5.766387            10.100734
| 14>   H                      -5.094186            -3.912061            10.882553
| 15>   H                      -5.859882            -5.218284            11.830984
| 16>   H                      -4.904992            -5.666262            10.405153
| 17>   C                      -6.767810            -1.448241            7.955498
| 18>   O                      -7.346342            -2.742153            8.154645
| 19>   H                      -6.944997            -3.182233            8.940503
| 20>   H                      -6.709724            -1.151407            6.945388
| 21>   H                      -7.347413            -0.686434            8.456528
| 22>   H                      -5.763627            -1.442012            8.421003
| 23> *
| 24>
| 25> #Run DFT-D3 single point of the molecule with dimer basis set
| 26> $new_job
| 27> %base "16-150_DFT_A"
| 28> ! wB97X-D3 def2-TZVP TIGHTSCF CHELPG PMODEL
| 29>
| 30> %scf
| 31> MaxIter 1000
| 32> end
| 33>
| 34> * xyz 0 1
| 35>   C                      -5.590404            -4.921913            10.847072
| 36>   O                      -6.739722            -4.856644            9.969149
| 37>   H                      -7.118811            -5.766387            10.100734
| 38>   H                      -5.094186            -3.912061            10.882553
| 39>   H                      -5.859882            -5.218284            11.830984
| 40>   H                      -4.904992            -5.666262            10.405153
| 41>   C                    : -6.767810            -1.448241            7.955498
| 42>   O                    : -7.346342            -2.742153            8.154645
| 43>   H                    : -6.944997            -3.182233            8.940503
| 44>   H                    : -6.709724            -1.151407            6.945388
| 45>   H                    : -7.347413            -0.686434            8.456528
| 46>   H                    : -5.763627            -1.442012            8.421003
| 47> *
| 48>
| 49> #Run DFT-D3 single point of the particle with dimer basis set
| 50> $new_job
| 51> %base "16-150_DFT_B"
| 52> ! wB97X-D3 def2-TZVP TIGHTSCF CHELPG PMODEL
| 53>
| 54> %scf
| 55> MaxIter 1000
| 56> end
| 57>
| 58> * xyz 0 1
| 59>   C                    : -5.590404            -4.921913            10.847072
| 60>   O                    : -6.739722            -4.856644            9.969149
| 61>   H                    : -7.118811            -5.766387            10.100734
| 62>   H                    : -5.094186            -3.912061            10.882553
| 63>   H                    : -5.859882            -5.218284            11.830984
| 64>   H                    : -4.904992            -5.666262            10.405153
| 65>   C                      -6.767810            -1.448241            7.955498
| 66>   O                      -7.346342            -2.742153            8.154645
| 67>   H                      -6.944997            -3.182233            8.940503
| 68>   H                      -6.709724            -1.151407            6.945388
| 69>   H                      -7.347413            -0.686434            8.456528
| 70>   H                      -5.763627            -1.442012            8.421003
| 71> *
| 72>
| 73>                          ****END OF INPUT****
 Total Charge           Charge          ....    0
 Multiplicity           Mult            ....    1
 Number of Electrons    NEL             ....   36
Dispersion correction           -0.001507302
FINAL SINGLE POINT ENERGY      -231.470179861207
Dispersion correction           -0.000223469
FINAL SINGLE POINT ENERGY      -115.732249464837

CARTESIAN COORDINATES (ANGSTROEM)
---------------------------------
  C     -5.590404   -4.921913   10.847072
  O     -6.739722   -4.856644    9.969149
  H     -7.118811   -5.766387   10.100734
  H     -5.094186   -3.912061   10.882553
  H     -5.859882   -5.218284   11.830984
  H     -4.904992   -5.666262   10.405153
  C     -6.767810   -1.448241    7.955498
  O     -7.346342   -2.742153    8.154645
  H     -6.944997   -3.182233    8.940503
  H     -6.709724   -1.151407    6.945388
  H     -7.347413   -0.686434    8.456528
  H     -5.763627   -1.442012    8.421003

 Multiplicity           Mult            ....    1
 Number of Electrons    NEL             ....   18
 Basis Dimension        Dim             ....  172

ORBITAL ENERGIES
----------------

  NO   OCC          E(Eh)            E(eV)
   0   2.0000     -19.229862      -523.2711
   1   2.0000     -10.310393      -280.5601
   2   2.0000      -1.123597       -30.5746
   3   2.0000      -0.798424       -21.7262
   4   2.0000      -0.603873       -16.4322
   5   2.0000      -0.537990       -14.6395
   6   2.0000      -0.535402       -14.5690
   7   2.0000      -0.429353       -11.6833
   8   2.0000      -0.371578       -10.1112
   9   0.0000       0.068485         1.8636
  10   0.0000       0.127645         3.4734
  11   0.0000       0.148029         4.0281
  12   0.0000       0.168366         4.5815
  13   0.0000       0.197632         5.3778

MULLIKEN ATOMIC CHARGES
-----------------------
   0 C :   -0.001382
   1 O :    0.000495
   2 H :   -0.000010
   3 H :   -0.000231
   4 H :   -0.000051
   5 H :    0.000132
   6 C :   -0.155647
   7 O :   -0.481819
   8 H :    0.312025
   9 H :    0.123417
  10 H :    0.103046
  11 H :    0.100024
Sum of atomic charges:   -0.0000000

LOEWDIN ATOMIC CHARGES
----------------------
   0 C :   -0.003691
   1 O :   -0.017649
   2 H :   -0.000628
   3 H :   -0.000658
   4 H :   -0.000077
   5 H :   -0.000066
   6 C :   -0.364146
   7 O :   -0.095715
   8 H :    0.192377
   9 H :    0.096279
  10 H :    0.093384
  11 H :    0.100592

  Mayer bond orders larger than 0.1
B(  6-C ,  7-O ) :   0.9946 B(  6-C ,  9-H ) :   0.9719 B(  6-C , 10-H ) :   0.9773
B(  6-C , 11-H ) :   0.9882 B(  7-O ,  8-H ) :   0.9013

Dispersion correction           -0.000248514
FINAL SINGLE POINT ENERGY      -115.732630415208

DIPOLE MOMENT
-------------
                                X             Y             Z
Electronic contribution:     -0.82851      -1.60037       0.00571
Nuclear contribution   :      1.33014       1.86647       0.39997
                        -----------------------------------------
Total Dipole Moment    :      0.50163       0.26610       0.40568
                        -----------------------------------------
Magnitude (a.u.)       :      0.69787
Magnitude (Debye)      :      1.77384

Rotational constants in cm-1:     4.380842     0.815101     0.781150
Rotational constants in MHz : 131334.324996 24436.122343 23418.289333

                             ****ORCA TERMINATED NORMALLY****
TOTAL RUN TIME: 0 days 0 hours 0 minutes 57 seconds 430 msec
