                         Program Version 4.1.2  - RELEASE  -
|  1> #Run DFT-D3 single point of the dimer
|  2> ! wB97X-D3 def2-TZVP TIGHTSCF CHELPG PMODEL PAL8
|  3>
|  4> %base "8-48_DFT_AB"
|  5>
|  6> %scf
|  7> MaxIter 1000
|  8> end
|  9>
| 10> * xyz 0 1
| 11>   C                      10.151555            8.697992             -2.113844
| 12>   O                      8.907114             8.041381             -1.854696
| 13>   H                      8.176294             8.540252             -2.215552
| 14>   H                      10.937525            7.939530             -1.949895
| 15>   H                      10.135819            9.106653             -3.162596
| 16>   H                      10.323929            9.538655             -1.477755
| 17>   C                      5.516910             4.798344             0.486500
| 18>   O                      5.933246             5.897615             1.108298
| 19>   H                      6.394821             6.479765             0.481301
| 20>   H                      4.789262             4.296935             1.139114
| 21>   H                      4.936789             4.924250             -0.411263
| 22>   H                      6.246772             4.066543             0.165103
| 23> *
| 24>
| 25> #Run DFT-D3 single point of the molecule with dimer basis set
| 26> $new_job
| 27> %base "8-48_DFT_A"
| 28> ! wB97X-D3 def2-TZVP TIGHTSCF CHELPG PMODEL
| 29>
| 30> %scf
| 31> MaxIter 1000
| 32> end
| 33>
| 34> * xyz 0 1
| 35>   C                      10.151555            8.697992             -2.113844
| 36>   O                      8.907114             8.041381             -1.854696
| 37>   H                      8.176294             8.540252             -2.215552
| 38>   H                      10.937525            7.939530             -1.949895
| 39>   H                      10.135819            9.106653             -3.162596
| 40>   H                      10.323929            9.538655             -1.477755
| 41>   C                    : 5.516910             4.798344             0.486500
| 42>   O                    : 5.933246             5.897615             1.108298
| 43>   H                    : 6.394821             6.479765             0.481301
| 44>   H                    : 4.789262             4.296935             1.139114
| 45>   H                    : 4.936789             4.924250             -0.411263
| 46>   H                    : 6.246772             4.066543             0.165103
| 47> *
| 48>
| 49> #Run DFT-D3 single point of the particle with dimer basis set
| 50> $new_job
| 51> %base "8-48_DFT_B"
| 52> ! wB97X-D3 def2-TZVP TIGHTSCF CHELPG PMODEL
| 53>
| 54> %scf
| 55> MaxIter 1000
| 56> end
| 57>
| 58> * xyz 0 1
| 59>   C                    : 10.151555            8.697992             -2.113844
| 60>   O                    : 8.907114             8.041381             -1.854696
| 61>   H                    : 8.176294             8.540252             -2.215552
| 62>   H                    : 10.937525            7.939530             -1.949895
| 63>   H                    : 10.135819            9.106653             -3.162596
| 64>   H                    : 10.323929            9.538655             -1.477755
| 65>   C                      5.516910             4.798344             0.486500
| 66>   O                      5.933246             5.897615             1.108298
| 67>   H                      6.394821             6.479765             0.481301
| 68>   H                      4.789262             4.296935             1.139114
| 69>   H                      4.936789             4.924250             -0.411263
| 70>   H                      6.246772             4.066543             0.165103
| 71> *
| 72>
| 73>                          ****END OF INPUT****
 Total Charge           Charge          ....    0
 Multiplicity           Mult            ....    1
 Number of Electrons    NEL             ....   36
Dispersion correction           -0.000695293
FINAL SINGLE POINT ENERGY      -231.465448147874
Dispersion correction           -0.000247146
FINAL SINGLE POINT ENERGY      -115.734823299929

CARTESIAN COORDINATES (ANGSTROEM)
---------------------------------
  C     10.151555    8.697992   -2.113844
  O      8.907114    8.041381   -1.854696
  H      8.176294    8.540252   -2.215552
  H     10.937525    7.939530   -1.949895
  H     10.135819    9.106653   -3.162596
  H     10.323929    9.538655   -1.477755
  C      5.516910    4.798344    0.486500
  O      5.933246    5.897615    1.108298
  H      6.394821    6.479765    0.481301
  H      4.789262    4.296935    1.139114
  H      4.936789    4.924250   -0.411263
  H      6.246772    4.066543    0.165103

 Multiplicity           Mult            ....    1
 Number of Electrons    NEL             ....   18
 Basis Dimension        Dim             ....  172

ORBITAL ENERGIES
----------------

  NO   OCC          E(Eh)            E(eV)
   0   2.0000     -19.235805      -523.4329
   1   2.0000     -10.301509      -280.3183
   2   2.0000      -1.163857       -31.6702
   3   2.0000      -0.796989       -21.6872
   4   2.0000      -0.635360       -17.2890
   5   2.0000      -0.547932       -14.9100
   6   2.0000      -0.535289       -14.5660
   7   2.0000      -0.425194       -11.5701
   8   2.0000      -0.371239       -10.1019
   9   0.0000       0.077194         2.1006
  10   0.0000       0.111345         3.0299
  11   0.0000       0.151165         4.1134
  12   0.0000       0.172307         4.6887
  13   0.0000       0.192622         5.2415

MULLIKEN ATOMIC CHARGES
-----------------------
   0 C :   -0.000021
   1 O :   -0.000029
   2 H :   -0.000032
   3 H :    0.000001
   4 H :    0.000000
   5 H :    0.000000
   6 C :   -0.153111
   7 O :   -0.452418
   8 H :    0.319135
   9 H :    0.108189
  10 H :    0.089961
  11 H :    0.088322
Sum of atomic charges:   -0.0000000

LOEWDIN ATOMIC CHARGES
----------------------
   0 C :   -0.000008
   1 O :   -0.000108
   2 H :   -0.000076
   3 H :   -0.000000
   4 H :   -0.000000
   5 H :   -0.000000
   6 C :   -0.462852
   7 O :   -0.007846
   8 H :    0.184558
   9 H :    0.111545
  10 H :    0.087242
  11 H :    0.087546

  Mayer bond orders larger than 0.1
B(  6-C ,  7-O ) :   1.0245 B(  6-C ,  9-H ) :   0.9757 B(  6-C , 10-H ) :   0.9767
B(  6-C , 11-H ) :   0.9709 B(  7-O ,  8-H ) :   0.8914

Dispersion correction           -0.000231216
FINAL SINGLE POINT ENERGY      -115.729252499457

DIPOLE MOMENT
-------------
                                X             Y             Z
Electronic contribution:      0.66743       1.59490       1.00623
Nuclear contribution   :     -0.53114      -1.58107      -1.62914
                        -----------------------------------------
Total Dipole Moment    :      0.13629       0.01383      -0.62291
                        -----------------------------------------
Magnitude (a.u.)       :      0.63779
Magnitude (Debye)      :      1.62114

Rotational constants in cm-1:     4.567823     0.902926     0.864489
Rotational constants in MHz : 136939.877931 27069.032904 25916.736739

                             ****ORCA TERMINATED NORMALLY****
TOTAL RUN TIME: 0 days 0 hours 0 minutes 41 seconds 689 msec
