                         Program Version 4.1.2  - RELEASE  -
|  1> #Run DFT-D3 single point of the dimer
|  2> ! wB97X-D3 def2-TZVP TIGHTSCF CHELPG PMODEL PAL8
|  3>
|  4> %base "9-46_DFT_AB"
|  5>
|  6> %scf
|  7> MaxIter 1000
|  8> end
|  9>
| 10> * xyz 0 1
| 11>   C                      -2.321207            -5.271564            -0.117392
| 12>   O                      -1.699948            -4.236620            -0.812064
| 13>   H                      -1.067507            -3.804357            -0.260356
| 14>   H                      -3.067091            -5.682834            -0.736439
| 15>   H                      -1.643910            -6.077927            0.202816
| 16>   H                      -2.851049            -4.806668            0.717258
| 17>   C                      -4.128590            -1.843765            1.724450
| 18>   O                      -5.434455            -2.257634            1.790054
| 19>   H                      -5.983453            -1.607229            1.349417
| 20>   H                      -3.976567            -0.840677            2.180190
| 21>   H                      -3.509313            -2.598963            2.167333
| 22>   H                      -3.743851            -1.804597            0.667647
| 23> *
| 24>
| 25> #Run DFT-D3 single point of the molecule with dimer basis set
| 26> $new_job
| 27> %base "9-46_DFT_A"
| 28> ! wB97X-D3 def2-TZVP TIGHTSCF CHELPG PMODEL
| 29>
| 30> %scf
| 31> MaxIter 1000
| 32> end
| 33>
| 34> * xyz 0 1
| 35>   C                      -2.321207            -5.271564            -0.117392
| 36>   O                      -1.699948            -4.236620            -0.812064
| 37>   H                      -1.067507            -3.804357            -0.260356
| 38>   H                      -3.067091            -5.682834            -0.736439
| 39>   H                      -1.643910            -6.077927            0.202816
| 40>   H                      -2.851049            -4.806668            0.717258
| 41>   C                    : -4.128590            -1.843765            1.724450
| 42>   O                    : -5.434455            -2.257634            1.790054
| 43>   H                    : -5.983453            -1.607229            1.349417
| 44>   H                    : -3.976567            -0.840677            2.180190
| 45>   H                    : -3.509313            -2.598963            2.167333
| 46>   H                    : -3.743851            -1.804597            0.667647
| 47> *
| 48>
| 49> #Run DFT-D3 single point of the particle with dimer basis set
| 50> $new_job
| 51> %base "9-46_DFT_B"
| 52> ! wB97X-D3 def2-TZVP TIGHTSCF CHELPG PMODEL
| 53>
| 54> %scf
| 55> MaxIter 1000
| 56> end
| 57>
| 58> * xyz 0 1
| 59>   C                    : -2.321207            -5.271564            -0.117392
| 60>   O                    : -1.699948            -4.236620            -0.812064
| 61>   H                    : -1.067507            -3.804357            -0.260356
| 62>   H                    : -3.067091            -5.682834            -0.736439
| 63>   H                    : -1.643910            -6.077927            0.202816
| 64>   H                    : -2.851049            -4.806668            0.717258
| 65>   C                      -4.128590            -1.843765            1.724450
| 66>   O                      -5.434455            -2.257634            1.790054
| 67>   H                      -5.983453            -1.607229            1.349417
| 68>   H                      -3.976567            -0.840677            2.180190
| 69>   H                      -3.509313            -2.598963            2.167333
| 70>   H                      -3.743851            -1.804597            0.667647
| 71> *
| 72>
| 73>                          ****END OF INPUT****
 Total Charge           Charge          ....    0
 Multiplicity           Mult            ....    1
 Number of Electrons    NEL             ....   36
Dispersion correction           -0.001391793
FINAL SINGLE POINT ENERGY      -231.470655056558
Dispersion correction           -0.000224301
FINAL SINGLE POINT ENERGY      -115.734713232005

CARTESIAN COORDINATES (ANGSTROEM)
---------------------------------
  C     -2.321207   -5.271564   -0.117392
  O     -1.699948   -4.236620   -0.812064
  H     -1.067507   -3.804357   -0.260356
  H     -3.067091   -5.682834   -0.736439
  H     -1.643910   -6.077927    0.202816
  H     -2.851049   -4.806668    0.717258
  C     -4.128590   -1.843765    1.724450
  O     -5.434455   -2.257634    1.790054
  H     -5.983453   -1.607229    1.349417
  H     -3.976567   -0.840677    2.180190
  H     -3.509313   -2.598963    2.167333
  H     -3.743851   -1.804597    0.667647

 Multiplicity           Mult            ....    1
 Number of Electrons    NEL             ....   18
 Basis Dimension        Dim             ....  172

ORBITAL ENERGIES
----------------

  NO   OCC          E(Eh)            E(eV)
   0   2.0000     -19.230628      -523.2920
   1   2.0000     -10.311962      -280.6028
   2   2.0000      -1.150796       -31.3148
   3   2.0000      -0.793069       -21.5805
   4   2.0000      -0.618184       -16.8216
   5   2.0000      -0.547169       -14.8892
   6   2.0000      -0.530895       -14.4464
   7   2.0000      -0.431207       -11.7337
   8   2.0000      -0.370381       -10.0786
   9   0.0000       0.087240         2.3739
  10   0.0000       0.118725         3.2307
  11   0.0000       0.151433         4.1207
  12   0.0000       0.173786         4.7290
  13   0.0000       0.187179         5.0934

MULLIKEN ATOMIC CHARGES
-----------------------
   0 C :   -0.000391
   1 O :   -0.000065
   2 H :   -0.000234
   3 H :   -0.000099
   4 H :    0.000068
   5 H :    0.000966
   6 C :   -0.158935
   7 O :   -0.465763
   8 H :    0.316079
   9 H :    0.099543
  10 H :    0.119927
  11 H :    0.088904
Sum of atomic charges:   -0.0000000

LOEWDIN ATOMIC CHARGES
----------------------
   0 C :   -0.000835
   1 O :   -0.000283
   2 H :   -0.000307
   3 H :   -0.000014
   4 H :   -0.000001
   5 H :   -0.001279
   6 C :   -0.422521
   7 O :   -0.043025
   8 H :    0.171462
   9 H :    0.095802
  10 H :    0.104724
  11 H :    0.096278

  Mayer bond orders larger than 0.1
B(  6-C ,  7-O ) :   1.0062 B(  6-C ,  9-H ) :   0.9752 B(  6-C , 10-H ) :   0.9726
B(  6-C , 11-H ) :   0.9762 B(  7-O ,  8-H ) :   0.8975

Dispersion correction           -0.000228498
FINAL SINGLE POINT ENERGY      -115.734853910214

DIPOLE MOMENT
-------------
                                X             Y             Z
Electronic contribution:     -1.73516      -0.65820       0.26108
Nuclear contribution   :      1.86443       1.20160      -0.55949
                        -----------------------------------------
Total Dipole Moment    :      0.12928       0.54340      -0.29841
                        -----------------------------------------
Magnitude (a.u.)       :      0.63328
Magnitude (Debye)      :      1.60967

Rotational constants in cm-1:     4.258507     0.869435     0.839259
Rotational constants in MHz : 127666.818338 26064.991745 25160.360997

                             ****ORCA TERMINATED NORMALLY****
TOTAL RUN TIME: 0 days 0 hours 0 minutes 42 seconds 834 msec
