                         Program Version 4.1.2  - RELEASE  -
|  1> #Run DFT-D3 single point of the dimer
|  2> ! wB97X-D3 def2-TZVP TIGHTSCF CHELPG PMODEL PAL8
|  3>
|  4> %base "15-191_DFT_AB"
|  5>
|  6> %scf
|  7> MaxIter 1000
|  8> end
|  9>
| 10> * xyz 0 1
| 11>   C                      8.331592             -10.375895           7.139008
| 12>   O                      9.315102             -9.774001            7.995911
| 13>   H                      9.211891             -10.272395           8.836633
| 14>   H                      8.098170             -11.440791           7.513701
| 15>   H                      7.334259             -9.862406            7.103293
| 16>   H                      8.752768             -10.471660           6.149352
| 17>   C                      10.292531            -9.975359            11.210057
| 18>   O                      9.652182             -11.079391           10.534619
| 19>   H                      9.772750             -11.838116           11.103862
| 20>   H                      10.268027            -9.067556            10.587058
| 21>   H                      9.831534             -9.781558            12.131497
| 22>   H                      11.306644            -10.123513           11.395245
| 23> *
| 24>
| 25> #Run DFT-D3 single point of the molecule with dimer basis set
| 26> $new_job
| 27> %base "15-191_DFT_A"
| 28> ! wB97X-D3 def2-TZVP TIGHTSCF CHELPG PMODEL
| 29>
| 30> %scf
| 31> MaxIter 1000
| 32> end
| 33>
| 34> * xyz 0 1
| 35>   C                      8.331592             -10.375895           7.139008
| 36>   O                      9.315102             -9.774001            7.995911
| 37>   H                      9.211891             -10.272395           8.836633
| 38>   H                      8.098170             -11.440791           7.513701
| 39>   H                      7.334259             -9.862406            7.103293
| 40>   H                      8.752768             -10.471660           6.149352
| 41>   C                    : 10.292531            -9.975359            11.210057
| 42>   O                    : 9.652182             -11.079391           10.534619
| 43>   H                    : 9.772750             -11.838116           11.103862
| 44>   H                    : 10.268027            -9.067556            10.587058
| 45>   H                    : 9.831534             -9.781558            12.131497
| 46>   H                    : 11.306644            -10.123513           11.395245
| 47> *
| 48>
| 49> #Run DFT-D3 single point of the particle with dimer basis set
| 50> $new_job
| 51> %base "15-191_DFT_B"
| 52> ! wB97X-D3 def2-TZVP TIGHTSCF CHELPG PMODEL
| 53>
| 54> %scf
| 55> MaxIter 1000
| 56> end
| 57>
| 58> * xyz 0 1
| 59>   C                    : 8.331592             -10.375895           7.139008
| 60>   O                    : 9.315102             -9.774001            7.995911
| 61>   H                    : 9.211891             -10.272395           8.836633
| 62>   H                    : 8.098170             -11.440791           7.513701
| 63>   H                    : 7.334259             -9.862406            7.103293
| 64>   H                    : 8.752768             -10.471660           6.149352
| 65>   C                      10.292531            -9.975359            11.210057
| 66>   O                      9.652182             -11.079391           10.534619
| 67>   H                      9.772750             -11.838116           11.103862
| 68>   H                      10.268027            -9.067556            10.587058
| 69>   H                      9.831534             -9.781558            12.131497
| 70>   H                      11.306644            -10.123513           11.395245
| 71> *
| 72>
| 73>                          ****END OF INPUT****
 Total Charge           Charge          ....    0
 Multiplicity           Mult            ....    1
 Number of Electrons    NEL             ....   36
Dispersion correction           -0.001702489
FINAL SINGLE POINT ENERGY      -231.472625494878
Dispersion correction           -0.000260365
FINAL SINGLE POINT ENERGY      -115.731593120457

CARTESIAN COORDINATES (ANGSTROEM)
---------------------------------
  C      8.331592  -10.375895    7.139008
  O      9.315102   -9.774001    7.995911
  H      9.211891  -10.272395    8.836633
  H      8.098170  -11.440791    7.513701
  H      7.334259   -9.862406    7.103293
  H      8.752768  -10.471660    6.149352
  C     10.292531   -9.975359   11.210057
  O      9.652182  -11.079391   10.534619
  H      9.772750  -11.838116   11.103862
  H     10.268027   -9.067556   10.587058
  H      9.831534   -9.781558   12.131497
  H     11.306644  -10.123513   11.395245

 Multiplicity           Mult            ....    1
 Number of Electrons    NEL             ....   18
 Basis Dimension        Dim             ....  172

ORBITAL ENERGIES
----------------

  NO   OCC          E(Eh)            E(eV)
   0   2.0000     -19.230491      -523.2883
   1   2.0000     -10.305389      -280.4239
   2   2.0000      -1.128990       -30.7214
   3   2.0000      -0.804918       -21.9029
   4   2.0000      -0.608533       -16.5590
   5   2.0000      -0.547722       -14.9043
   6   2.0000      -0.521387       -14.1877
   7   2.0000      -0.439591       -11.9619
   8   2.0000      -0.377208       -10.2643
   9   0.0000       0.101551         2.7633
  10   0.0000       0.123675         3.3654
  11   0.0000       0.151780         4.1301
  12   0.0000       0.186187         5.0664
  13   0.0000       0.208904         5.6846

MULLIKEN ATOMIC CHARGES
-----------------------
   0 C :    0.001021
   1 O :    0.000021
   2 H :   -0.006457
   3 H :   -0.001712
   4 H :   -0.000081
   5 H :   -0.000027
   6 C :   -0.165363
   7 O :   -0.465129
   8 H :    0.303881
   9 H :    0.117788
  10 H :    0.107382
  11 H :    0.108675
Sum of atomic charges:   -0.0000000

LOEWDIN ATOMIC CHARGES
----------------------
   0 C :   -0.001781
   1 O :   -0.004521
   2 H :   -0.036122
   3 H :   -0.000755
   4 H :   -0.000014
   5 H :   -0.000011
   6 C :   -0.346501
   7 O :   -0.061109
   8 H :    0.163258
   9 H :    0.114789
  10 H :    0.087548
  11 H :    0.085219

  Mayer bond orders larger than 0.1
B(  6-C ,  7-O ) :   0.9877 B(  6-C ,  9-H ) :   0.9801 B(  6-C , 10-H ) :   0.9782
B(  6-C , 11-H ) :   0.9735 B(  7-O ,  8-H ) :   0.9042

Dispersion correction           -0.000235899
FINAL SINGLE POINT ENERGY      -115.732658632487

DIPOLE MOMENT
-------------
                                X             Y             Z
Electronic contribution:     -0.83916      -1.32694      -0.91333
Nuclear contribution   :      1.20237       1.31521       1.56998
                        -----------------------------------------
Total Dipole Moment    :      0.36321      -0.01172       0.65666
                        -----------------------------------------
Magnitude (a.u.)       :      0.75050
Magnitude (Debye)      :      1.90763

Rotational constants in cm-1:     4.530155     0.809062     0.776807
Rotational constants in MHz : 135810.621851 24255.071444 23288.091450

                             ****ORCA TERMINATED NORMALLY****
TOTAL RUN TIME: 0 days 0 hours 1 minutes 7 seconds 488 msec
