                         Program Version 4.1.2  - RELEASE  -
|  1> #Run DFT-D3 single point of the dimer
|  2> ! wB97X-D3 def2-TZVP TIGHTSCF CHELPG PMODEL PAL8
|  3>
|  4> %base "16-169_DFT_AB"
|  5>
|  6> %scf
|  7> MaxIter 1000
|  8> end
|  9>
| 10> * xyz 0 1
| 11>   C                      0.088638             -8.580864            3.565834
| 12>   O                      -0.416962            -9.781214            4.042133
| 13>   H                      0.283125             -10.405969           4.167854
| 14>   H                      0.607699             -8.089374            4.431848
| 15>   H                      0.832034             -8.764775            2.845523
| 16>   H                      -0.634273            -7.836461            3.171717
| 17>   C                      -3.362429            -10.624010           2.447087
| 18>   O                      -2.114326            -10.397029           1.861967
| 19>   H                      -1.490704            -10.338248           2.606622
| 20>   H                      -3.628185            -9.688720            2.997938
| 21>   H                      -4.220479            -10.901537           1.786681
| 22>   H                      -3.388705            -11.407834           3.232924
| 23> *
| 24>
| 25> #Run DFT-D3 single point of the molecule with dimer basis set
| 26> $new_job
| 27> %base "16-169_DFT_A"
| 28> ! wB97X-D3 def2-TZVP TIGHTSCF CHELPG PMODEL
| 29>
| 30> %scf
| 31> MaxIter 1000
| 32> end
| 33>
| 34> * xyz 0 1
| 35>   C                      0.088638             -8.580864            3.565834
| 36>   O                      -0.416962            -9.781214            4.042133
| 37>   H                      0.283125             -10.405969           4.167854
| 38>   H                      0.607699             -8.089374            4.431848
| 39>   H                      0.832034             -8.764775            2.845523
| 40>   H                      -0.634273            -7.836461            3.171717
| 41>   C                    : -3.362429            -10.624010           2.447087
| 42>   O                    : -2.114326            -10.397029           1.861967
| 43>   H                    : -1.490704            -10.338248           2.606622
| 44>   H                    : -3.628185            -9.688720            2.997938
| 45>   H                    : -4.220479            -10.901537           1.786681
| 46>   H                    : -3.388705            -11.407834           3.232924
| 47> *
| 48>
| 49> #Run DFT-D3 single point of the particle with dimer basis set
| 50> $new_job
| 51> %base "16-169_DFT_B"
| 52> ! wB97X-D3 def2-TZVP TIGHTSCF CHELPG PMODEL
| 53>
| 54> %scf
| 55> MaxIter 1000
| 56> end
| 57>
| 58> * xyz 0 1
| 59>   C                    : 0.088638             -8.580864            3.565834
| 60>   O                    : -0.416962            -9.781214            4.042133
| 61>   H                    : 0.283125             -10.405969           4.167854
| 62>   H                    : 0.607699             -8.089374            4.431848
| 63>   H                    : 0.832034             -8.764775            2.845523
| 64>   H                    : -0.634273            -7.836461            3.171717
| 65>   C                      -3.362429            -10.624010           2.447087
| 66>   O                      -2.114326            -10.397029           1.861967
| 67>   H                      -1.490704            -10.338248           2.606622
| 68>   H                      -3.628185            -9.688720            2.997938
| 69>   H                      -4.220479            -10.901537           1.786681
| 70>   H                      -3.388705            -11.407834           3.232924
| 71> *
| 72>
| 73>                          ****END OF INPUT****
 Total Charge           Charge          ....    0
 Multiplicity           Mult            ....    1
 Number of Electrons    NEL             ....   36
Dispersion correction           -0.001920985
FINAL SINGLE POINT ENERGY      -231.471155425345
Dispersion correction           -0.000221305
FINAL SINGLE POINT ENERGY      -115.730828156071

CARTESIAN COORDINATES (ANGSTROEM)
---------------------------------
  C      0.088638   -8.580864    3.565834
  O     -0.416962   -9.781214    4.042133
  H      0.283125  -10.405969    4.167854
  H      0.607699   -8.089374    4.431848
  H      0.832034   -8.764775    2.845523
  H     -0.634273   -7.836461    3.171717
  C     -3.362429  -10.624010    2.447087
  O     -2.114326  -10.397029    1.861967
  H     -1.490704  -10.338248    2.606622
  H     -3.628185   -9.688720    2.997938
  H     -4.220479  -10.901537    1.786681
  H     -3.388705  -11.407834    3.232924

 Multiplicity           Mult            ....    1
 Number of Electrons    NEL             ....   18
 Basis Dimension        Dim             ....  172

ORBITAL ENERGIES
----------------

  NO   OCC          E(Eh)            E(eV)
   0   2.0000     -19.236933      -523.4636
   1   2.0000     -10.319629      -280.8114
   2   2.0000      -1.144120       -31.1331
   3   2.0000      -0.789620       -21.4867
   4   2.0000      -0.614792       -16.7293
   5   2.0000      -0.542697       -14.7675
   6   2.0000      -0.527977       -14.3670
   7   2.0000      -0.434182       -11.8147
   8   2.0000      -0.370774       -10.0893
   9   0.0000       0.069911         1.9024
  10   0.0000       0.132157         3.5962
  11   0.0000       0.148166         4.0318
  12   0.0000       0.164319         4.4714
  13   0.0000       0.190876         5.1940

MULLIKEN ATOMIC CHARGES
-----------------------
   0 C :   -0.006209
   1 O :   -0.003359
   2 H :   -0.000720
   3 H :   -0.000216
   4 H :    0.000754
   5 H :   -0.001076
   6 C :   -0.186803
   7 O :   -0.451376
   8 H :    0.319656
   9 H :    0.101169
  10 H :    0.126485
  11 H :    0.101695
Sum of atomic charges:   -0.0000000

LOEWDIN ATOMIC CHARGES
----------------------
   0 C :   -0.011257
   1 O :   -0.021409
   2 H :   -0.001956
   3 H :   -0.000190
   4 H :   -0.000436
   5 H :   -0.001647
   6 C :   -0.414165
   7 O :   -0.051108
   8 H :    0.195931
   9 H :    0.098427
  10 H :    0.113246
  11 H :    0.094562

  Mayer bond orders larger than 0.1
B(  6-C ,  7-O ) :   0.9978 B(  6-C ,  9-H ) :   0.9807 B(  6-C , 10-H ) :   0.9679
B(  6-C , 11-H ) :   0.9767 B(  7-O ,  8-H ) :   0.9004

Dispersion correction           -0.000238368
FINAL SINGLE POINT ENERGY      -115.730945110953

DIPOLE MOMENT
-------------
                                X             Y             Z
Electronic contribution:      1.64344       0.22577      -1.10221
Nuclear contribution   :     -1.73792      -0.29273       1.77713
                        -----------------------------------------
Total Dipole Moment    :     -0.09449      -0.06696       0.67492
                        -----------------------------------------
Magnitude (a.u.)       :      0.68478
Magnitude (Debye)      :      1.74058

Rotational constants in cm-1:     4.272663     0.836564     0.803119
Rotational constants in MHz : 128091.205429 25079.565162 24076.908954

                             ****ORCA TERMINATED NORMALLY****
TOTAL RUN TIME: 0 days 0 hours 1 minutes 6 seconds 158 msec
