                         Program Version 4.1.2  - RELEASE  -
|  1> #Run DFT-D3 single point of the dimer
|  2> ! wB97X-D3 def2-TZVP TIGHTSCF CHELPG PMODEL PAL8
|  3>
|  4> %base "14-126_DFT_AB"
|  5>
|  6> %scf
|  7> MaxIter 1000
|  8> end
|  9>
| 10> * xyz 0 1
| 11>   C                      -4.769766            -3.580536            9.570225
| 12>   O                      -4.512011            -2.670247            8.537336
| 13>   H                      -4.507633            -1.874928            9.074293
| 14>   H                      -4.004359            -3.378747            10.345685
| 15>   H                      -5.746053            -3.566870            10.002338
| 16>   H                      -4.559165            -4.618552            9.236661
| 17>   C                      -6.458469            -3.853157            5.668756
| 18>   O                      -5.954118            -2.567601            5.797055
| 19>   H                      -5.596299            -2.542622            6.664527
| 20>   H                      -5.718393            -4.654806            5.507057
| 21>   H                      -7.068729            -4.054793            6.565655
| 22>   H                      -7.142532            -3.924927            4.806965
| 23> *
| 24>
| 25> #Run DFT-D3 single point of the molecule with dimer basis set
| 26> $new_job
| 27> %base "14-126_DFT_A"
| 28> ! wB97X-D3 def2-TZVP TIGHTSCF CHELPG PMODEL
| 29>
| 30> %scf
| 31> MaxIter 1000
| 32> end
| 33>
| 34> * xyz 0 1
| 35>   C                      -4.769766            -3.580536            9.570225
| 36>   O                      -4.512011            -2.670247            8.537336
| 37>   H                      -4.507633            -1.874928            9.074293
| 38>   H                      -4.004359            -3.378747            10.345685
| 39>   H                      -5.746053            -3.566870            10.002338
| 40>   H                      -4.559165            -4.618552            9.236661
| 41>   C                    : -6.458469            -3.853157            5.668756
| 42>   O                    : -5.954118            -2.567601            5.797055
| 43>   H                    : -5.596299            -2.542622            6.664527
| 44>   H                    : -5.718393            -4.654806            5.507057
| 45>   H                    : -7.068729            -4.054793            6.565655
| 46>   H                    : -7.142532            -3.924927            4.806965
| 47> *
| 48>
| 49> #Run DFT-D3 single point of the particle with dimer basis set
| 50> $new_job
| 51> %base "14-126_DFT_B"
| 52> ! wB97X-D3 def2-TZVP TIGHTSCF CHELPG PMODEL
| 53>
| 54> %scf
| 55> MaxIter 1000
| 56> end
| 57>
| 58> * xyz 0 1
| 59>   C                    : -4.769766            -3.580536            9.570225
| 60>   O                    : -4.512011            -2.670247            8.537336
| 61>   H                    : -4.507633            -1.874928            9.074293
| 62>   H                    : -4.004359            -3.378747            10.345685
| 63>   H                    : -5.746053            -3.566870            10.002338
| 64>   H                    : -4.559165            -4.618552            9.236661
| 65>   C                      -6.458469            -3.853157            5.668756
| 66>   O                      -5.954118            -2.567601            5.797055
| 67>   H                      -5.596299            -2.542622            6.664527
| 68>   H                      -5.718393            -4.654806            5.507057
| 69>   H                      -7.068729            -4.054793            6.565655
| 70>   H                      -7.142532            -3.924927            4.806965
| 71> *
| 72>
| 73>                          ****END OF INPUT****
 Total Charge           Charge          ....    0
 Multiplicity           Mult            ....    1
 Number of Electrons    NEL             ....   36
Dispersion correction           -0.001668735
FINAL SINGLE POINT ENERGY      -231.472382267632
Dispersion correction           -0.000208334
FINAL SINGLE POINT ENERGY      -115.730566613664

CARTESIAN COORDINATES (ANGSTROEM)
---------------------------------
  C     -4.769766   -3.580536    9.570225
  O     -4.512011   -2.670247    8.537336
  H     -4.507633   -1.874928    9.074293
  H     -4.004359   -3.378747   10.345685
  H     -5.746053   -3.566870   10.002338
  H     -4.559165   -4.618552    9.236661
  C     -6.458469   -3.853157    5.668756
  O     -5.954118   -2.567601    5.797055
  H     -5.596299   -2.542622    6.664527
  H     -5.718393   -4.654806    5.507057
  H     -7.068729   -4.054793    6.565655
  H     -7.142532   -3.924927    4.806965

 Multiplicity           Mult            ....    1
 Number of Electrons    NEL             ....   18
 Basis Dimension        Dim             ....  172

ORBITAL ENERGIES
----------------

  NO   OCC          E(Eh)            E(eV)
   0   2.0000     -19.230854      -523.2981
   1   2.0000     -10.314030      -280.6590
   2   2.0000      -1.153098       -31.3774
   3   2.0000      -0.793094       -21.5812
   4   2.0000      -0.616770       -16.7832
   5   2.0000      -0.549060       -14.9407
   6   2.0000      -0.531233       -14.4556
   7   2.0000      -0.432026       -11.7560
   8   2.0000      -0.375080       -10.2064
   9   0.0000       0.067363         1.8330
  10   0.0000       0.134095         3.6489
  11   0.0000       0.141688         3.8555
  12   0.0000       0.177125         4.8198
  13   0.0000       0.179132         4.8744

MULLIKEN ATOMIC CHARGES
-----------------------
   0 C :   -0.000903
   1 O :   -0.001757
   2 H :   -0.000173
   3 H :    0.000009
   4 H :   -0.000053
   5 H :   -0.000028
   6 C :   -0.165998
   7 O :   -0.455272
   8 H :    0.310517
   9 H :    0.096488
  10 H :    0.100559
  11 H :    0.116611
Sum of atomic charges:   -0.0000000

LOEWDIN ATOMIC CHARGES
----------------------
   0 C :   -0.001853
   1 O :   -0.010879
   2 H :   -0.000792
   3 H :   -0.000042
   4 H :   -0.000084
   5 H :   -0.000094
   6 C :   -0.410751
   7 O :   -0.039143
   8 H :    0.162927
   9 H :    0.093883
  10 H :    0.098041
  11 H :    0.108785

  Mayer bond orders larger than 0.1
B(  6-C ,  7-O ) :   0.9964 B(  6-C ,  9-H ) :   0.9660 B(  6-C , 10-H ) :   0.9886
B(  6-C , 11-H ) :   0.9758 B(  7-O ,  8-H ) :   0.9132

Dispersion correction           -0.000224890
FINAL SINGLE POINT ENERGY      -115.734175870739

DIPOLE MOMENT
-------------
                                X             Y             Z
Electronic contribution:      0.70921       1.75213       0.02041
Nuclear contribution   :     -0.68892      -2.20631       0.47297
                        -----------------------------------------
Total Dipole Moment    :      0.02030      -0.45418       0.49338
                        -----------------------------------------
Magnitude (a.u.)       :      0.67091
Magnitude (Debye)      :      1.70531

Rotational constants in cm-1:     4.290950     0.856956     0.829207
Rotational constants in MHz : 128639.438848 25690.893568 24859.007092

                             ****ORCA TERMINATED NORMALLY****
TOTAL RUN TIME: 0 days 0 hours 1 minutes 10 seconds 590 msec
