                         Program Version 4.1.2  - RELEASE  -
|  1> #Run DFT-D3 single point of the dimer
|  2> ! wB97X-D3 def2-TZVP TIGHTSCF CHELPG PMODEL PAL8
|  3>
|  4> %base "19-71_DFT_AB"
|  5>
|  6> %scf
|  7> MaxIter 1000
|  8> end
|  9>
| 10> * xyz 0 1
| 11>   C                      -0.575067            -10.156360           7.923037
| 12>   O                      0.034573             -8.867391            8.103202
| 13>   H                      0.063083             -8.534555            7.191090
| 14>   H                      -0.260916            -10.777409           8.756213
| 15>   H                      -1.647497            -10.080484           7.981376
| 16>   H                      -0.388357            -10.646817           7.019382
| 17>   C                      2.254314             -3.277744            9.060280
| 18>   O                      1.640389             -4.540750            8.796992
| 19>   H                      1.402713             -4.529007            7.885413
| 20>   H                      2.992467             -3.018373            8.293263
| 21>   H                      1.466970             -2.474905            9.159412
| 22>   H                      2.721805             -3.280190            10.014671
| 23> *
| 24>
| 25> #Run DFT-D3 single point of the molecule with dimer basis set
| 26> $new_job
| 27> %base "19-71_DFT_A"
| 28> ! wB97X-D3 def2-TZVP TIGHTSCF CHELPG PMODEL
| 29>
| 30> %scf
| 31> MaxIter 1000
| 32> end
| 33>
| 34> * xyz 0 1
| 35>   C                      -0.575067            -10.156360           7.923037
| 36>   O                      0.034573             -8.867391            8.103202
| 37>   H                      0.063083             -8.534555            7.191090
| 38>   H                      -0.260916            -10.777409           8.756213
| 39>   H                      -1.647497            -10.080484           7.981376
| 40>   H                      -0.388357            -10.646817           7.019382
| 41>   C                    : 2.254314             -3.277744            9.060280
| 42>   O                    : 1.640389             -4.540750            8.796992
| 43>   H                    : 1.402713             -4.529007            7.885413
| 44>   H                    : 2.992467             -3.018373            8.293263
| 45>   H                    : 1.466970             -2.474905            9.159412
| 46>   H                    : 2.721805             -3.280190            10.014671
| 47> *
| 48>
| 49> #Run DFT-D3 single point of the particle with dimer basis set
| 50> $new_job
| 51> %base "19-71_DFT_B"
| 52> ! wB97X-D3 def2-TZVP TIGHTSCF CHELPG PMODEL
| 53>
| 54> %scf
| 55> MaxIter 1000
| 56> end
| 57>
| 58> * xyz 0 1
| 59>   C                    : -0.575067            -10.156360           7.923037
| 60>   O                    : 0.034573             -8.867391            8.103202
| 61>   H                    : 0.063083             -8.534555            7.191090
| 62>   H                    : -0.260916            -10.777409           8.756213
| 63>   H                    : -1.647497            -10.080484           7.981376
| 64>   H                    : -0.388357            -10.646817           7.019382
| 65>   C                      2.254314             -3.277744            9.060280
| 66>   O                      1.640389             -4.540750            8.796992
| 67>   H                      1.402713             -4.529007            7.885413
| 68>   H                      2.992467             -3.018373            8.293263
| 69>   H                      1.466970             -2.474905            9.159412
| 70>   H                      2.721805             -3.280190            10.014671
| 71> *
| 72>
| 73>                          ****END OF INPUT****
 Total Charge           Charge          ....    0
 Multiplicity           Mult            ....    1
 Number of Electrons    NEL             ....   36
Dispersion correction           -0.000594584
FINAL SINGLE POINT ENERGY      -231.465929913904
Dispersion correction           -0.000234221
FINAL SINGLE POINT ENERGY      -115.732173910213

CARTESIAN COORDINATES (ANGSTROEM)
---------------------------------
  C     -0.575067  -10.156360    7.923037
  O      0.034573   -8.867391    8.103202
  H      0.063083   -8.534555    7.191090
  H     -0.260916  -10.777409    8.756213
  H     -1.647497  -10.080484    7.981376
  H     -0.388357  -10.646817    7.019382
  C      2.254314   -3.277744    9.060280
  O      1.640389   -4.540750    8.796992
  H      1.402713   -4.529007    7.885413
  H      2.992467   -3.018373    8.293263
  H      1.466970   -2.474905    9.159412
  H      2.721805   -3.280190   10.014671

 Multiplicity           Mult            ....    1
 Number of Electrons    NEL             ....   18
 Basis Dimension        Dim             ....  172

ORBITAL ENERGIES
----------------

  NO   OCC          E(Eh)            E(eV)
   0   2.0000     -19.228921      -523.2456
   1   2.0000     -10.315050      -280.6868
   2   2.0000      -1.136491       -30.9255
   3   2.0000      -0.797220       -21.6935
   4   2.0000      -0.607516       -16.5314
   5   2.0000      -0.540336       -14.7033
   6   2.0000      -0.529249       -14.4016
   7   2.0000      -0.437775       -11.9125
   8   2.0000      -0.373931       -10.1752
   9   0.0000       0.089574         2.4374
  10   0.0000       0.116221         3.1625
  11   0.0000       0.151497         4.1224
  12   0.0000       0.175019         4.7625
  13   0.0000       0.199689         5.4338

MULLIKEN ATOMIC CHARGES
-----------------------
   0 C :   -0.000009
   1 O :   -0.000030
   2 H :   -0.000056
   3 H :    0.000001
   4 H :    0.000000
   5 H :    0.000000
   6 C :   -0.169000
   7 O :   -0.471167
   8 H :    0.311406
   9 H :    0.107600
  10 H :    0.097198
  11 H :    0.124057
Sum of atomic charges:   -0.0000000

LOEWDIN ATOMIC CHARGES
----------------------
   0 C :   -0.000002
   1 O :   -0.000026
   2 H :   -0.000032
   3 H :   -0.000000
   4 H :   -0.000000
   5 H :   -0.000000
   6 C :   -0.374617
   7 O :   -0.079697
   8 H :    0.156512
   9 H :    0.096520
  10 H :    0.100578
  11 H :    0.100763

  Mayer bond orders larger than 0.1
B(  6-C ,  7-O ) :   1.0000 B(  6-C ,  9-H ) :   0.9764 B(  6-C , 10-H ) :   0.9759
B(  6-C , 11-H ) :   0.9744 B(  7-O ,  8-H ) :   0.9052

Dispersion correction           -0.000242124
FINAL SINGLE POINT ENERGY      -115.734826068420

DIPOLE MOMENT
-------------
                                X             Y             Z
Electronic contribution:     -0.67437      -1.69545      -0.21875
Nuclear contribution   :      0.79065       2.20028      -0.23676
                        -----------------------------------------
Total Dipole Moment    :      0.11628       0.50482      -0.45551
                        -----------------------------------------
Magnitude (a.u.)       :      0.68982
Magnitude (Debye)      :      1.75338

Rotational constants in cm-1:     4.293434     0.816930     0.793186
Rotational constants in MHz : 128713.917926 24490.950972 23779.106740

                             ****ORCA TERMINATED NORMALLY****
TOTAL RUN TIME: 0 days 0 hours 2 minutes 21 seconds 667 msec
