                         Program Version 4.1.2  - RELEASE  -
|  1> #Run DFT-D3 single point of the dimer
|  2> ! wB97X-D3 def2-TZVP TIGHTSCF CHELPG PMODEL PAL8
|  3>
|  4> %base "4-153_DFT_AB"
|  5>
|  6> %scf
|  7> MaxIter 1000
|  8> end
|  9>
| 10> * xyz 0 1
| 11>   C                      -6.028193            8.180333             -8.171106
| 12>   O                      -7.415356            8.188994             -8.329444
| 13>   H                      -7.623527            8.087600             -9.276900
| 14>   H                      -5.589405            7.195899             -8.463429
| 15>   H                      -5.616492            8.764085             -8.970565
| 16>   H                      -5.606030            8.585105             -7.252456
| 17>   C                      -10.835334           9.186292             -7.681424
| 18>   O                      -10.130879           10.371095            -7.244302
| 19>   H                      -9.624058            10.104972            -6.497386
| 20>   H                      -11.675717           8.966177             -7.009295
| 21>   H                      -11.234602           9.304891             -8.705979
| 22>   H                      -10.190799           8.304929             -7.679826
| 23> *
| 24>
| 25> #Run DFT-D3 single point of the molecule with dimer basis set
| 26> $new_job
| 27> %base "4-153_DFT_A"
| 28> ! wB97X-D3 def2-TZVP TIGHTSCF CHELPG PMODEL
| 29>
| 30> %scf
| 31> MaxIter 1000
| 32> end
| 33>
| 34> * xyz 0 1
| 35>   C                      -6.028193            8.180333             -8.171106
| 36>   O                      -7.415356            8.188994             -8.329444
| 37>   H                      -7.623527            8.087600             -9.276900
| 38>   H                      -5.589405            7.195899             -8.463429
| 39>   H                      -5.616492            8.764085             -8.970565
| 40>   H                      -5.606030            8.585105             -7.252456
| 41>   C                    : -10.835334           9.186292             -7.681424
| 42>   O                    : -10.130879           10.371095            -7.244302
| 43>   H                    : -9.624058            10.104972            -6.497386
| 44>   H                    : -11.675717           8.966177             -7.009295
| 45>   H                    : -11.234602           9.304891             -8.705979
| 46>   H                    : -10.190799           8.304929             -7.679826
| 47> *
| 48>
| 49> #Run DFT-D3 single point of the particle with dimer basis set
| 50> $new_job
| 51> %base "4-153_DFT_B"
| 52> ! wB97X-D3 def2-TZVP TIGHTSCF CHELPG PMODEL
| 53>
| 54> %scf
| 55> MaxIter 1000
| 56> end
| 57>
| 58> * xyz 0 1
| 59>   C                    : -6.028193            8.180333             -8.171106
| 60>   O                    : -7.415356            8.188994             -8.329444
| 61>   H                    : -7.623527            8.087600             -9.276900
| 62>   H                    : -5.589405            7.195899             -8.463429
| 63>   H                    : -5.616492            8.764085             -8.970565
| 64>   H                    : -5.606030            8.585105             -7.252456
| 65>   C                      -10.835334           9.186292             -7.681424
| 66>   O                      -10.130879           10.371095            -7.244302
| 67>   H                      -9.624058            10.104972            -6.497386
| 68>   H                      -11.675717           8.966177             -7.009295
| 69>   H                      -11.234602           9.304891             -8.705979
| 70>   H                      -10.190799           8.304929             -7.679826
| 71> *
| 72>
| 73>                          ****END OF INPUT****
 Total Charge           Charge          ....    0
 Multiplicity           Mult            ....    1
 Number of Electrons    NEL             ....   36
Dispersion correction           -0.001391281
FINAL SINGLE POINT ENERGY      -231.465374624709
Dispersion correction           -0.000225872
FINAL SINGLE POINT ENERGY      -115.728020939993

CARTESIAN COORDINATES (ANGSTROEM)
---------------------------------
  C     -6.028193    8.180333   -8.171106
  O     -7.415356    8.188994   -8.329444
  H     -7.623527    8.087600   -9.276900
  H     -5.589405    7.195899   -8.463429
  H     -5.616492    8.764085   -8.970565
  H     -5.606030    8.585105   -7.252456
  C    -10.835334    9.186292   -7.681424
  O    -10.130879   10.371095   -7.244302
  H     -9.624058   10.104972   -6.497386
  H    -11.675717    8.966177   -7.009295
  H    -11.234602    9.304891   -8.705979
  H    -10.190799    8.304929   -7.679826

 Multiplicity           Mult            ....    1
 Number of Electrons    NEL             ....   18
 Basis Dimension        Dim             ....  172

ORBITAL ENERGIES
----------------

  NO   OCC          E(Eh)            E(eV)
   0   2.0000     -19.229658      -523.2656
   1   2.0000     -10.317803      -280.7617
   2   2.0000      -1.132311       -30.8118
   3   2.0000      -0.796506       -21.6740
   4   2.0000      -0.607627       -16.5344
   5   2.0000      -0.537081       -14.6147
   6   2.0000      -0.524232       -14.2651
   7   2.0000      -0.439791       -11.9673
   8   2.0000      -0.375584       -10.2202
   9   0.0000       0.081164         2.2086
  10   0.0000       0.121105         3.2954
  11   0.0000       0.146266         3.9801
  12   0.0000       0.172880         4.7043
  13   0.0000       0.187664         5.1066

MULLIKEN ATOMIC CHARGES
-----------------------
   0 C :   -0.000455
   1 O :    0.000380
   2 H :    0.000007
   3 H :   -0.000009
   4 H :    0.000067
   5 H :    0.000026
   6 C :   -0.173590
   7 O :   -0.474299
   8 H :    0.310586
   9 H :    0.109527
  10 H :    0.121992
  11 H :    0.105768
Sum of atomic charges:   -0.0000000

LOEWDIN ATOMIC CHARGES
----------------------
   0 C :   -0.000296
   1 O :   -0.002025
   2 H :   -0.000525
   3 H :   -0.000009
   4 H :   -0.000004
   5 H :   -0.000014
   6 C :   -0.363550
   7 O :   -0.090014
   8 H :    0.154767
   9 H :    0.096123
  10 H :    0.111277
  11 H :    0.094270

  Mayer bond orders larger than 0.1
B(  6-C ,  7-O ) :   0.9931 B(  6-C ,  9-H ) :   0.9763 B(  6-C , 10-H ) :   0.9734
B(  6-C , 11-H ) :   0.9768 B(  7-O ,  8-H ) :   0.9060

Dispersion correction           -0.000248924
FINAL SINGLE POINT ENERGY      -115.735548846954

DIPOLE MOMENT
-------------
                                X             Y             Z
Electronic contribution:      0.84605       1.60088       0.42188
Nuclear contribution   :     -0.80974      -2.26390      -0.13289
                        -----------------------------------------
Total Dipole Moment    :      0.03632      -0.66302       0.28899
                        -----------------------------------------
Magnitude (a.u.)       :      0.72418
Magnitude (Debye)      :      1.84071

Rotational constants in cm-1:     4.298884     0.801603     0.772756
Rotational constants in MHz : 128877.296217 24031.467725 23166.627805

                             ****ORCA TERMINATED NORMALLY****
TOTAL RUN TIME: 0 days 0 hours 1 minutes 35 seconds 389 msec
