                         Program Version 4.1.2  - RELEASE  -
|  1> #Run DFT-D3 single point of the dimer
|  2> ! wB97X-D3 def2-TZVP TIGHTSCF CHELPG PMODEL PAL8
|  3>
|  4> %base "21-207_DFT_AB"
|  5>
|  6> %scf
|  7> MaxIter 1000
|  8> end
|  9>
| 10> * xyz 0 1
| 11>   C                      -6.433659            -7.688560            -2.264360
| 12>   O                      -7.821233            -7.958168            -2.522958
| 13>   H                      -8.350406            -7.525737            -1.852029
| 14>   H                      -5.984123            -8.200384            -1.403321
| 15>   H                      -5.834364            -7.884514            -3.193238
| 16>   H                      -6.276113            -6.608584            -2.092495
| 17>   C                      -8.070406            -4.503512            0.294764
| 18>   O                      -8.673569            -5.587107            -0.386314
| 19>   H                      -9.563237            -5.630320            -0.002070
| 20>   H                      -7.873048            -4.860077            1.333254
| 21>   H                      -7.174208            -4.111271            -0.251197
| 22>   H                      -8.697759            -3.599668            0.320643
| 23> *
| 24>
| 25> #Run DFT-D3 single point of the molecule with dimer basis set
| 26> $new_job
| 27> %base "21-207_DFT_A"
| 28> ! wB97X-D3 def2-TZVP TIGHTSCF CHELPG PMODEL
| 29>
| 30> %scf
| 31> MaxIter 1000
| 32> end
| 33>
| 34> * xyz 0 1
| 35>   C                      -6.433659            -7.688560            -2.264360
| 36>   O                      -7.821233            -7.958168            -2.522958
| 37>   H                      -8.350406            -7.525737            -1.852029
| 38>   H                      -5.984123            -8.200384            -1.403321
| 39>   H                      -5.834364            -7.884514            -3.193238
| 40>   H                      -6.276113            -6.608584            -2.092495
| 41>   C                    : -8.070406            -4.503512            0.294764
| 42>   O                    : -8.673569            -5.587107            -0.386314
| 43>   H                    : -9.563237            -5.630320            -0.002070
| 44>   H                    : -7.873048            -4.860077            1.333254
| 45>   H                    : -7.174208            -4.111271            -0.251197
| 46>   H                    : -8.697759            -3.599668            0.320643
| 47> *
| 48>
| 49> #Run DFT-D3 single point of the particle with dimer basis set
| 50> $new_job
| 51> %base "21-207_DFT_B"
| 52> ! wB97X-D3 def2-TZVP TIGHTSCF CHELPG PMODEL
| 53>
| 54> %scf
| 55> MaxIter 1000
| 56> end
| 57>
| 58> * xyz 0 1
| 59>   C                    : -6.433659            -7.688560            -2.264360
| 60>   O                    : -7.821233            -7.958168            -2.522958
| 61>   H                    : -8.350406            -7.525737            -1.852029
| 62>   H                    : -5.984123            -8.200384            -1.403321
| 63>   H                    : -5.834364            -7.884514            -3.193238
| 64>   H                    : -6.276113            -6.608584            -2.092495
| 65>   C                      -8.070406            -4.503512            0.294764
| 66>   O                      -8.673569            -5.587107            -0.386314
| 67>   H                      -9.563237            -5.630320            -0.002070
| 68>   H                      -7.873048            -4.860077            1.333254
| 69>   H                      -7.174208            -4.111271            -0.251197
| 70>   H                      -8.697759            -3.599668            0.320643
| 71> *
| 72>
| 73>                          ****END OF INPUT****
 Total Charge           Charge          ....    0
 Multiplicity           Mult            ....    1
 Number of Electrons    NEL             ....   36
Dispersion correction           -0.001666490
FINAL SINGLE POINT ENERGY      -231.472512946889
Dispersion correction           -0.000267510
FINAL SINGLE POINT ENERGY      -115.734631804842

CARTESIAN COORDINATES (ANGSTROEM)
---------------------------------
  C     -6.433659   -7.688560   -2.264360
  O     -7.821233   -7.958168   -2.522958
  H     -8.350406   -7.525737   -1.852029
  H     -5.984123   -8.200384   -1.403321
  H     -5.834364   -7.884514   -3.193238
  H     -6.276113   -6.608584   -2.092495
  C     -8.070406   -4.503512    0.294764
  O     -8.673569   -5.587107   -0.386314
  H     -9.563237   -5.630320   -0.002070
  H     -7.873048   -4.860077    1.333254
  H     -7.174208   -4.111271   -0.251197
  H     -8.697759   -3.599668    0.320643

 Multiplicity           Mult            ....    1
 Number of Electrons    NEL             ....   18
 Basis Dimension        Dim             ....  172

ORBITAL ENERGIES
----------------

  NO   OCC          E(Eh)            E(eV)
   0   2.0000     -19.232650      -523.3470
   1   2.0000     -10.319212      -280.8000
   2   2.0000      -1.137761       -30.9601
   3   2.0000      -0.788475       -21.4555
   4   2.0000      -0.607133       -16.5209
   5   2.0000      -0.551154       -14.9977
   6   2.0000      -0.518300       -14.1037
   7   2.0000      -0.433336       -11.7917
   8   2.0000      -0.373730       -10.1697
   9   0.0000       0.098605         2.6832
  10   0.0000       0.122586         3.3357
  11   0.0000       0.150254         4.0886
  12   0.0000       0.188400         5.1266
  13   0.0000       0.194157         5.2833

MULLIKEN ATOMIC CHARGES
-----------------------
   0 C :    0.001382
   1 O :    0.000264
   2 H :   -0.006938
   3 H :   -0.000423
   4 H :   -0.000157
   5 H :   -0.001847
   6 C :   -0.172153
   7 O :   -0.457629
   8 H :    0.314166
   9 H :    0.102719
  10 H :    0.118257
  11 H :    0.102359
Sum of atomic charges:   -0.0000000

LOEWDIN ATOMIC CHARGES
----------------------
   0 C :   -0.003580
   1 O :   -0.001266
   2 H :   -0.013947
   3 H :   -0.000147
   4 H :   -0.000040
   5 H :   -0.001067
   6 C :   -0.396358
   7 O :   -0.069242
   8 H :    0.177690
   9 H :    0.100148
  10 H :    0.113278
  11 H :    0.094532

  Mayer bond orders larger than 0.1
B(  6-C ,  7-O ) :   0.9921 B(  6-C ,  9-H ) :   0.9801 B(  6-C , 10-H ) :   0.9715
B(  6-C , 11-H ) :   0.9705 B(  7-O ,  8-H ) :   0.8975

Dispersion correction           -0.000230642
FINAL SINGLE POINT ENERGY      -115.732412530212

DIPOLE MOMENT
-------------
                                X             Y             Z
Electronic contribution:     -0.61534      -1.44932      -0.96665
Nuclear contribution   :      0.28424       1.86888       1.45276
                        -----------------------------------------
Total Dipole Moment    :     -0.33109       0.41956       0.48611
                        -----------------------------------------
Magnitude (a.u.)       :      0.72247
Magnitude (Debye)      :      1.83636

Rotational constants in cm-1:     4.122814     0.830676     0.803650
Rotational constants in MHz : 123598.867113 24903.031238 24092.819378

                             ****ORCA TERMINATED NORMALLY****
TOTAL RUN TIME: 0 days 0 hours 1 minutes 2 seconds 957 msec
