                         Program Version 4.1.2  - RELEASE  -
|  1> #Run DFT-D3 single point of the dimer
|  2> ! wB97X-D3 def2-TZVP TIGHTSCF  CHELPG PAL8
|  3>
|  4> %base "123_charges"
|  5>
|  6> %scf
|  7> MaxIter 1000
|  8> end
|  9> %output
| 10>   Print[ P_Mayer ] 1
| 11>   Print[ P_NatPop ] 1
| 12>   Print[ P_Hirshfeld ] 1
| 13>   Print[ P_Mulliken ] 1
| 14>   Print [ P_Loewdin ] 1
| 15> end
| 16>
| 17> * xyz 0 1
| 18>   C                      -10.972910           -6.746238            -3.779420
| 19>   O                      -10.745204           -7.299983            -2.491039
| 20>   H                      -11.159433           -8.132070            -2.498805
| 21>   H                      -10.359412           -7.235195            -4.481685
| 22>   H                      -12.026014           -6.833219            -3.943103
| 23>   H                      -10.695739           -5.758827            -3.803580
| 24> *
| 25>
| 26>                          ****END OF INPUT****

CARTESIAN COORDINATES (ANGSTROEM)
---------------------------------
  C    -10.972910   -6.746238   -3.779420
  O    -10.745204   -7.299983   -2.491039
  H    -11.159433   -8.132070   -2.498805
  H    -10.359412   -7.235195   -4.481685
  H    -12.026014   -6.833219   -3.943103
  H    -10.695739   -5.758827   -3.803580

 Total Charge           Charge          ....    0
 Multiplicity           Mult            ....    1
 Number of Electrons    NEL             ....   18
 Basis Dimension        Dim             ....   86

ORBITAL ENERGIES
----------------

  NO   OCC          E(Eh)            E(eV)
   0   2.0000     -19.221206      -523.0356
   1   2.0000     -10.298395      -280.2336
   2   2.0000      -1.139006       -30.9939
   3   2.0000      -0.806664       -21.9505
   4   2.0000      -0.606863       -16.5136
   5   2.0000      -0.557752       -15.1772
   6   2.0000      -0.535754       -14.5786
   7   2.0000      -0.433938       -11.8081
   8   2.0000      -0.373450       -10.1621
   9   0.0000       0.119819         3.2604
  10   0.0000       0.163877         4.4593
  11   0.0000       0.206472         5.6184
  12   0.0000       0.214908         5.8480
  13   0.0000       0.221087         6.0161

MULLIKEN ATOMIC CHARGES
-----------------------
   0 C :   -0.151668
   1 O :   -0.478162
   2 H :    0.306396
   3 H :    0.100427
   4 H :    0.103152
   5 H :    0.119855
Sum of atomic charges:    0.0000000

LOEWDIN ATOMIC CHARGES
----------------------
   0 C :   -0.354197
   1 O :   -0.071695
   2 H :    0.147352
   3 H :    0.089288
   4 H :    0.095908
   5 H :    0.093344

  Mayer bond orders larger than 0.1
B(  0-C ,  1-O ) :   0.9914 B(  0-C ,  3-H ) :   0.9796 B(  0-C ,  4-H ) :   0.9913
B(  0-C ,  5-H ) :   0.9753 B(  1-O ,  2-H ) :   0.9107

Dispersion correction           -0.000198723
FINAL SINGLE POINT ENERGY      -115.729289158151

DIPOLE MOMENT
-------------
                                X             Y             Z
Electronic contribution:      0.35867      -0.51430       1.54236
Nuclear contribution   :     -0.71101       0.23485      -2.08452
                        -----------------------------------------
Total Dipole Moment    :     -0.35234      -0.27945      -0.54216
                        -----------------------------------------
Magnitude (a.u.)       :      0.70439
Magnitude (Debye)      :      1.79043

Rotational constants in cm-1:     4.524810     0.844207     0.820895
Rotational constants in MHz : 135650.383833 25308.698626 24609.800954

                             ****ORCA TERMINATED NORMALLY****
TOTAL RUN TIME: 0 days 0 hours 0 minutes 44 seconds 60 msec
