                         Program Version 4.1.2  - RELEASE  -
|  1> #Run DFT-D3 single point of the dimer
|  2> ! wB97X-D3 def2-TZVP TIGHTSCF CHELPG PMODEL PAL8
|  3>
|  4> %base "6-139_DFT_AB"
|  5>
|  6> %scf
|  7> MaxIter 1000
|  8> end
|  9>
| 10> * xyz 0 1
| 11>   C                      -4.761511            4.033597             0.644561
| 12>   O                      -5.840978            3.433233             0.049642
| 13>   H                      -5.492849            2.523633             0.104784
| 14>   H                      -3.783085            3.629081             0.423102
| 15>   H                      -4.640133            5.102742             0.387107
| 16>   H                      -4.887416            4.115966             1.738798
| 17>   C                      -8.631094            3.793204             1.147743
| 18>   O                      -9.560091            4.574115             0.548423
| 19>   H                      -10.277616           4.110504             0.056910
| 20>   H                      -8.356194            3.026795             0.470027
| 21>   H                      -7.659657            4.284827             1.296231
| 22>   H                      -9.035454            3.342602             2.044895
| 23> *
| 24>
| 25> #Run DFT-D3 single point of the molecule with dimer basis set
| 26> $new_job
| 27> %base "6-139_DFT_A"
| 28> ! wB97X-D3 def2-TZVP TIGHTSCF CHELPG PMODEL
| 29>
| 30> %scf
| 31> MaxIter 1000
| 32> end
| 33>
| 34> * xyz 0 1
| 35>   C                      -4.761511            4.033597             0.644561
| 36>   O                      -5.840978            3.433233             0.049642
| 37>   H                      -5.492849            2.523633             0.104784
| 38>   H                      -3.783085            3.629081             0.423102
| 39>   H                      -4.640133            5.102742             0.387107
| 40>   H                      -4.887416            4.115966             1.738798
| 41>   C                    : -8.631094            3.793204             1.147743
| 42>   O                    : -9.560091            4.574115             0.548423
| 43>   H                    : -10.277616           4.110504             0.056910
| 44>   H                    : -8.356194            3.026795             0.470027
| 45>   H                    : -7.659657            4.284827             1.296231
| 46>   H                    : -9.035454            3.342602             2.044895
| 47> *
| 48>
| 49> #Run DFT-D3 single point of the particle with dimer basis set
| 50> $new_job
| 51> %base "6-139_DFT_B"
| 52> ! wB97X-D3 def2-TZVP TIGHTSCF CHELPG PMODEL
| 53>
| 54> %scf
| 55> MaxIter 1000
| 56> end
| 57>
| 58> * xyz 0 1
| 59>   C                    : -4.761511            4.033597             0.644561
| 60>   O                    : -5.840978            3.433233             0.049642
| 61>   H                    : -5.492849            2.523633             0.104784
| 62>   H                    : -3.783085            3.629081             0.423102
| 63>   H                    : -4.640133            5.102742             0.387107
| 64>   H                    : -4.887416            4.115966             1.738798
| 65>   C                      -8.631094            3.793204             1.147743
| 66>   O                      -9.560091            4.574115             0.548423
| 67>   H                      -10.277616           4.110504             0.056910
| 68>   H                      -8.356194            3.026795             0.470027
| 69>   H                      -7.659657            4.284827             1.296231
| 70>   H                      -9.035454            3.342602             2.044895
| 71> *
| 72>
| 73>                          ****END OF INPUT****
 Total Charge           Charge          ....    0
 Multiplicity           Mult            ....    1
 Number of Electrons    NEL             ....   36
Dispersion correction           -0.001740947
FINAL SINGLE POINT ENERGY      -231.453732057427
Dispersion correction           -0.000218104
FINAL SINGLE POINT ENERGY      -115.727072149640

CARTESIAN COORDINATES (ANGSTROEM)
---------------------------------
  C     -4.761511    4.033597    0.644561
  O     -5.840978    3.433233    0.049642
  H     -5.492849    2.523633    0.104784
  H     -3.783085    3.629081    0.423102
  H     -4.640133    5.102742    0.387107
  H     -4.887416    4.115966    1.738798
  C     -8.631094    3.793204    1.147743
  O     -9.560091    4.574115    0.548423
  H    -10.277616    4.110504    0.056910
  H     -8.356194    3.026795    0.470027
  H     -7.659657    4.284827    1.296231
  H     -9.035454    3.342602    2.044895

 Multiplicity           Mult            ....    1
 Number of Electrons    NEL             ....   18
 Basis Dimension        Dim             ....  172

ORBITAL ENERGIES
----------------

  NO   OCC          E(Eh)            E(eV)
   0   2.0000     -19.225369      -523.1489
   1   2.0000     -10.302547      -280.3466
   2   2.0000      -1.144779       -31.1510
   3   2.0000      -0.796543       -21.6750
   4   2.0000      -0.620326       -16.8799
   5   2.0000      -0.557393       -15.1674
   6   2.0000      -0.533229       -14.5099
   7   2.0000      -0.411369       -11.1939
   8   2.0000      -0.368550       -10.0288
   9   0.0000       0.085566         2.3284
  10   0.0000       0.113471         3.0877
  11   0.0000       0.156754         4.2655
  12   0.0000       0.167593         4.5604
  13   0.0000       0.192104         5.2274

MULLIKEN ATOMIC CHARGES
-----------------------
   0 C :    0.001229
   1 O :   -0.003382
   2 H :   -0.000423
   3 H :    0.000103
   4 H :   -0.000238
   5 H :   -0.000818
   6 C :   -0.118225
   7 O :   -0.489115
   8 H :    0.326208
   9 H :    0.091553
  10 H :    0.109553
  11 H :    0.083555
Sum of atomic charges:    0.0000000

LOEWDIN ATOMIC CHARGES
----------------------
   0 C :   -0.005235
   1 O :   -0.011738
   2 H :   -0.001290
   3 H :   -0.000066
   4 H :   -0.000206
   5 H :   -0.000985
   6 C :   -0.420069
   7 O :   -0.046817
   8 H :    0.187749
   9 H :    0.091021
  10 H :    0.116709
  11 H :    0.090928

  Mayer bond orders larger than 0.1
B(  6-C ,  7-O ) :   1.0103 B(  6-C ,  9-H ) :   0.9927 B(  6-C , 10-H ) :   0.9659
B(  6-C , 11-H ) :   0.9741 B(  7-O ,  8-H ) :   0.8816

Dispersion correction           -0.000223137
FINAL SINGLE POINT ENERGY      -115.727477871486

DIPOLE MOMENT
-------------
                                X             Y             Z
Electronic contribution:     -1.18002       1.17561      -0.65630
Nuclear contribution   :      1.07440      -1.79196       0.52602
                        -----------------------------------------
Total Dipole Moment    :     -0.10562      -0.61636      -0.13029
                        -----------------------------------------
Magnitude (a.u.)       :      0.63877
Magnitude (Debye)      :      1.62362

Rotational constants in cm-1:     4.487658     0.878831     0.854932
Rotational constants in MHz : 134536.604804 26346.678795 25630.204114

                             ****ORCA TERMINATED NORMALLY****
TOTAL RUN TIME: 0 days 0 hours 1 minutes 5 seconds 382 msec
