                         Program Version 4.1.2  - RELEASE  -
|  1> #Run DFT-D3 single point of the dimer
|  2> ! wB97X-D3 def2-TZVP TIGHTSCF CHELPG PMODEL PAL8
|  3>
|  4> %base "15-157_DFT_AB"
|  5>
|  6> %scf
|  7> MaxIter 1000
|  8> end
|  9>
| 10> * xyz 0 1
| 11>   C                      -6.181417            4.486553             9.135316
| 12>   O                      -6.207112            3.427450             8.243800
| 13>   H                      -6.841590            3.548929             7.511015
| 14>   H                      -5.713710            5.329035             8.707369
| 15>   H                      -7.179472            4.846988             9.405488
| 16>   H                      -5.829679            4.273217             10.121663
| 17>   C                      -8.337797            2.416175             5.163144
| 18>   O                      -7.836893            3.630064             5.649020
| 19>   H                      -8.642181            4.245374             5.763971
| 20>   H                      -7.568641            1.935078             4.537271
| 21>   H                      -8.594351            1.681504             5.898508
| 22>   H                      -9.204598            2.572450             4.608800
| 23> *
| 24>
| 25> #Run DFT-D3 single point of the molecule with dimer basis set
| 26> $new_job
| 27> %base "15-157_DFT_A"
| 28> ! wB97X-D3 def2-TZVP TIGHTSCF CHELPG PMODEL
| 29>
| 30> %scf
| 31> MaxIter 1000
| 32> end
| 33>
| 34> * xyz 0 1
| 35>   C                      -6.181417            4.486553             9.135316
| 36>   O                      -6.207112            3.427450             8.243800
| 37>   H                      -6.841590            3.548929             7.511015
| 38>   H                      -5.713710            5.329035             8.707369
| 39>   H                      -7.179472            4.846988             9.405488
| 40>   H                      -5.829679            4.273217             10.121663
| 41>   C                    : -8.337797            2.416175             5.163144
| 42>   O                    : -7.836893            3.630064             5.649020
| 43>   H                    : -8.642181            4.245374             5.763971
| 44>   H                    : -7.568641            1.935078             4.537271
| 45>   H                    : -8.594351            1.681504             5.898508
| 46>   H                    : -9.204598            2.572450             4.608800
| 47> *
| 48>
| 49> #Run DFT-D3 single point of the particle with dimer basis set
| 50> $new_job
| 51> %base "15-157_DFT_B"
| 52> ! wB97X-D3 def2-TZVP TIGHTSCF CHELPG PMODEL
| 53>
| 54> %scf
| 55> MaxIter 1000
| 56> end
| 57>
| 58> * xyz 0 1
| 59>   C                    : -6.181417            4.486553             9.135316
| 60>   O                    : -6.207112            3.427450             8.243800
| 61>   H                    : -6.841590            3.548929             7.511015
| 62>   H                    : -5.713710            5.329035             8.707369
| 63>   H                    : -7.179472            4.846988             9.405488
| 64>   H                    : -5.829679            4.273217             10.121663
| 65>   C                      -8.337797            2.416175             5.163144
| 66>   O                      -7.836893            3.630064             5.649020
| 67>   H                      -8.642181            4.245374             5.763971
| 68>   H                      -7.568641            1.935078             4.537271
| 69>   H                      -8.594351            1.681504             5.898508
| 70>   H                      -9.204598            2.572450             4.608800
| 71> *
| 72>
| 73>                          ****END OF INPUT****
 Total Charge           Charge          ....    0
 Multiplicity           Mult            ....    1
 Number of Electrons    NEL             ....   36
Dispersion correction           -0.001481159
FINAL SINGLE POINT ENERGY      -231.466845296926
Dispersion correction           -0.000239288
FINAL SINGLE POINT ENERGY      -115.729303318538

CARTESIAN COORDINATES (ANGSTROEM)
---------------------------------
  C     -6.181417    4.486553    9.135316
  O     -6.207112    3.427450    8.243800
  H     -6.841590    3.548929    7.511015
  H     -5.713710    5.329035    8.707369
  H     -7.179472    4.846988    9.405488
  H     -5.829679    4.273217   10.121663
  C     -8.337797    2.416175    5.163144
  O     -7.836893    3.630064    5.649020
  H     -8.642181    4.245374    5.763971
  H     -7.568641    1.935078    4.537271
  H     -8.594351    1.681504    5.898508
  H     -9.204598    2.572450    4.608800

 Multiplicity           Mult            ....    1
 Number of Electrons    NEL             ....   18
 Basis Dimension        Dim             ....  172

ORBITAL ENERGIES
----------------

  NO   OCC          E(Eh)            E(eV)
   0   2.0000     -19.236732      -523.4581
   1   2.0000     -10.302832      -280.3543
   2   2.0000      -1.131905       -30.8007
   3   2.0000      -0.795247       -21.6398
   4   2.0000      -0.613183       -16.6855
   5   2.0000      -0.542887       -14.7727
   6   2.0000      -0.527099       -14.3431
   7   2.0000      -0.436353       -11.8738
   8   2.0000      -0.371573       -10.1110
   9   0.0000       0.092562         2.5187
  10   0.0000       0.116010         3.1568
  11   0.0000       0.152476         4.1491
  12   0.0000       0.187349         5.0980
  13   0.0000       0.203879         5.5478

MULLIKEN ATOMIC CHARGES
-----------------------
   0 C :    0.000302
   1 O :   -0.000590
   2 H :   -0.008303
   3 H :   -0.000061
   4 H :   -0.000563
   5 H :   -0.000118
   6 C :   -0.163051
   7 O :   -0.467301
   8 H :    0.317960
   9 H :    0.112704
  10 H :    0.102286
  11 H :    0.106736
Sum of atomic charges:   -0.0000000

LOEWDIN ATOMIC CHARGES
----------------------
   0 C :   -0.001055
   1 O :   -0.003138
   2 H :   -0.031907
   3 H :   -0.000050
   4 H :   -0.000141
   5 H :   -0.000020
   6 C :   -0.395506
   7 O :   -0.059265
   8 H :    0.205784
   9 H :    0.109440
  10 H :    0.090219
  11 H :    0.085639

  Mayer bond orders larger than 0.1
B(  6-C ,  7-O ) :   1.0019 B(  6-C ,  9-H ) :   0.9785 B(  6-C , 10-H ) :   0.9720
B(  6-C , 11-H ) :   0.9832 B(  7-O ,  8-H ) :   0.8912

Dispersion correction           -0.000234756
FINAL SINGLE POINT ENERGY      -115.729818860560

DIPOLE MOMENT
-------------
                                X             Y             Z
Electronic contribution:      0.76017       1.54720       0.63808
Nuclear contribution   :     -1.47468      -1.63467      -0.77898
                        -----------------------------------------
Total Dipole Moment    :     -0.71452      -0.08747      -0.14090
                        -----------------------------------------
Magnitude (a.u.)       :      0.73351
Magnitude (Debye)      :      1.86443

Rotational constants in cm-1:     4.375451     0.849004     0.807823
Rotational constants in MHz : 131172.706552 25452.488577 24217.932181

                             ****ORCA TERMINATED NORMALLY****
TOTAL RUN TIME: 0 days 0 hours 1 minutes 6 seconds 905 msec
