                         Program Version 4.1.2  - RELEASE  -
|  1> #Run DFT-D3 single point of the dimer
|  2> ! wB97X-D3 def2-TZVP TIGHTSCF CHELPG PMODEL PAL8
|  3>
|  4> %base "10-78_DFT_AB"
|  5>
|  6> %scf
|  7> MaxIter 1000
|  8> end
|  9>
| 10> * xyz 0 1
| 11>   C                      4.546624             -10.081734           -0.355543
| 12>   O                      3.316980             -9.471916            -0.450149
| 13>   H                      3.133284             -8.853097            0.272998
| 14>   H                      5.079215             -10.102797           -1.305874
| 15>   H                      5.187251             -9.604669            0.363695
| 16>   H                      4.466684             -11.200598           -0.094542
| 17>   C                      3.153078             -7.645306            -3.207908
| 18>   O                      2.836734             -6.398947            -3.647315
| 19>   H                      3.203133             -6.282440            -4.503657
| 20>   H                      4.238093             -7.697912            -2.989028
| 21>   H                      2.670314             -7.902382            -2.312206
| 22>   H                      2.984515             -8.353490            -4.071394
| 23> *
| 24>
| 25> #Run DFT-D3 single point of the molecule with dimer basis set
| 26> $new_job
| 27> %base "10-78_DFT_A"
| 28> ! wB97X-D3 def2-TZVP TIGHTSCF CHELPG PMODEL
| 29>
| 30> %scf
| 31> MaxIter 1000
| 32> end
| 33>
| 34> * xyz 0 1
| 35>   C                      4.546624             -10.081734           -0.355543
| 36>   O                      3.316980             -9.471916            -0.450149
| 37>   H                      3.133284             -8.853097            0.272998
| 38>   H                      5.079215             -10.102797           -1.305874
| 39>   H                      5.187251             -9.604669            0.363695
| 40>   H                      4.466684             -11.200598           -0.094542
| 41>   C                    : 3.153078             -7.645306            -3.207908
| 42>   O                    : 2.836734             -6.398947            -3.647315
| 43>   H                    : 3.203133             -6.282440            -4.503657
| 44>   H                    : 4.238093             -7.697912            -2.989028
| 45>   H                    : 2.670314             -7.902382            -2.312206
| 46>   H                    : 2.984515             -8.353490            -4.071394
| 47> *
| 48>
| 49> #Run DFT-D3 single point of the particle with dimer basis set
| 50> $new_job
| 51> %base "10-78_DFT_B"
| 52> ! wB97X-D3 def2-TZVP TIGHTSCF CHELPG PMODEL
| 53>
| 54> %scf
| 55> MaxIter 1000
| 56> end
| 57>
| 58> * xyz 0 1
| 59>   C                    : 4.546624             -10.081734           -0.355543
| 60>   O                    : 3.316980             -9.471916            -0.450149
| 61>   H                    : 3.133284             -8.853097            0.272998
| 62>   H                    : 5.079215             -10.102797           -1.305874
| 63>   H                    : 5.187251             -9.604669            0.363695
| 64>   H                    : 4.466684             -11.200598           -0.094542
| 65>   C                      3.153078             -7.645306            -3.207908
| 66>   O                      2.836734             -6.398947            -3.647315
| 67>   H                      3.203133             -6.282440            -4.503657
| 68>   H                      4.238093             -7.697912            -2.989028
| 69>   H                      2.670314             -7.902382            -2.312206
| 70>   H                      2.984515             -8.353490            -4.071394
| 71> *
| 72>
| 73>                          ****END OF INPUT****
 Total Charge           Charge          ....    0
 Multiplicity           Mult            ....    1
 Number of Electrons    NEL             ....   36
Dispersion correction           -0.001667778
FINAL SINGLE POINT ENERGY      -231.463800447309
Dispersion correction           -0.000254254
FINAL SINGLE POINT ENERGY      -115.732403800878

CARTESIAN COORDINATES (ANGSTROEM)
---------------------------------
  C      4.546624  -10.081734   -0.355543
  O      3.316980   -9.471916   -0.450149
  H      3.133284   -8.853097    0.272998
  H      5.079215  -10.102797   -1.305874
  H      5.187251   -9.604669    0.363695
  H      4.466684  -11.200598   -0.094542
  C      3.153078   -7.645306   -3.207908
  O      2.836734   -6.398947   -3.647315
  H      3.203133   -6.282440   -4.503657
  H      4.238093   -7.697912   -2.989028
  H      2.670314   -7.902382   -2.312206
  H      2.984515   -8.353490   -4.071394

 Multiplicity           Mult            ....    1
 Number of Electrons    NEL             ....   18
 Basis Dimension        Dim             ....  172

ORBITAL ENERGIES
----------------

  NO   OCC          E(Eh)            E(eV)
   0   2.0000     -19.225841      -523.1617
   1   2.0000     -10.309162      -280.5266
   2   2.0000      -1.158300       -31.5190
   3   2.0000      -0.795601       -21.6494
   4   2.0000      -0.621860       -16.9217
   5   2.0000      -0.550824       -14.9887
   6   2.0000      -0.539590       -14.6830
   7   2.0000      -0.432104       -11.7582
   8   2.0000      -0.364688        -9.9237
   9   0.0000       0.084166         2.2903
  10   0.0000       0.115207         3.1349
  11   0.0000       0.155289         4.2256
  12   0.0000       0.164217         4.4686
  13   0.0000       0.189967         5.1693

MULLIKEN ATOMIC CHARGES
-----------------------
   0 C :   -0.000135
   1 O :   -0.000197
   2 H :   -0.000279
   3 H :   -0.000520
   4 H :    0.000088
   5 H :   -0.000031
   6 C :   -0.152519
   7 O :   -0.458186
   8 H :    0.314959
   9 H :    0.086484
  10 H :    0.121343
  11 H :    0.088993
Sum of atomic charges:   -0.0000000

LOEWDIN ATOMIC CHARGES
----------------------
   0 C :   -0.002054
   1 O :   -0.004647
   2 H :   -0.001004
   3 H :   -0.000865
   4 H :   -0.000031
   5 H :   -0.000019
   6 C :   -0.419517
   7 O :   -0.027520
   8 H :    0.161221
   9 H :    0.094804
  10 H :    0.099350
  11 H :    0.100282

  Mayer bond orders larger than 0.1
B(  6-C ,  7-O ) :   1.0061 B(  6-C ,  9-H ) :   0.9800 B(  6-C , 10-H ) :   0.9703
B(  6-C , 11-H ) :   0.9863 B(  7-O ,  8-H ) :   0.9007

Dispersion correction           -0.000201219
FINAL SINGLE POINT ENERGY      -115.729667896471

DIPOLE MOMENT
-------------
                                X             Y             Z
Electronic contribution:     -0.64343       1.67917      -0.33910
Nuclear contribution   :      0.98692      -2.04339      -0.03616
                        -----------------------------------------
Total Dipole Moment    :      0.34349      -0.36422      -0.37526
                        -----------------------------------------
Magnitude (a.u.)       :      0.62567
Magnitude (Debye)      :      1.59033

Rotational constants in cm-1:     4.283478     0.896305     0.857074
Rotational constants in MHz : 128415.440460 26870.556181 25694.419033

                             ****ORCA TERMINATED NORMALLY****
TOTAL RUN TIME: 0 days 0 hours 1 minutes 4 seconds 460 msec
