                         Program Version 4.1.2  - RELEASE  -
|  1> #Run DFT-D3 single point of the dimer
|  2> ! wB97X-D3 def2-TZVP TIGHTSCF CHELPG PMODEL PAL8
|  3>
|  4> %base "6-12_DFT_AB"
|  5>
|  6> %scf
|  7> MaxIter 1000
|  8> end
|  9>
| 10> * xyz 0 1
| 11>   C                      -8.943252            -7.348248            2.064146
| 12>   O                      -8.854877            -8.616783            1.511822
| 13>   H                      -9.785357            -8.938947            1.557192
| 14>   H                      -7.983475            -6.876313            1.956709
| 15>   H                      -9.635888            -6.670991            1.500144
| 16>   H                      -9.236388            -7.364689            3.074729
| 17>   C                      -6.266477            -4.168455            2.455603
| 18>   O                      -7.175860            -4.854637            3.321808
| 19>   H                      -7.764477            -4.120895            3.614753
| 20>   H                      -5.463502            -3.663733            3.000096
| 21>   H                      -5.628157            -4.916968            1.894217
| 22>   H                      -6.708523            -3.465401            1.673452
| 23> *
| 24>
| 25> #Run DFT-D3 single point of the molecule with dimer basis set
| 26> $new_job
| 27> %base "6-12_DFT_A"
| 28> ! wB97X-D3 def2-TZVP TIGHTSCF CHELPG PMODEL
| 29>
| 30> %scf
| 31> MaxIter 1000
| 32> end
| 33>
| 34> * xyz 0 1
| 35>   C                      -8.943252            -7.348248            2.064146
| 36>   O                      -8.854877            -8.616783            1.511822
| 37>   H                      -9.785357            -8.938947            1.557192
| 38>   H                      -7.983475            -6.876313            1.956709
| 39>   H                      -9.635888            -6.670991            1.500144
| 40>   H                      -9.236388            -7.364689            3.074729
| 41>   C                    : -6.266477            -4.168455            2.455603
| 42>   O                    : -7.175860            -4.854637            3.321808
| 43>   H                    : -7.764477            -4.120895            3.614753
| 44>   H                    : -5.463502            -3.663733            3.000096
| 45>   H                    : -5.628157            -4.916968            1.894217
| 46>   H                    : -6.708523            -3.465401            1.673452
| 47> *
| 48>
| 49> #Run DFT-D3 single point of the particle with dimer basis set
| 50> $new_job
| 51> %base "6-12_DFT_B"
| 52> ! wB97X-D3 def2-TZVP TIGHTSCF CHELPG PMODEL
| 53>
| 54> %scf
| 55> MaxIter 1000
| 56> end
| 57>
| 58> * xyz 0 1
| 59>   C                    : -8.943252            -7.348248            2.064146
| 60>   O                    : -8.854877            -8.616783            1.511822
| 61>   H                    : -9.785357            -8.938947            1.557192
| 62>   H                    : -7.983475            -6.876313            1.956709
| 63>   H                    : -9.635888            -6.670991            1.500144
| 64>   H                    : -9.236388            -7.364689            3.074729
| 65>   C                      -6.266477            -4.168455            2.455603
| 66>   O                      -7.175860            -4.854637            3.321808
| 67>   H                      -7.764477            -4.120895            3.614753
| 68>   H                      -5.463502            -3.663733            3.000096
| 69>   H                      -5.628157            -4.916968            1.894217
| 70>   H                      -6.708523            -3.465401            1.673452
| 71> *
| 72>
| 73>                          ****END OF INPUT****
 Total Charge           Charge          ....    0
 Multiplicity           Mult            ....    1
 Number of Electrons    NEL             ....   36
Dispersion correction           -0.001605835
FINAL SINGLE POINT ENERGY      -231.464402339397
Dispersion correction           -0.000214062
FINAL SINGLE POINT ENERGY      -115.733294179983

CARTESIAN COORDINATES (ANGSTROEM)
---------------------------------
  C     -8.943252   -7.348248    2.064146
  O     -8.854877   -8.616783    1.511822
  H     -9.785357   -8.938947    1.557192
  H     -7.983475   -6.876313    1.956709
  H     -9.635888   -6.670991    1.500144
  H     -9.236388   -7.364689    3.074729
  C     -6.266477   -4.168455    2.455603
  O     -7.175860   -4.854637    3.321808
  H     -7.764477   -4.120895    3.614753
  H     -5.463502   -3.663733    3.000096
  H     -5.628157   -4.916968    1.894217
  H     -6.708523   -3.465401    1.673452

 Multiplicity           Mult            ....    1
 Number of Electrons    NEL             ....   18
 Basis Dimension        Dim             ....  172

ORBITAL ENERGIES
----------------

  NO   OCC          E(Eh)            E(eV)
   0   2.0000     -19.241084      -523.5765
   1   2.0000     -10.323140      -280.9069
   2   2.0000      -1.133664       -30.8486
   3   2.0000      -0.788534       -21.4571
   4   2.0000      -0.603699       -16.4275
   5   2.0000      -0.538543       -14.6545
   6   2.0000      -0.519705       -14.1419
   7   2.0000      -0.437266       -11.8986
   8   2.0000      -0.377272       -10.2661
   9   0.0000       0.094959         2.5840
  10   0.0000       0.120059         3.2670
  11   0.0000       0.144611         3.9351
  12   0.0000       0.182582         4.9683
  13   0.0000       0.192833         5.2473

MULLIKEN ATOMIC CHARGES
-----------------------
   0 C :   -0.000102
   1 O :   -0.000189
   2 H :   -0.000033
   3 H :   -0.000948
   4 H :   -0.001482
   5 H :   -0.002317
   6 C :   -0.198091
   7 O :   -0.451954
   8 H :    0.316488
   9 H :    0.111177
  10 H :    0.116433
  11 H :    0.111018
Sum of atomic charges:    0.0000000

LOEWDIN ATOMIC CHARGES
----------------------
   0 C :   -0.011667
   1 O :   -0.000036
   2 H :   -0.000031
   3 H :   -0.007931
   4 H :   -0.000629
   5 H :   -0.001316
   6 C :   -0.403078
   7 O :   -0.076288
   8 H :    0.187048
   9 H :    0.095022
  10 H :    0.114845
  11 H :    0.104062

  Mayer bond orders larger than 0.1
B(  6-C ,  7-O ) :   1.0065 B(  6-C ,  9-H ) :   0.9685 B(  6-C , 10-H ) :   0.9778
B(  6-C , 11-H ) :   0.9669 B(  7-O ,  8-H ) :   0.8971

Dispersion correction           -0.000271306
FINAL SINGLE POINT ENERGY      -115.729938531977

DIPOLE MOMENT
-------------
                                X             Y             Z
Electronic contribution:     -1.27316      -0.99232       1.17846
Nuclear contribution   :      1.28844       1.69609      -1.32150
                        -----------------------------------------
Total Dipole Moment    :      0.01528       0.70377      -0.14304
                        -----------------------------------------
Magnitude (a.u.)       :      0.71832
Magnitude (Debye)      :      1.82582

Rotational constants in cm-1:     4.157549     0.806183     0.772399
Rotational constants in MHz : 124640.179278 24168.761481 23155.933053

                             ****ORCA TERMINATED NORMALLY****
TOTAL RUN TIME: 0 days 0 hours 1 minutes 5 seconds 162 msec
