                         Program Version 4.1.2  - RELEASE  -
|  1> #Run DFT-D3 single point of the dimer
|  2> ! wB97X-D3 def2-TZVP TIGHTSCF CHELPG PMODEL PAL8
|  3>
|  4> %base "5-195_DFT_AB"
|  5>
|  6> %scf
|  7> MaxIter 1000
|  8> end
|  9>
| 10> * xyz 0 1
| 11>   C                      -2.888848            -1.772345            6.692776
| 12>   O                      -3.003032            -3.109988            6.959412
| 13>   H                      -2.267008            -3.296468            7.598126
| 14>   H                      -2.440513            -1.184725            7.544793
| 15>   H                      -2.265644            -1.618220            5.769724
| 16>   H                      -3.761533            -1.232645            6.411264
| 17>   C                      -6.776743            -2.989091            5.822163
| 18>   O                      -6.118479            -4.259332            5.911747
| 19>   H                      -5.284884            -4.113407            6.339668
| 20>   H                      -6.450045            -2.343937            6.684817
| 21>   H                      -6.622088            -2.415555            4.934993
| 22>   H                      -7.856755            -3.121629            5.982548
| 23> *
| 24>
| 25> #Run DFT-D3 single point of the molecule with dimer basis set
| 26> $new_job
| 27> %base "5-195_DFT_A"
| 28> ! wB97X-D3 def2-TZVP TIGHTSCF CHELPG PMODEL
| 29>
| 30> %scf
| 31> MaxIter 1000
| 32> end
| 33>
| 34> * xyz 0 1
| 35>   C                      -2.888848            -1.772345            6.692776
| 36>   O                      -3.003032            -3.109988            6.959412
| 37>   H                      -2.267008            -3.296468            7.598126
| 38>   H                      -2.440513            -1.184725            7.544793
| 39>   H                      -2.265644            -1.618220            5.769724
| 40>   H                      -3.761533            -1.232645            6.411264
| 41>   C                    : -6.776743            -2.989091            5.822163
| 42>   O                    : -6.118479            -4.259332            5.911747
| 43>   H                    : -5.284884            -4.113407            6.339668
| 44>   H                    : -6.450045            -2.343937            6.684817
| 45>   H                    : -6.622088            -2.415555            4.934993
| 46>   H                    : -7.856755            -3.121629            5.982548
| 47> *
| 48>
| 49> #Run DFT-D3 single point of the particle with dimer basis set
| 50> $new_job
| 51> %base "5-195_DFT_B"
| 52> ! wB97X-D3 def2-TZVP TIGHTSCF CHELPG PMODEL
| 53>
| 54> %scf
| 55> MaxIter 1000
| 56> end
| 57>
| 58> * xyz 0 1
| 59>   C                    : -2.888848            -1.772345            6.692776
| 60>   O                    : -3.003032            -3.109988            6.959412
| 61>   H                    : -2.267008            -3.296468            7.598126
| 62>   H                    : -2.440513            -1.184725            7.544793
| 63>   H                    : -2.265644            -1.618220            5.769724
| 64>   H                    : -3.761533            -1.232645            6.411264
| 65>   C                      -6.776743            -2.989091            5.822163
| 66>   O                      -6.118479            -4.259332            5.911747
| 67>   H                      -5.284884            -4.113407            6.339668
| 68>   H                      -6.450045            -2.343937            6.684817
| 69>   H                      -6.622088            -2.415555            4.934993
| 70>   H                      -7.856755            -3.121629            5.982548
| 71> *
| 72>
| 73>                          ****END OF INPUT****
 Total Charge           Charge          ....    0
 Multiplicity           Mult            ....    1
 Number of Electrons    NEL             ....   36
Dispersion correction           -0.001750093
FINAL SINGLE POINT ENERGY      -231.466911922247
Dispersion correction           -0.000235565
FINAL SINGLE POINT ENERGY      -115.728001773419

CARTESIAN COORDINATES (ANGSTROEM)
---------------------------------
  C     -2.888848   -1.772345    6.692776
  O     -3.003032   -3.109988    6.959412
  H     -2.267008   -3.296468    7.598126
  H     -2.440513   -1.184725    7.544793
  H     -2.265644   -1.618220    5.769724
  H     -3.761533   -1.232645    6.411264
  C     -6.776743   -2.989091    5.822163
  O     -6.118479   -4.259332    5.911747
  H     -5.284884   -4.113407    6.339668
  H     -6.450045   -2.343937    6.684817
  H     -6.622088   -2.415555    4.934993
  H     -7.856755   -3.121629    5.982548

 Multiplicity           Mult            ....    1
 Number of Electrons    NEL             ....   18
 Basis Dimension        Dim             ....  172

ORBITAL ENERGIES
----------------

  NO   OCC          E(Eh)            E(eV)
   0   2.0000     -19.230984      -523.3017
   1   2.0000     -10.316549      -280.7276
   2   2.0000      -1.133978       -30.8571
   3   2.0000      -0.797251       -21.6943
   4   2.0000      -0.609798       -16.5935
   5   2.0000      -0.542440       -14.7606
   6   2.0000      -0.524385       -14.2692
   7   2.0000      -0.431456       -11.7405
   8   2.0000      -0.378438       -10.2978
   9   0.0000       0.069828         1.9001
  10   0.0000       0.129292         3.5182
  11   0.0000       0.139629         3.7995
  12   0.0000       0.172674         4.6987
  13   0.0000       0.183383         4.9901

MULLIKEN ATOMIC CHARGES
-----------------------
   0 C :   -0.001630
   1 O :   -0.000381
   2 H :   -0.000043
   3 H :    0.000014
   4 H :    0.000071
   5 H :   -0.000184
   6 C :   -0.183160
   7 O :   -0.471092
   8 H :    0.313953
   9 H :    0.104088
  10 H :    0.114697
  11 H :    0.123665
Sum of atomic charges:   -0.0000000

LOEWDIN ATOMIC CHARGES
----------------------
   0 C :   -0.002107
   1 O :   -0.003753
   2 H :   -0.000169
   3 H :   -0.000029
   4 H :   -0.000019
   5 H :   -0.001037
   6 C :   -0.373022
   7 O :   -0.081682
   8 H :    0.160431
   9 H :    0.103436
  10 H :    0.090134
  11 H :    0.107817

  Mayer bond orders larger than 0.1
B(  6-C ,  7-O ) :   0.9961 B(  6-C ,  9-H ) :   0.9870 B(  6-C , 10-H ) :   0.9643
B(  6-C , 11-H ) :   0.9761 B(  7-O ,  8-H ) :   0.9086

Dispersion correction           -0.000256747
FINAL SINGLE POINT ENERGY      -115.733605128807

DIPOLE MOMENT
-------------
                                X             Y             Z
Electronic contribution:      0.75756      -1.72981      -0.11673
Nuclear contribution   :     -0.49645       2.33946       0.36834
                        -----------------------------------------
Total Dipole Moment    :      0.26112       0.60965       0.25162
                        -----------------------------------------
Magnitude (a.u.)       :      0.70934
Magnitude (Debye)      :      1.80300

Rotational constants in cm-1:     4.341652     0.808646     0.781139
Rotational constants in MHz : 130159.443130 24242.587413 23417.950669

                             ****ORCA TERMINATED NORMALLY****
TOTAL RUN TIME: 0 days 0 hours 0 minutes 59 seconds 18 msec
