                         Program Version 4.1.2  - RELEASE  -
|  1> #Run DFT-D3 single point of the dimer
|  2> ! wB97X-D3 def2-TZVP TIGHTSCF CHELPG PMODEL PAL8
|  3>
|  4> %base "8-208_DFT_AB"
|  5>
|  6> %scf
|  7> MaxIter 1000
|  8> end
|  9>
| 10> * xyz 0 1
| 11>   C                      -0.151003            -2.035609            -8.821723
| 12>   O                      -0.924824            -1.536299            -7.733373
| 13>   H                      -1.828442            -1.692329            -7.979716
| 14>   H                      -0.282953            -1.539425            -9.797442
| 15>   H                      0.915134             -1.846635            -8.655497
| 16>   H                      -0.344206            -3.076921            -8.978535
| 17>   C                      0.454296             1.063015             -5.066884
| 18>   O                      0.027373             1.018387             -6.371034
| 19>   H                      -0.179703            0.128811             -6.695658
| 20>   H                      1.451245             0.704450             -4.844679
| 21>   H                      0.373348             2.132470             -4.849588
| 22>   H                      -0.201784            0.501082             -4.370031
| 23> *
| 24>
| 25> #Run DFT-D3 single point of the molecule with dimer basis set
| 26> $new_job
| 27> %base "8-208_DFT_A"
| 28> ! wB97X-D3 def2-TZVP TIGHTSCF CHELPG PMODEL
| 29>
| 30> %scf
| 31> MaxIter 1000
| 32> end
| 33>
| 34> * xyz 0 1
| 35>   C                      -0.151003            -2.035609            -8.821723
| 36>   O                      -0.924824            -1.536299            -7.733373
| 37>   H                      -1.828442            -1.692329            -7.979716
| 38>   H                      -0.282953            -1.539425            -9.797442
| 39>   H                      0.915134             -1.846635            -8.655497
| 40>   H                      -0.344206            -3.076921            -8.978535
| 41>   C                    : 0.454296             1.063015             -5.066884
| 42>   O                    : 0.027373             1.018387             -6.371034
| 43>   H                    : -0.179703            0.128811             -6.695658
| 44>   H                    : 1.451245             0.704450             -4.844679
| 45>   H                    : 0.373348             2.132470             -4.849588
| 46>   H                    : -0.201784            0.501082             -4.370031
| 47> *
| 48>
| 49> #Run DFT-D3 single point of the particle with dimer basis set
| 50> $new_job
| 51> %base "8-208_DFT_B"
| 52> ! wB97X-D3 def2-TZVP TIGHTSCF CHELPG PMODEL
| 53>
| 54> %scf
| 55> MaxIter 1000
| 56> end
| 57>
| 58> * xyz 0 1
| 59>   C                    : -0.151003            -2.035609            -8.821723
| 60>   O                    : -0.924824            -1.536299            -7.733373
| 61>   H                    : -1.828442            -1.692329            -7.979716
| 62>   H                    : -0.282953            -1.539425            -9.797442
| 63>   H                    : 0.915134             -1.846635            -8.655497
| 64>   H                    : -0.344206            -3.076921            -8.978535
| 65>   C                      0.454296             1.063015             -5.066884
| 66>   O                      0.027373             1.018387             -6.371034
| 67>   H                      -0.179703            0.128811             -6.695658
| 68>   H                      1.451245             0.704450             -4.844679
| 69>   H                      0.373348             2.132470             -4.849588
| 70>   H                      -0.201784            0.501082             -4.370031
| 71> *
| 72>
| 73>                          ****END OF INPUT****
 Total Charge           Charge          ....    0
 Multiplicity           Mult            ....    1
 Number of Electrons    NEL             ....   36
Dispersion correction           -0.001456147
FINAL SINGLE POINT ENERGY      -231.476002024852
Dispersion correction           -0.000246510
FINAL SINGLE POINT ENERGY      -115.734440624464

CARTESIAN COORDINATES (ANGSTROEM)
---------------------------------
  C     -0.151003   -2.035609   -8.821723
  O     -0.924824   -1.536299   -7.733373
  H     -1.828442   -1.692329   -7.979716
  H     -0.282953   -1.539425   -9.797442
  H      0.915134   -1.846635   -8.655497
  H     -0.344206   -3.076921   -8.978535
  C      0.454296    1.063015   -5.066884
  O      0.027373    1.018387   -6.371034
  H     -0.179703    0.128811   -6.695658
  H      1.451245    0.704450   -4.844679
  H      0.373348    2.132470   -4.849588
  H     -0.201784    0.501082   -4.370031

 Multiplicity           Mult            ....    1
 Number of Electrons    NEL             ....   18
 Basis Dimension        Dim             ....  172

ORBITAL ENERGIES
----------------

  NO   OCC          E(Eh)            E(eV)
   0   2.0000     -19.230708      -523.2942
   1   2.0000     -10.309781      -280.5434
   2   2.0000      -1.144916       -31.1547
   3   2.0000      -0.796324       -21.6691
   4   2.0000      -0.624027       -16.9807
   5   2.0000      -0.540181       -14.6991
   6   2.0000      -0.528630       -14.3848
   7   2.0000      -0.426539       -11.6067
   8   2.0000      -0.371734       -10.1154
   9   0.0000       0.071719         1.9516
  10   0.0000       0.130151         3.5416
  11   0.0000       0.153992         4.1903
  12   0.0000       0.165410         4.5010
  13   0.0000       0.196757         5.3540

MULLIKEN ATOMIC CHARGES
-----------------------
   0 C :   -0.000795
   1 O :   -0.000652
   2 H :   -0.000211
   3 H :    0.000033
   4 H :   -0.000904
   5 H :   -0.000012
   6 C :   -0.125823
   7 O :   -0.476180
   8 H :    0.312402
   9 H :    0.090546
  10 H :    0.115480
  11 H :    0.086116
Sum of atomic charges:    0.0000000

LOEWDIN ATOMIC CHARGES
----------------------
   0 C :   -0.002990
   1 O :   -0.013066
   2 H :   -0.000845
   3 H :   -0.000052
   4 H :   -0.000644
   5 H :   -0.000059
   6 C :   -0.414893
   7 O :   -0.042591
   8 H :    0.180202
   9 H :    0.087700
  10 H :    0.113543
  11 H :    0.093696

  Mayer bond orders larger than 0.1
B(  6-C ,  7-O ) :   1.0004 B(  6-C ,  9-H ) :   0.9666 B(  6-C , 10-H ) :   0.9786
B(  6-C , 11-H ) :   0.9790 B(  7-O ,  8-H ) :   0.8980

Dispersion correction           -0.000250281
FINAL SINGLE POINT ENERGY      -115.733479336184

DIPOLE MOMENT
-------------
                                X             Y             Z
Electronic contribution:     -0.47035       0.00628      -1.74840
Nuclear contribution   :      0.49018      -0.56034       2.03041
                        -----------------------------------------
Total Dipole Moment    :      0.01983      -0.55406       0.28202
                        -----------------------------------------
Magnitude (a.u.)       :      0.62202
Magnitude (Debye)      :      1.58106

Rotational constants in cm-1:     4.379855     0.865513     0.830252
Rotational constants in MHz : 131304.758920 25947.430697 24890.326569

                             ****ORCA TERMINATED NORMALLY****
TOTAL RUN TIME: 0 days 0 hours 0 minutes 46 seconds 560 msec
