                         Program Version 4.1.2  - RELEASE  -
|  1> #Run DFT-D3 single point of the dimer
|  2> ! wB97X-D3 def2-TZVP TIGHTSCF CHELPG PMODEL PAL8
|  3>
|  4> %base "11-151_DFT_AB"
|  5>
|  6> %scf
|  7> MaxIter 1000
|  8> end
|  9>
| 10> * xyz 0 1
| 11>   C                      7.333057             -2.430812            1.645789
| 12>   O                      8.150928             -3.348863            2.355897
| 13>   H                      7.901100             -4.245522            2.122352
| 14>   H                      7.599919             -2.293833            0.620857
| 15>   H                      6.249450             -2.648835            1.741102
| 16>   H                      7.518582             -1.423774            2.056502
| 17>   C                      10.563372            -5.654747            3.505832
| 18>   O                      11.111717            -4.404740            3.040707
| 19>   H                      10.361361            -3.905842            2.783787
| 20>   H                      9.791847             -5.538091            4.269721
| 21>   H                      10.130539            -6.235199            2.589249
| 22>   H                      11.338688            -6.200359            3.990725
| 23> *
| 24>
| 25> #Run DFT-D3 single point of the molecule with dimer basis set
| 26> $new_job
| 27> %base "11-151_DFT_A"
| 28> ! wB97X-D3 def2-TZVP TIGHTSCF CHELPG PMODEL
| 29>
| 30> %scf
| 31> MaxIter 1000
| 32> end
| 33>
| 34> * xyz 0 1
| 35>   C                      7.333057             -2.430812            1.645789
| 36>   O                      8.150928             -3.348863            2.355897
| 37>   H                      7.901100             -4.245522            2.122352
| 38>   H                      7.599919             -2.293833            0.620857
| 39>   H                      6.249450             -2.648835            1.741102
| 40>   H                      7.518582             -1.423774            2.056502
| 41>   C                    : 10.563372            -5.654747            3.505832
| 42>   O                    : 11.111717            -4.404740            3.040707
| 43>   H                    : 10.361361            -3.905842            2.783787
| 44>   H                    : 9.791847             -5.538091            4.269721
| 45>   H                    : 10.130539            -6.235199            2.589249
| 46>   H                    : 11.338688            -6.200359            3.990725
| 47> *
| 48>
| 49> #Run DFT-D3 single point of the particle with dimer basis set
| 50> $new_job
| 51> %base "11-151_DFT_B"
| 52> ! wB97X-D3 def2-TZVP TIGHTSCF CHELPG PMODEL
| 53>
| 54> %scf
| 55> MaxIter 1000
| 56> end
| 57>
| 58> * xyz 0 1
| 59>   C                    : 7.333057             -2.430812            1.645789
| 60>   O                    : 8.150928             -3.348863            2.355897
| 61>   H                    : 7.901100             -4.245522            2.122352
| 62>   H                    : 7.599919             -2.293833            0.620857
| 63>   H                    : 6.249450             -2.648835            1.741102
| 64>   H                    : 7.518582             -1.423774            2.056502
| 65>   C                      10.563372            -5.654747            3.505832
| 66>   O                      11.111717            -4.404740            3.040707
| 67>   H                      10.361361            -3.905842            2.783787
| 68>   H                      9.791847             -5.538091            4.269721
| 69>   H                      10.130539            -6.235199            2.589249
| 70>   H                      11.338688            -6.200359            3.990725
| 71> *
| 72>
| 73>                          ****END OF INPUT****
 Total Charge           Charge          ....    0
 Multiplicity           Mult            ....    1
 Number of Electrons    NEL             ....   36
Dispersion correction           -0.001667346
FINAL SINGLE POINT ENERGY      -231.473923242738
Dispersion correction           -0.000257415
FINAL SINGLE POINT ENERGY      -115.735670060656

CARTESIAN COORDINATES (ANGSTROEM)
---------------------------------
  C      7.333057   -2.430812    1.645789
  O      8.150928   -3.348863    2.355897
  H      7.901100   -4.245522    2.122352
  H      7.599919   -2.293833    0.620857
  H      6.249450   -2.648835    1.741102
  H      7.518582   -1.423774    2.056502
  C     10.563372   -5.654747    3.505832
  O     11.111717   -4.404740    3.040707
  H     10.361361   -3.905842    2.783787
  H      9.791847   -5.538091    4.269721
  H     10.130539   -6.235199    2.589249
  H     11.338688   -6.200359    3.990725

 Multiplicity           Mult            ....    1
 Number of Electrons    NEL             ....   18
 Basis Dimension        Dim             ....  172

ORBITAL ENERGIES
----------------

  NO   OCC          E(Eh)            E(eV)
   0   2.0000     -19.229846      -523.2707
   1   2.0000     -10.320104      -280.8243
   2   2.0000      -1.135577       -30.9006
   3   2.0000      -0.795134       -21.6367
   4   2.0000      -0.606030       -16.4909
   5   2.0000      -0.538881       -14.6637
   6   2.0000      -0.522257       -14.2113
   7   2.0000      -0.441941       -12.0258
   8   2.0000      -0.375288       -10.2121
   9   0.0000       0.070958         1.9309
  10   0.0000       0.122398         3.3306
  11   0.0000       0.149599         4.0708
  12   0.0000       0.177240         4.8230
  13   0.0000       0.186879         5.0852

MULLIKEN ATOMIC CHARGES
-----------------------
   0 C :   -0.000839
   1 O :   -0.001781
   2 H :    0.000107
   3 H :    0.000020
   4 H :    0.000004
   5 H :    0.000045
   6 C :   -0.183884
   7 O :   -0.464258
   8 H :    0.307730
   9 H :    0.109288
  10 H :    0.102863
  11 H :    0.130706
Sum of atomic charges:   -0.0000000

LOEWDIN ATOMIC CHARGES
----------------------
   0 C :   -0.000679
   1 O :   -0.007367
   2 H :   -0.001643
   3 H :   -0.000024
   4 H :   -0.000019
   5 H :   -0.000021
   6 C :   -0.368506
   7 O :   -0.079789
   8 H :    0.152443
   9 H :    0.094529
  10 H :    0.109453
  11 H :    0.101624

  Mayer bond orders larger than 0.1
B(  6-C ,  7-O ) :   0.9905 B(  6-C ,  9-H ) :   0.9701 B(  6-C , 10-H ) :   0.9753
B(  6-C , 11-H ) :   0.9745 B(  7-O ,  8-H ) :   0.9164

Dispersion correction           -0.000246596
FINAL SINGLE POINT ENERGY      -115.732218660082

DIPOLE MOMENT
-------------
                                X             Y             Z
Electronic contribution:      0.86734       1.54828      -0.48535
Nuclear contribution   :     -1.54066      -1.72684       0.54856
                        -----------------------------------------
Total Dipole Moment    :     -0.67332      -0.17857       0.06321
                        -----------------------------------------
Magnitude (a.u.)       :      0.69946
Magnitude (Debye)      :      1.77788

Rotational constants in cm-1:     4.169374     0.805552     0.784539
Rotational constants in MHz : 124994.694179 24149.843598 23519.892975

                             ****ORCA TERMINATED NORMALLY****
TOTAL RUN TIME: 0 days 0 hours 1 minutes 8 seconds 756 msec
