                         Program Version 4.1.2  - RELEASE  -
|  1> #Run DFT-D3 single point of the dimer
|  2> ! wB97X-D3 def2-TZVP TIGHTSCF CHELPG PMODEL PAL8
|  3>
|  4> %base "21-187_DFT_AB"
|  5>
|  6> %scf
|  7> MaxIter 1000
|  8> end
|  9>
| 10> * xyz 0 1
| 11>   C                      -9.148478            -7.699592            3.750944
| 12>   O                      -8.768307            -7.188692            2.457517
| 13>   H                      -9.539388            -7.228703            1.924182
| 14>   H                      -9.498770            -8.728555            3.697572
| 15>   H                      -8.469807            -7.543474            4.609705
| 16>   H                      -10.003615           -7.123015            4.042330
| 17>   C                      -8.070406            -4.503512            0.294764
| 18>   O                      -8.673569            -5.587107            -0.386314
| 19>   H                      -9.563237            -5.630320            -0.002070
| 20>   H                      -7.873048            -4.860077            1.333254
| 21>   H                      -7.174208            -4.111271            -0.251197
| 22>   H                      -8.697759            -3.599668            0.320643
| 23> *
| 24>
| 25> #Run DFT-D3 single point of the molecule with dimer basis set
| 26> $new_job
| 27> %base "21-187_DFT_A"
| 28> ! wB97X-D3 def2-TZVP TIGHTSCF CHELPG PMODEL
| 29>
| 30> %scf
| 31> MaxIter 1000
| 32> end
| 33>
| 34> * xyz 0 1
| 35>   C                      -9.148478            -7.699592            3.750944
| 36>   O                      -8.768307            -7.188692            2.457517
| 37>   H                      -9.539388            -7.228703            1.924182
| 38>   H                      -9.498770            -8.728555            3.697572
| 39>   H                      -8.469807            -7.543474            4.609705
| 40>   H                      -10.003615           -7.123015            4.042330
| 41>   C                    : -8.070406            -4.503512            0.294764
| 42>   O                    : -8.673569            -5.587107            -0.386314
| 43>   H                    : -9.563237            -5.630320            -0.002070
| 44>   H                    : -7.873048            -4.860077            1.333254
| 45>   H                    : -7.174208            -4.111271            -0.251197
| 46>   H                    : -8.697759            -3.599668            0.320643
| 47> *
| 48>
| 49> #Run DFT-D3 single point of the particle with dimer basis set
| 50> $new_job
| 51> %base "21-187_DFT_B"
| 52> ! wB97X-D3 def2-TZVP TIGHTSCF CHELPG PMODEL
| 53>
| 54> %scf
| 55> MaxIter 1000
| 56> end
| 57>
| 58> * xyz 0 1
| 59>   C                    : -9.148478            -7.699592            3.750944
| 60>   O                    : -8.768307            -7.188692            2.457517
| 61>   H                    : -9.539388            -7.228703            1.924182
| 62>   H                    : -9.498770            -8.728555            3.697572
| 63>   H                    : -8.469807            -7.543474            4.609705
| 64>   H                    : -10.003615           -7.123015            4.042330
| 65>   C                      -8.070406            -4.503512            0.294764
| 66>   O                      -8.673569            -5.587107            -0.386314
| 67>   H                      -9.563237            -5.630320            -0.002070
| 68>   H                      -7.873048            -4.860077            1.333254
| 69>   H                      -7.174208            -4.111271            -0.251197
| 70>   H                      -8.697759            -3.599668            0.320643
| 71> *
| 72>
| 73>                          ****END OF INPUT****
 Total Charge           Charge          ....    0
 Multiplicity           Mult            ....    1
 Number of Electrons    NEL             ....   36
Dispersion correction           -0.001624822
FINAL SINGLE POINT ENERGY      -231.461435370232
Dispersion correction           -0.000236910
FINAL SINGLE POINT ENERGY      -115.728986296204

CARTESIAN COORDINATES (ANGSTROEM)
---------------------------------
  C     -9.148478   -7.699592    3.750944
  O     -8.768307   -7.188692    2.457517
  H     -9.539388   -7.228703    1.924182
  H     -9.498770   -8.728555    3.697572
  H     -8.469807   -7.543474    4.609705
  H    -10.003615   -7.123015    4.042330
  C     -8.070406   -4.503512    0.294764
  O     -8.673569   -5.587107   -0.386314
  H     -9.563237   -5.630320   -0.002070
  H     -7.873048   -4.860077    1.333254
  H     -7.174208   -4.111271   -0.251197
  H     -8.697759   -3.599668    0.320643

 Multiplicity           Mult            ....    1
 Number of Electrons    NEL             ....   18
 Basis Dimension        Dim             ....  172

ORBITAL ENERGIES
----------------

  NO   OCC          E(Eh)            E(eV)
   0   2.0000     -19.233143      -523.3604
   1   2.0000     -10.319250      -280.8011
   2   2.0000      -1.138035       -30.9675
   3   2.0000      -0.788544       -21.4574
   4   2.0000      -0.607306       -16.5256
   5   2.0000      -0.551274       -15.0009
   6   2.0000      -0.518467       -14.1082
   7   2.0000      -0.433489       -11.7958
   8   2.0000      -0.374018       -10.1776
   9   0.0000       0.079034         2.1506
  10   0.0000       0.119714         3.2576
  11   0.0000       0.149479         4.0675
  12   0.0000       0.177146         4.8204
  13   0.0000       0.188872         5.1395

MULLIKEN ATOMIC CHARGES
-----------------------
   0 C :    0.000656
   1 O :   -0.000024
   2 H :   -0.006227
   3 H :   -0.000042
   4 H :   -0.000032
   5 H :   -0.000048
   6 C :   -0.173872
   7 O :   -0.462729
   8 H :    0.317470
   9 H :    0.101524
  10 H :    0.118705
  11 H :    0.104619
Sum of atomic charges:   -0.0000000

LOEWDIN ATOMIC CHARGES
----------------------
   0 C :   -0.000273
   1 O :   -0.003911
   2 H :   -0.004835
   3 H :   -0.000006
   4 H :   -0.000017
   5 H :   -0.000012
   6 C :   -0.396559
   7 O :   -0.078766
   8 H :    0.177554
   9 H :    0.099436
  10 H :    0.113225
  11 H :    0.094164

  Mayer bond orders larger than 0.1
B(  6-C ,  7-O ) :   1.0031 B(  6-C ,  9-H ) :   0.9772 B(  6-C , 10-H ) :   0.9713
B(  6-C , 11-H ) :   0.9777 B(  7-O ,  8-H ) :   0.8979

Dispersion correction           -0.000230642
FINAL SINGLE POINT ENERGY      -115.732592046421

DIPOLE MOMENT
-------------
                                X             Y             Z
Electronic contribution:     -0.60848      -1.45251      -0.98194
Nuclear contribution   :      0.28424       1.86888       1.45276
                        -----------------------------------------
Total Dipole Moment    :     -0.32423       0.41636       0.47082
                        -----------------------------------------
Magnitude (a.u.)       :      0.70722
Magnitude (Debye)      :      1.79761

Rotational constants in cm-1:     4.122814     0.830676     0.803650
Rotational constants in MHz : 123598.867113 24903.031238 24092.819378

                             ****ORCA TERMINATED NORMALLY****
TOTAL RUN TIME: 0 days 0 hours 1 minutes 3 seconds 952 msec
