                         Program Version 4.1.2  - RELEASE  -
|  1> #Run DFT-D3 single point of the dimer
|  2> ! wB97X-D3 def2-TZVP TIGHTSCF  CHELPG PAL8
|  3>
|  4> %base "75_charges"
|  5>
|  6> %scf
|  7> MaxIter 1000
|  8> end
|  9> %output
| 10>   Print[ P_Mayer ] 1
| 11>   Print[ P_NatPop ] 1
| 12>   Print[ P_Hirshfeld ] 1
| 13>   Print[ P_Mulliken ] 1
| 14>   Print [ P_Loewdin ] 1
| 15> end
| 16>
| 17> * xyz 0 1
| 18>   C                      1.451918             3.739292             -7.672484
| 19>   O                      0.403176             3.445402             -6.836902
| 20>   H                      -0.377181            3.427477             -7.369579
| 21>   H                      1.298772             4.744631             -8.107598
| 22>   H                      2.426047             3.884116             -7.239538
| 23>   H                      1.565785             3.027730             -8.555647
| 24> *
| 25>
| 26>                          ****END OF INPUT****

CARTESIAN COORDINATES (ANGSTROEM)
---------------------------------
  C      1.451918    3.739292   -7.672484
  O      0.403176    3.445402   -6.836902
  H     -0.377181    3.427477   -7.369579
  H      1.298772    4.744631   -8.107598
  H      2.426047    3.884116   -7.239538
  H      1.565785    3.027730   -8.555647

 Total Charge           Charge          ....    0
 Multiplicity           Mult            ....    1
 Number of Electrons    NEL             ....   18
 Basis Dimension        Dim             ....   86

ORBITAL ENERGIES
----------------

  NO   OCC          E(Eh)            E(eV)
   0   2.0000     -19.232609      -523.3459
   1   2.0000     -10.314393      -280.6689
   2   2.0000      -1.155371       -31.4393
   3   2.0000      -0.795066       -21.6348
   4   2.0000      -0.620961       -16.8972
   5   2.0000      -0.544711       -14.8224
   6   2.0000      -0.536855       -14.6086
   7   2.0000      -0.429129       -11.6772
   8   2.0000      -0.370623       -10.0852
   9   0.0000       0.115950         3.1551
  10   0.0000       0.153717         4.1829
  11   0.0000       0.200719         5.4618
  12   0.0000       0.210627         5.7314
  13   0.0000       0.226452         6.1621

MULLIKEN ATOMIC CHARGES
-----------------------
   0 C :   -0.164287
   1 O :   -0.458610
   2 H :    0.319337
   3 H :    0.090766
   4 H :    0.121725
   5 H :    0.091070
Sum of atomic charges:   -0.0000000

LOEWDIN ATOMIC CHARGES
----------------------
   0 C :   -0.427518
   1 O :   -0.037073
   2 H :    0.167669
   3 H :    0.094270
   4 H :    0.104006
   5 H :    0.098645

  Mayer bond orders larger than 0.1
B(  0-C ,  1-O ) :   1.0039 B(  0-C ,  3-H ) :   0.9848 B(  0-C ,  4-H ) :   0.9701
B(  0-C ,  5-H ) :   0.9749 B(  1-O ,  2-H ) :   0.8975

Dispersion correction           -0.000231576
FINAL SINGLE POINT ENERGY      -115.729940958649

DIPOLE MOMENT
-------------
                                X             Y             Z
Electronic contribution:     -1.32787      -0.52980       1.41149
Nuclear contribution   :      1.22437       0.65243      -2.03690
                        -----------------------------------------
Total Dipole Moment    :     -0.10350       0.12263      -0.62540
                        -----------------------------------------
Magnitude (a.u.)       :      0.64566
Magnitude (Debye)      :      1.64115

Rotational constants in cm-1:     4.396146     0.856962     0.829504
Rotational constants in MHz : 131793.149175 25691.073461 24867.903549

                             ****ORCA TERMINATED NORMALLY****
TOTAL RUN TIME: 0 days 0 hours 0 minutes 41 seconds 659 msec
