                         Program Version 4.1.2  - RELEASE  -
|  1> #Run DFT-D3 single point of the dimer
|  2> ! wB97X-D3 def2-TZVP TIGHTSCF CHELPG PMODEL PAL8
|  3>
|  4> %base "14-36_DFT_AB"
|  5>
|  6> %scf
|  7> MaxIter 1000
|  8> end
|  9>
| 10> * xyz 0 1
| 11>   C                      9.292696             -8.407143            -10.959282
| 12>   O                      9.750118             -9.719901            -11.130576
| 13>   H                      10.356786            -9.725511            -11.852830
| 14>   H                      8.471294             -8.255547            -11.710006
| 15>   H                      8.921736             -8.207136            -9.946187
| 16>   H                      10.158140            -7.646811            -11.149071
| 17>   C                      10.841088            -7.127061            -6.891285
| 18>   O                      10.495546            -7.092162            -5.484353
| 19>   H                      9.956987             -6.291068            -5.245316
| 20>   H                      9.927392             -6.872766            -7.502368
| 21>   H                      11.640231            -6.359361            -7.120319
| 22>   H                      11.277844            -8.122326            -7.267426
| 23> *
| 24>
| 25> #Run DFT-D3 single point of the molecule with dimer basis set
| 26> $new_job
| 27> %base "14-36_DFT_A"
| 28> ! wB97X-D3 def2-TZVP TIGHTSCF CHELPG PMODEL
| 29>
| 30> %scf
| 31> MaxIter 1000
| 32> end
| 33>
| 34> * xyz 0 1
| 35>   C                      9.292696             -8.407143            -10.959282
| 36>   O                      9.750118             -9.719901            -11.130576
| 37>   H                      10.356786            -9.725511            -11.852830
| 38>   H                      8.471294             -8.255547            -11.710006
| 39>   H                      8.921736             -8.207136            -9.946187
| 40>   H                      10.158140            -7.646811            -11.149071
| 41>   C                    : 10.841088            -7.127061            -6.891285
| 42>   O                    : 10.495546            -7.092162            -5.484353
| 43>   H                    : 9.956987             -6.291068            -5.245316
| 44>   H                    : 9.927392             -6.872766            -7.502368
| 45>   H                    : 11.640231            -6.359361            -7.120319
| 46>   H                    : 11.277844            -8.122326            -7.267426
| 47> *
| 48>
| 49> #Run DFT-D3 single point of the particle with dimer basis set
| 50> $new_job
| 51> %base "14-36_DFT_B"
| 52> ! wB97X-D3 def2-TZVP TIGHTSCF CHELPG PMODEL
| 53>
| 54> %scf
| 55> MaxIter 1000
| 56> end
| 57>
| 58> * xyz 0 1
| 59>   C                    : 9.292696             -8.407143            -10.959282
| 60>   O                    : 9.750118             -9.719901            -11.130576
| 61>   H                    : 10.356786            -9.725511            -11.852830
| 62>   H                    : 8.471294             -8.255547            -11.710006
| 63>   H                    : 8.921736             -8.207136            -9.946187
| 64>   H                    : 10.158140            -7.646811            -11.149071
| 65>   C                      10.841088            -7.127061            -6.891285
| 66>   O                      10.495546            -7.092162            -5.484353
| 67>   H                      9.956987             -6.291068            -5.245316
| 68>   H                      9.927392             -6.872766            -7.502368
| 69>   H                      11.640231            -6.359361            -7.120319
| 70>   H                      11.277844            -8.122326            -7.267426
| 71> *
| 72>
| 73>                          ****END OF INPUT****
 Total Charge           Charge          ....    0
 Multiplicity           Mult            ....    1
 Number of Electrons    NEL             ....   36
Dispersion correction           -0.001076648
FINAL SINGLE POINT ENERGY      -231.460250550125
Dispersion correction           -0.000238915
FINAL SINGLE POINT ENERGY      -115.731650622467

CARTESIAN COORDINATES (ANGSTROEM)
---------------------------------
  C      9.292696   -8.407143  -10.959282
  O      9.750118   -9.719901  -11.130576
  H     10.356786   -9.725511  -11.852830
  H      8.471294   -8.255547  -11.710006
  H      8.921736   -8.207136   -9.946187
  H     10.158140   -7.646811  -11.149071
  C     10.841088   -7.127061   -6.891285
  O     10.495546   -7.092162   -5.484353
  H      9.956987   -6.291068   -5.245316
  H      9.927392   -6.872766   -7.502368
  H     11.640231   -6.359361   -7.120319
  H     11.277844   -8.122326   -7.267426

 Multiplicity           Mult            ....    1
 Number of Electrons    NEL             ....   18
 Basis Dimension        Dim             ....  172

ORBITAL ENERGIES
----------------

  NO   OCC          E(Eh)            E(eV)
   0   2.0000     -19.232476      -523.3423
   1   2.0000     -10.331141      -281.1247
   2   2.0000      -1.117303       -30.4034
   3   2.0000      -0.786124       -21.3915
   4   2.0000      -0.598613       -16.2891
   5   2.0000      -0.531629       -14.4664
   6   2.0000      -0.521460       -14.1897
   7   2.0000      -0.424691       -11.5564
   8   2.0000      -0.371418       -10.1068
   9   0.0000       0.082490         2.2447
  10   0.0000       0.110176         2.9980
  11   0.0000       0.139330         3.7914
  12   0.0000       0.164263         4.4698
  13   0.0000       0.187876         5.1124

MULLIKEN ATOMIC CHARGES
-----------------------
   0 C :    0.000301
   1 O :    0.000005
   2 H :    0.000001
   3 H :   -0.000054
   4 H :   -0.001317
   5 H :    0.000024
   6 C :   -0.170676
   7 O :   -0.490838
   8 H :    0.322037
   9 H :    0.109659
  10 H :    0.105160
  11 H :    0.125698
Sum of atomic charges:    0.0000000

LOEWDIN ATOMIC CHARGES
----------------------
   0 C :   -0.000735
   1 O :   -0.000010
   2 H :   -0.000001
   3 H :   -0.000005
   4 H :   -0.001345
   5 H :   -0.000066
   6 C :   -0.379146
   7 O :   -0.123890
   8 H :    0.186304
   9 H :    0.101036
  10 H :    0.099364
  11 H :    0.118495

  Mayer bond orders larger than 0.1
B(  6-C ,  7-O ) :   0.9900 B(  6-C ,  9-H ) :   0.9772 B(  6-C , 10-H ) :   0.9699
B(  6-C , 11-H ) :   0.9662 B(  7-O ,  8-H ) :   0.8872

Dispersion correction           -0.000287305
FINAL SINGLE POINT ENERGY      -115.728181333232

DIPOLE MOMENT
-------------
                                X             Y             Z
Electronic contribution:     -0.38606      -0.15064       1.84148
Nuclear contribution   :      0.18435       0.64200      -2.27364
                        -----------------------------------------
Total Dipole Moment    :     -0.20172       0.49136      -0.43216
                        -----------------------------------------
Magnitude (a.u.)       :      0.68475
Magnitude (Debye)      :      1.74050

Rotational constants in cm-1:     4.089378     0.779828     0.751933
Rotational constants in MHz : 122596.459080 23378.660714 22542.385932

                             ****ORCA TERMINATED NORMALLY****
TOTAL RUN TIME: 0 days 0 hours 1 minutes 7 seconds 56 msec
