                         Program Version 4.1.2  - RELEASE  -
|  1> #Run DFT-D3 single point of the dimer
|  2> ! wB97X-D3 def2-TZVP TIGHTSCF CHELPG PMODEL PAL8
|  3>
|  4> %base "9-100_DFT_AB"
|  5>
|  6> %scf
|  7> MaxIter 1000
|  8> end
|  9>
| 10> * xyz 0 1
| 11>   C                      -2.747217            -1.439285            7.215734
| 12>   O                      -3.661565            -2.257749            7.941439
| 13>   H                      -4.087411            -2.914877            7.304557
| 14>   H                      -1.744539            -1.863552            7.165893
| 15>   H                      -3.187766            -1.140830            6.244377
| 16>   H                      -2.642980            -0.476722            7.720025
| 17>   C                      -6.947420            -2.638629            6.020418
| 18>   O                      -5.855976            -2.041525            5.479451
| 19>   H                      -5.253015            -2.692802            5.068501
| 20>   H                      -6.845005            -3.713180            5.835701
| 21>   H                      -7.038232            -2.528567            7.063693
| 22>   H                      -7.817227            -2.309417            5.550734
| 23> *
| 24>
| 25> #Run DFT-D3 single point of the molecule with dimer basis set
| 26> $new_job
| 27> %base "9-100_DFT_A"
| 28> ! wB97X-D3 def2-TZVP TIGHTSCF CHELPG PMODEL
| 29>
| 30> %scf
| 31> MaxIter 1000
| 32> end
| 33>
| 34> * xyz 0 1
| 35>   C                      -2.747217            -1.439285            7.215734
| 36>   O                      -3.661565            -2.257749            7.941439
| 37>   H                      -4.087411            -2.914877            7.304557
| 38>   H                      -1.744539            -1.863552            7.165893
| 39>   H                      -3.187766            -1.140830            6.244377
| 40>   H                      -2.642980            -0.476722            7.720025
| 41>   C                    : -6.947420            -2.638629            6.020418
| 42>   O                    : -5.855976            -2.041525            5.479451
| 43>   H                    : -5.253015            -2.692802            5.068501
| 44>   H                    : -6.845005            -3.713180            5.835701
| 45>   H                    : -7.038232            -2.528567            7.063693
| 46>   H                    : -7.817227            -2.309417            5.550734
| 47> *
| 48>
| 49> #Run DFT-D3 single point of the particle with dimer basis set
| 50> $new_job
| 51> %base "9-100_DFT_B"
| 52> ! wB97X-D3 def2-TZVP TIGHTSCF CHELPG PMODEL
| 53>
| 54> %scf
| 55> MaxIter 1000
| 56> end
| 57>
| 58> * xyz 0 1
| 59>   C                    : -2.747217            -1.439285            7.215734
| 60>   O                    : -3.661565            -2.257749            7.941439
| 61>   H                    : -4.087411            -2.914877            7.304557
| 62>   H                    : -1.744539            -1.863552            7.165893
| 63>   H                    : -3.187766            -1.140830            6.244377
| 64>   H                    : -2.642980            -0.476722            7.720025
| 65>   C                      -6.947420            -2.638629            6.020418
| 66>   O                      -5.855976            -2.041525            5.479451
| 67>   H                      -5.253015            -2.692802            5.068501
| 68>   H                      -6.845005            -3.713180            5.835701
| 69>   H                      -7.038232            -2.528567            7.063693
| 70>   H                      -7.817227            -2.309417            5.550734
| 71> *
| 72>
| 73>                          ****END OF INPUT****
 Total Charge           Charge          ....    0
 Multiplicity           Mult            ....    1
 Number of Electrons    NEL             ....   36
Dispersion correction           -0.001946646
FINAL SINGLE POINT ENERGY      -231.462034553801
Dispersion correction           -0.000258130
FINAL SINGLE POINT ENERGY      -115.732840192280

CARTESIAN COORDINATES (ANGSTROEM)
---------------------------------
  C     -2.747217   -1.439285    7.215734
  O     -3.661565   -2.257749    7.941439
  H     -4.087411   -2.914877    7.304557
  H     -1.744539   -1.863552    7.165893
  H     -3.187766   -1.140830    6.244377
  H     -2.642980   -0.476722    7.720025
  C     -6.947420   -2.638629    6.020418
  O     -5.855976   -2.041525    5.479451
  H     -5.253015   -2.692802    5.068501
  H     -6.845005   -3.713180    5.835701
  H     -7.038232   -2.528567    7.063693
  H     -7.817227   -2.309417    5.550734

 Multiplicity           Mult            ....    1
 Number of Electrons    NEL             ....   18
 Basis Dimension        Dim             ....  172

ORBITAL ENERGIES
----------------

  NO   OCC          E(Eh)            E(eV)
   0   2.0000     -19.227913      -523.2181
   1   2.0000     -10.297664      -280.2137
   2   2.0000      -1.149152       -31.2700
   3   2.0000      -0.799463       -21.7545
   4   2.0000      -0.621312       -16.9068
   5   2.0000      -0.556206       -15.1351
   6   2.0000      -0.542424       -14.7601
   7   2.0000      -0.418532       -11.3888
   8   2.0000      -0.372372       -10.1328
   9   0.0000       0.088351         2.4042
  10   0.0000       0.122259         3.3268
  11   0.0000       0.154882         4.2145
  12   0.0000       0.182545         4.9673
  13   0.0000       0.198181         5.3928

MULLIKEN ATOMIC CHARGES
-----------------------
   0 C :    0.002632
   1 O :    0.001691
   2 H :   -0.009037
   3 H :   -0.000149
   4 H :   -0.005939
   5 H :   -0.000291
   6 C :   -0.145787
   7 O :   -0.474843
   8 H :    0.327040
   9 H :    0.090435
  10 H :    0.107563
  11 H :    0.106687
Sum of atomic charges:   -0.0000000

LOEWDIN ATOMIC CHARGES
----------------------
   0 C :   -0.004879
   1 O :   -0.001805
   2 H :   -0.007844
   3 H :   -0.000051
   4 H :   -0.004536
   5 H :   -0.000066
   6 C :   -0.414945
   7 O :   -0.032162
   8 H :    0.186733
   9 H :    0.098999
  10 H :    0.090864
  11 H :    0.089693

  Mayer bond orders larger than 0.1
B(  6-C ,  7-O ) :   1.0038 B(  6-C ,  9-H ) :   1.0004 B(  6-C , 10-H ) :   0.9763
B(  6-C , 11-H ) :   0.9777 B(  7-O ,  8-H ) :   0.8895

Dispersion correction           -0.000214957
FINAL SINGLE POINT ENERGY      -115.728489217677

DIPOLE MOMENT
-------------
                                X             Y             Z
Electronic contribution:      1.31695       1.01482      -0.62467
Nuclear contribution   :     -1.35164      -1.67953       0.54814
                        -----------------------------------------
Total Dipole Moment    :     -0.03469      -0.66471      -0.07652
                        -----------------------------------------
Magnitude (a.u.)       :      0.67000
Magnitude (Debye)      :      1.70301

Rotational constants in cm-1:     4.513284     0.893794     0.858537
Rotational constants in MHz : 135304.858990 26795.284461 25738.300734

                             ****ORCA TERMINATED NORMALLY****
TOTAL RUN TIME: 0 days 0 hours 0 minutes 42 seconds 409 msec
