                         Program Version 4.1.2  - RELEASE  -
|  1> #Run DFT-D3 single point of the dimer
|  2> ! wB97X-D3 def2-TZVP TIGHTSCF CHELPG PMODEL PAL8
|  3>
|  4> %base "1-19_DFT_AB"
|  5>
|  6> %scf
|  7> MaxIter 1000
|  8> end
|  9>
| 10> * xyz 0 1
| 11>   C                      -2.881200            5.269052             1.066537
| 12>   O                      -2.445104            4.075524             0.341486
| 13>   H                      -2.756895            4.205874             -0.534556
| 14>   H                      -3.832270            5.165989             1.402556
| 15>   H                      -2.191036            5.618454             1.900053
| 16>   H                      -2.957396            6.094008             0.292697
| 17>   C                      -5.817098            5.117289             0.959725
| 18>   O                      -5.056655            4.313537             0.051820
| 19>   H                      -5.327587            3.399154             0.011948
| 20>   H                      -5.612948            6.226188             0.834569
| 21>   H                      -6.906491            4.974172             0.815594
| 22>   H                      -5.504647            4.884335             1.969630
| 23> *
| 24>
| 25> #Run DFT-D3 single point of the molecule with dimer basis set
| 26> $new_job
| 27> %base "1-19_DFT_A"
| 28> ! wB97X-D3 def2-TZVP TIGHTSCF CHELPG PMODEL
| 29>
| 30> %scf
| 31> MaxIter 1000
| 32> end
| 33>
| 34> * xyz 0 1
| 35>   C                      -2.881200            5.269052             1.066537
| 36>   O                      -2.445104            4.075524             0.341486
| 37>   H                      -2.756895            4.205874             -0.534556
| 38>   H                      -3.832270            5.165989             1.402556
| 39>   H                      -2.191036            5.618454             1.900053
| 40>   H                      -2.957396            6.094008             0.292697
| 41>   C                    : -5.817098            5.117289             0.959725
| 42>   O                    : -5.056655            4.313537             0.051820
| 43>   H                    : -5.327587            3.399154             0.011948
| 44>   H                    : -5.612948            6.226188             0.834569
| 45>   H                    : -6.906491            4.974172             0.815594
| 46>   H                    : -5.504647            4.884335             1.969630
| 47> *
| 48>
| 49> #Run DFT-D3 single point of the particle with dimer basis set
| 50> $new_job
| 51> %base "1-19_DFT_B"
| 52> ! wB97X-D3 def2-TZVP TIGHTSCF CHELPG PMODEL
| 53>
| 54> %scf
| 55> MaxIter 1000
| 56> end
| 57>
| 58> * xyz 0 1
| 59>   C                    : -2.881200            5.269052             1.066537
| 60>   O                    : -2.445104            4.075524             0.341486
| 61>   H                    : -2.756895            4.205874             -0.534556
| 62>   H                    : -3.832270            5.165989             1.402556
| 63>   H                    : -2.191036            5.618454             1.900053
| 64>   H                    : -2.957396            6.094008             0.292697
| 65>   C                      -5.817098            5.117289             0.959725
| 66>   O                      -5.056655            4.313537             0.051820
| 67>   H                      -5.327587            3.399154             0.011948
| 68>   H                      -5.612948            6.226188             0.834569
| 69>   H                      -6.906491            4.974172             0.815594
| 70>   H                      -5.504647            4.884335             1.969630
| 71> *
| 72>
| 73>                          ****END OF INPUT****
 Total Charge           Charge          ....    0
 Multiplicity           Mult            ....    1
 Number of Electrons    NEL             ....   36
Dispersion correction           -0.002340420
FINAL SINGLE POINT ENERGY      -231.445636072274
Dispersion correction           -0.000244874
FINAL SINGLE POINT ENERGY      -115.725095074755

CARTESIAN COORDINATES (ANGSTROEM)
---------------------------------
  C     -2.881200    5.269052    1.066537
  O     -2.445104    4.075524    0.341486
  H     -2.756895    4.205874   -0.534556
  H     -3.832270    5.165989    1.402556
  H     -2.191036    5.618454    1.900053
  H     -2.957396    6.094008    0.292697
  C     -5.817098    5.117289    0.959725
  O     -5.056655    4.313537    0.051820
  H     -5.327587    3.399154    0.011948
  H     -5.612948    6.226188    0.834569
  H     -6.906491    4.974172    0.815594
  H     -5.504647    4.884335    1.969630

 Multiplicity           Mult            ....    1
 Number of Electrons    NEL             ....   18
 Basis Dimension        Dim             ....  172

ORBITAL ENERGIES
----------------

  NO   OCC          E(Eh)            E(eV)
   0   2.0000     -19.227059      -523.1949
   1   2.0000     -10.320466      -280.8342
   2   2.0000      -1.127873       -30.6910
   3   2.0000      -0.796426       -21.6718
   4   2.0000      -0.606871       -16.5138
   5   2.0000      -0.543779       -14.7970
   6   2.0000      -0.524112       -14.2618
   7   2.0000      -0.422750       -11.5036
   8   2.0000      -0.374167       -10.1816
   9   0.0000       0.100764         2.7419
  10   0.0000       0.136301         3.7090
  11   0.0000       0.148032         4.0282
  12   0.0000       0.182498         4.9660
  13   0.0000       0.200037         5.4433

MULLIKEN ATOMIC CHARGES
-----------------------
   0 C :    0.002977
   1 O :    0.004007
   2 H :   -0.006758
   3 H :    0.012238
   4 H :    0.001072
   5 H :   -0.005052
   6 C :   -0.194196
   7 O :   -0.489311
   8 H :    0.315968
   9 H :    0.121590
  10 H :    0.122944
  11 H :    0.114521
Sum of atomic charges:    0.0000000

LOEWDIN ATOMIC CHARGES
----------------------
   0 C :   -0.050355
   1 O :   -0.014891
   2 H :   -0.013207
   3 H :   -0.035564
   4 H :   -0.000361
   5 H :   -0.002957
   6 C :   -0.350146
   7 O :   -0.022880
   8 H :    0.163356
   9 H :    0.123187
  10 H :    0.100970
  11 H :    0.102848

  Mayer bond orders larger than 0.1
B(  6-C ,  7-O ) :   0.9894 B(  6-C ,  9-H ) :   0.9704 B(  6-C , 10-H ) :   0.9707
B(  6-C , 11-H ) :   0.9858 B(  7-O ,  8-H ) :   0.8934

Dispersion correction           -0.000265335
FINAL SINGLE POINT ENERGY      -115.733647070352

DIPOLE MOMENT
-------------
                                X             Y             Z
Electronic contribution:      0.98223      -0.94389      -1.16959
Nuclear contribution   :     -1.48753       0.69249       1.52469
                        -----------------------------------------
Total Dipole Moment    :     -0.50530      -0.25140       0.35509
                        -----------------------------------------
Magnitude (a.u.)       :      0.66680
Magnitude (Debye)      :      1.69488

Rotational constants in cm-1:     4.311351     0.802041     0.778306
Rotational constants in MHz : 129251.061845 24044.573444 23333.033231

                             ****ORCA TERMINATED NORMALLY****
TOTAL RUN TIME: 0 days 0 hours 4 minutes 52 seconds 174 msec
