                         Program Version 4.1.2  - RELEASE  -
|  1> #Run DFT-D3 single point of the dimer
|  2> ! wB97X-D3 def2-TZVP TIGHTSCF CHELPG PMODEL PAL8
|  3>
|  4> %base "1-173_DFT_AB"
|  5>
|  6> %scf
|  7> MaxIter 1000
|  8> end
|  9>
| 10> * xyz 0 1
| 11>   C                      3.124411             6.760712             0.079226
| 12>   O                      3.436967             7.917179             -0.688378
| 13>   H                      4.331407             7.963091             -0.943924
| 14>   H                      3.279896             7.001139             1.161215
| 15>   H                      2.073027             6.448068             0.115483
| 16>   H                      3.707843             5.875850             -0.206455
| 17>   C                      8.145846             11.783341            0.442397
| 18>   O                      8.499043             10.451135            0.127607
| 19>   H                      7.846005             10.130559            -0.477154
| 20>   H                      7.056887             11.959913            0.720150
| 21>   H                      8.715638             12.109404            1.251351
| 22>   H                      8.423194             12.477013            -0.366497
| 23> *
| 24>
| 25> #Run DFT-D3 single point of the molecule with dimer basis set
| 26> $new_job
| 27> %base "1-173_DFT_A"
| 28> ! wB97X-D3 def2-TZVP TIGHTSCF CHELPG PMODEL
| 29>
| 30> %scf
| 31> MaxIter 1000
| 32> end
| 33>
| 34> * xyz 0 1
| 35>   C                      3.124411             6.760712             0.079226
| 36>   O                      3.436967             7.917179             -0.688378
| 37>   H                      4.331407             7.963091             -0.943924
| 38>   H                      3.279896             7.001139             1.161215
| 39>   H                      2.073027             6.448068             0.115483
| 40>   H                      3.707843             5.875850             -0.206455
| 41>   C                    : 8.145846             11.783341            0.442397
| 42>   O                    : 8.499043             10.451135            0.127607
| 43>   H                    : 7.846005             10.130559            -0.477154
| 44>   H                    : 7.056887             11.959913            0.720150
| 45>   H                    : 8.715638             12.109404            1.251351
| 46>   H                    : 8.423194             12.477013            -0.366497
| 47> *
| 48>
| 49> #Run DFT-D3 single point of the particle with dimer basis set
| 50> $new_job
| 51> %base "1-173_DFT_B"
| 52> ! wB97X-D3 def2-TZVP TIGHTSCF CHELPG PMODEL
| 53>
| 54> %scf
| 55> MaxIter 1000
| 56> end
| 57>
| 58> * xyz 0 1
| 59>   C                    : 3.124411             6.760712             0.079226
| 60>   O                    : 3.436967             7.917179             -0.688378
| 61>   H                    : 4.331407             7.963091             -0.943924
| 62>   H                    : 3.279896             7.001139             1.161215
| 63>   H                    : 2.073027             6.448068             0.115483
| 64>   H                    : 3.707843             5.875850             -0.206455
| 65>   C                      8.145846             11.783341            0.442397
| 66>   O                      8.499043             10.451135            0.127607
| 67>   H                      7.846005             10.130559            -0.477154
| 68>   H                      7.056887             11.959913            0.720150
| 69>   H                      8.715638             12.109404            1.251351
| 70>   H                      8.423194             12.477013            -0.366497
| 71> *
| 72>
| 73>                          ****END OF INPUT****
 Total Charge           Charge          ....    0
 Multiplicity           Mult            ....    1
 Number of Electrons    NEL             ....   36
Dispersion correction           -0.000622872
FINAL SINGLE POINT ENERGY      -231.463647359755
Dispersion correction           -0.000269780
FINAL SINGLE POINT ENERGY      -115.730227789011

CARTESIAN COORDINATES (ANGSTROEM)
---------------------------------
  C      3.124411    6.760712    0.079226
  O      3.436967    7.917179   -0.688378
  H      4.331407    7.963091   -0.943924
  H      3.279896    7.001139    1.161215
  H      2.073027    6.448068    0.115483
  H      3.707843    5.875850   -0.206455
  C      8.145846   11.783341    0.442397
  O      8.499043   10.451135    0.127607
  H      7.846005   10.130559   -0.477154
  H      7.056887   11.959913    0.720150
  H      8.715638   12.109404    1.251351
  H      8.423194   12.477013   -0.366497

 Multiplicity           Mult            ....    1
 Number of Electrons    NEL             ....   18
 Basis Dimension        Dim             ....  172

ORBITAL ENERGIES
----------------

  NO   OCC          E(Eh)            E(eV)
   0   2.0000     -19.231613      -523.3188
   1   2.0000     -10.311968      -280.6029
   2   2.0000      -1.140632       -31.0382
   3   2.0000      -0.799149       -21.7459
   4   2.0000      -0.610949       -16.6248
   5   2.0000      -0.537732       -14.6324
   6   2.0000      -0.531752       -14.4697
   7   2.0000      -0.437498       -11.9049
   8   2.0000      -0.374943       -10.2027
   9   0.0000       0.082107         2.2343
  10   0.0000       0.113645         3.0924
  11   0.0000       0.150439         4.0936
  12   0.0000       0.166303         4.5253
  13   0.0000       0.196936         5.3589

MULLIKEN ATOMIC CHARGES
-----------------------
   0 C :    0.000007
   1 O :    0.000005
   2 H :   -0.000056
   3 H :   -0.000001
   4 H :   -0.000000
   5 H :   -0.000000
   6 C :   -0.171595
   7 O :   -0.464973
   8 H :    0.313086
   9 H :    0.098694
  10 H :    0.123647
  11 H :    0.101186
Sum of atomic charges:    0.0000000

LOEWDIN ATOMIC CHARGES
----------------------
   0 C :   -0.000001
   1 O :   -0.000001
   2 H :   -0.000044
   3 H :   -0.000000
   4 H :   -0.000000
   5 H :   -0.000000
   6 C :   -0.388890
   7 O :   -0.066121
   8 H :    0.160802
   9 H :    0.102492
  10 H :    0.095660
  11 H :    0.096104

  Mayer bond orders larger than 0.1
B(  6-C ,  7-O ) :   1.0086 B(  6-C ,  9-H ) :   0.9725 B(  6-C , 10-H ) :   0.9759
B(  6-C , 11-H ) :   0.9755 B(  7-O ,  8-H ) :   0.9039

Dispersion correction           -0.000252049
FINAL SINGLE POINT ENERGY      -115.733519966268

DIPOLE MOMENT
-------------
                                X             Y             Z
Electronic contribution:      0.57426      -1.79269      -0.30152
Nuclear contribution   :     -1.10317       2.11224       0.06151
                        -----------------------------------------
Total Dipole Moment    :     -0.52891       0.31955      -0.24001
                        -----------------------------------------
Magnitude (a.u.)       :      0.66292
Magnitude (Debye)      :      1.68501

Rotational constants in cm-1:     4.382658     0.825000     0.800063
Rotational constants in MHz : 131388.777506 24732.869725 23985.288194

                             ****ORCA TERMINATED NORMALLY****
TOTAL RUN TIME: 0 days 0 hours 5 minutes 59 seconds 890 msec
