                         Program Version 4.1.2  - RELEASE  -
|  1> #Run DFT-D3 single point of the dimer
|  2> ! wB97X-D3 def2-TZVP TIGHTSCF CHELPG PMODEL PAL8
|  3>
|  4> %base "17-98_DFT_AB"
|  5>
|  6> %scf
|  7> MaxIter 1000
|  8> end
|  9>
| 10> * xyz 0 1
| 11>   C                      6.352193             4.195746             -4.190666
| 12>   O                      5.100575             4.500113             -4.616961
| 13>   H                      4.495087             4.304367             -3.860152
| 14>   H                      7.093230             4.700914             -4.815245
| 15>   H                      6.551793             4.589563             -3.174605
| 16>   H                      6.623159             3.143777             -4.209572
| 17>   C                      8.235340             8.821451             -2.245751
| 18>   O                      8.494879             7.507418             -1.816378
| 19>   H                      9.430188             7.548700             -1.544468
| 20>   H                      8.709518             9.197691             -3.134328
| 21>   H                      7.129239             8.888882             -2.486787
| 22>   H                      8.454446             9.556951             -1.442571
| 23> *
| 24>
| 25> #Run DFT-D3 single point of the molecule with dimer basis set
| 26> $new_job
| 27> %base "17-98_DFT_A"
| 28> ! wB97X-D3 def2-TZVP TIGHTSCF CHELPG PMODEL
| 29>
| 30> %scf
| 31> MaxIter 1000
| 32> end
| 33>
| 34> * xyz 0 1
| 35>   C                      6.352193             4.195746             -4.190666
| 36>   O                      5.100575             4.500113             -4.616961
| 37>   H                      4.495087             4.304367             -3.860152
| 38>   H                      7.093230             4.700914             -4.815245
| 39>   H                      6.551793             4.589563             -3.174605
| 40>   H                      6.623159             3.143777             -4.209572
| 41>   C                    : 8.235340             8.821451             -2.245751
| 42>   O                    : 8.494879             7.507418             -1.816378
| 43>   H                    : 9.430188             7.548700             -1.544468
| 44>   H                    : 8.709518             9.197691             -3.134328
| 45>   H                    : 7.129239             8.888882             -2.486787
| 46>   H                    : 8.454446             9.556951             -1.442571
| 47> *
| 48>
| 49> #Run DFT-D3 single point of the particle with dimer basis set
| 50> $new_job
| 51> %base "17-98_DFT_B"
| 52> ! wB97X-D3 def2-TZVP TIGHTSCF CHELPG PMODEL
| 53>
| 54> %scf
| 55> MaxIter 1000
| 56> end
| 57>
| 58> * xyz 0 1
| 59>   C                    : 6.352193             4.195746             -4.190666
| 60>   O                    : 5.100575             4.500113             -4.616961
| 61>   H                    : 4.495087             4.304367             -3.860152
| 62>   H                    : 7.093230             4.700914             -4.815245
| 63>   H                    : 6.551793             4.589563             -3.174605
| 64>   H                    : 6.623159             3.143777             -4.209572
| 65>   C                      8.235340             8.821451             -2.245751
| 66>   O                      8.494879             7.507418             -1.816378
| 67>   H                      9.430188             7.548700             -1.544468
| 68>   H                      8.709518             9.197691             -3.134328
| 69>   H                      7.129239             8.888882             -2.486787
| 70>   H                      8.454446             9.556951             -1.442571
| 71> *
| 72>
| 73>                          ****END OF INPUT****
 Total Charge           Charge          ....    0
 Multiplicity           Mult            ....    1
 Number of Electrons    NEL             ....   36
Dispersion correction           -0.000775320
FINAL SINGLE POINT ENERGY      -231.466800798415
Dispersion correction           -0.000226117
FINAL SINGLE POINT ENERGY      -115.733128952932

CARTESIAN COORDINATES (ANGSTROEM)
---------------------------------
  C      6.352193    4.195746   -4.190666
  O      5.100575    4.500113   -4.616961
  H      4.495087    4.304367   -3.860152
  H      7.093230    4.700914   -4.815245
  H      6.551793    4.589563   -3.174605
  H      6.623159    3.143777   -4.209572
  C      8.235340    8.821451   -2.245751
  O      8.494879    7.507418   -1.816378
  H      9.430188    7.548700   -1.544468
  H      8.709518    9.197691   -3.134328
  H      7.129239    8.888882   -2.486787
  H      8.454446    9.556951   -1.442571

 Multiplicity           Mult            ....    1
 Number of Electrons    NEL             ....   18
 Basis Dimension        Dim             ....  172

ORBITAL ENERGIES
----------------

  NO   OCC          E(Eh)            E(eV)
   0   2.0000     -19.237947      -523.4912
   1   2.0000     -10.315749      -280.7058
   2   2.0000      -1.141729       -31.0680
   3   2.0000      -0.790624       -21.5140
   4   2.0000      -0.613883       -16.7046
   5   2.0000      -0.542349       -14.7581
   6   2.0000      -0.520880       -14.1739
   7   2.0000      -0.437255       -11.8983
   8   2.0000      -0.376516       -10.2455
   9   0.0000       0.094885         2.5819
  10   0.0000       0.114478         3.1151
  11   0.0000       0.151831         4.1315
  12   0.0000       0.174173         4.7395
  13   0.0000       0.189652         5.1607

MULLIKEN ATOMIC CHARGES
-----------------------
   0 C :    0.000503
   1 O :   -0.000001
   2 H :   -0.000002
   3 H :   -0.000256
   4 H :   -0.001772
   5 H :   -0.000069
   6 C :   -0.176842
   7 O :   -0.455274
   8 H :    0.314516
   9 H :    0.102587
  10 H :    0.114890
  11 H :    0.101721
Sum of atomic charges:    0.0000000

LOEWDIN ATOMIC CHARGES
----------------------
   0 C :   -0.000398
   1 O :   -0.000009
   2 H :   -0.000001
   3 H :   -0.000114
   4 H :   -0.000725
   5 H :   -0.000003
   6 C :   -0.408546
   7 O :   -0.071979
   8 H :    0.181462
   9 H :    0.087309
  10 H :    0.116542
  11 H :    0.096462

  Mayer bond orders larger than 0.1
B(  6-C ,  7-O ) :   1.0078 B(  6-C ,  9-H ) :   0.9629 B(  6-C , 10-H ) :   0.9769
B(  6-C , 11-H ) :   0.9790 B(  7-O ,  8-H ) :   0.8991

Dispersion correction           -0.000244419
FINAL SINGLE POINT ENERGY      -115.732900982994

DIPOLE MOMENT
-------------
                                X             Y             Z
Electronic contribution:      0.32603      -1.85624       0.49348
Nuclear contribution   :      0.15660       2.37577      -0.49412
                        -----------------------------------------
Total Dipole Moment    :      0.48263       0.51953      -0.00064
                        -----------------------------------------
Magnitude (a.u.)       :      0.70912
Magnitude (Debye)      :      1.80243

Rotational constants in cm-1:     4.242720     0.836799     0.799121
Rotational constants in MHz : 127193.551641 25086.605073 23957.052032

                             ****ORCA TERMINATED NORMALLY****
TOTAL RUN TIME: 0 days 0 hours 1 minutes 8 seconds 42 msec
