                         Program Version 4.1.2  - RELEASE  -
|  1> #Run DFT-D3 single point of the dimer
|  2> ! wB97X-D3 def2-TZVP TIGHTSCF CHELPG PMODEL PAL8
|  3>
|  4> %base "12-175_DFT_AB"
|  5>
|  6> %scf
|  7> MaxIter 1000
|  8> end
|  9>
| 10> * xyz 0 1
| 11>   C                      -0.339149            -4.423199            -5.326055
| 12>   O                      -0.038769            -3.807960            -6.553983
| 13>   H                      0.856931             -4.029601            -6.766577
| 14>   H                      -1.183695            -3.938080            -4.910688
| 15>   H                      -0.641640            -5.450036            -5.588658
| 16>   H                      0.493558             -4.491203            -4.588605
| 17>   C                      -2.536524            -5.092368            -7.937010
| 18>   O                      -2.490493            -3.661079            -7.850409
| 19>   H                      -1.765617            -3.529473            -7.212944
| 20>   H                      -3.324037            -5.370341            -8.616925
| 21>   H                      -1.589571            -5.589738            -8.198997
| 22>   H                      -2.937698            -5.591596            -7.043664
| 23> *
| 24>
| 25> #Run DFT-D3 single point of the molecule with dimer basis set
| 26> $new_job
| 27> %base "12-175_DFT_A"
| 28> ! wB97X-D3 def2-TZVP TIGHTSCF CHELPG PMODEL
| 29>
| 30> %scf
| 31> MaxIter 1000
| 32> end
| 33>
| 34> * xyz 0 1
| 35>   C                      -0.339149            -4.423199            -5.326055
| 36>   O                      -0.038769            -3.807960            -6.553983
| 37>   H                      0.856931             -4.029601            -6.766577
| 38>   H                      -1.183695            -3.938080            -4.910688
| 39>   H                      -0.641640            -5.450036            -5.588658
| 40>   H                      0.493558             -4.491203            -4.588605
| 41>   C                    : -2.536524            -5.092368            -7.937010
| 42>   O                    : -2.490493            -3.661079            -7.850409
| 43>   H                    : -1.765617            -3.529473            -7.212944
| 44>   H                    : -3.324037            -5.370341            -8.616925
| 45>   H                    : -1.589571            -5.589738            -8.198997
| 46>   H                    : -2.937698            -5.591596            -7.043664
| 47> *
| 48>
| 49> #Run DFT-D3 single point of the particle with dimer basis set
| 50> $new_job
| 51> %base "12-175_DFT_B"
| 52> ! wB97X-D3 def2-TZVP TIGHTSCF CHELPG PMODEL
| 53>
| 54> %scf
| 55> MaxIter 1000
| 56> end
| 57>
| 58> * xyz 0 1
| 59>   C                    : -0.339149            -4.423199            -5.326055
| 60>   O                    : -0.038769            -3.807960            -6.553983
| 61>   H                    : 0.856931             -4.029601            -6.766577
| 62>   H                    : -1.183695            -3.938080            -4.910688
| 63>   H                    : -0.641640            -5.450036            -5.588658
| 64>   H                    : 0.493558             -4.491203            -4.588605
| 65>   C                      -2.536524            -5.092368            -7.937010
| 66>   O                      -2.490493            -3.661079            -7.850409
| 67>   H                      -1.765617            -3.529473            -7.212944
| 68>   H                      -3.324037            -5.370341            -8.616925
| 69>   H                      -1.589571            -5.589738            -8.198997
| 70>   H                      -2.937698            -5.591596            -7.043664
| 71> *
| 72>
| 73>                          ****END OF INPUT****
 Total Charge           Charge          ....    0
 Multiplicity           Mult            ....    1
 Number of Electrons    NEL             ....   36
Dispersion correction           -0.002418145
FINAL SINGLE POINT ENERGY      -231.472284375445
Dispersion correction           -0.000229591
FINAL SINGLE POINT ENERGY      -115.734164189717

CARTESIAN COORDINATES (ANGSTROEM)
---------------------------------
  C     -0.339149   -4.423199   -5.326055
  O     -0.038769   -3.807960   -6.553983
  H      0.856931   -4.029601   -6.766577
  H     -1.183695   -3.938080   -4.910688
  H     -0.641640   -5.450036   -5.588658
  H      0.493558   -4.491203   -4.588605
  C     -2.536524   -5.092368   -7.937010
  O     -2.490493   -3.661079   -7.850409
  H     -1.765617   -3.529473   -7.212944
  H     -3.324037   -5.370341   -8.616925
  H     -1.589571   -5.589738   -8.198997
  H     -2.937698   -5.591596   -7.043664

 Multiplicity           Mult            ....    1
 Number of Electrons    NEL             ....   18
 Basis Dimension        Dim             ....  172

ORBITAL ENERGIES
----------------

  NO   OCC          E(Eh)            E(eV)
   0   2.0000     -19.238712      -523.5120
   1   2.0000     -10.313824      -280.6534
   2   2.0000      -1.133760       -30.8512
   3   2.0000      -0.796484       -21.6734
   4   2.0000      -0.606759       -16.5108
   5   2.0000      -0.542060       -14.7502
   6   2.0000      -0.519219       -14.1287
   7   2.0000      -0.443673       -12.0730
   8   2.0000      -0.377413       -10.2699
   9   0.0000       0.068549         1.8653
  10   0.0000       0.143132         3.8948
  11   0.0000       0.146536         3.9874
  12   0.0000       0.152565         4.1515
  13   0.0000       0.200111         5.4453

MULLIKEN ATOMIC CHARGES
-----------------------
   0 C :   -0.000963
   1 O :   -0.006238
   2 H :   -0.000541
   3 H :   -0.001196
   4 H :   -0.001659
   5 H :   -0.000133
   6 C :   -0.202272
   7 O :   -0.453732
   8 H :    0.317374
   9 H :    0.130551
  10 H :    0.112698
  11 H :    0.106111
Sum of atomic charges:   -0.0000000

LOEWDIN ATOMIC CHARGES
----------------------
   0 C :   -0.012417
   1 O :   -0.024164
   2 H :   -0.001064
   3 H :   -0.001992
   4 H :   -0.002957
   5 H :   -0.000145
   6 C :   -0.380117
   7 O :   -0.073228
   8 H :    0.191105
   9 H :    0.106910
  10 H :    0.099610
  11 H :    0.098461

  Mayer bond orders larger than 0.1
B(  6-C ,  7-O ) :   1.0012 B(  6-C ,  9-H ) :   0.9768 B(  6-C , 10-H ) :   0.9706
B(  6-C , 11-H ) :   0.9734 B(  7-O ,  8-H ) :   0.9084

Dispersion correction           -0.000252979
FINAL SINGLE POINT ENERGY      -115.732574732625

DIPOLE MOMENT
-------------
                                X             Y             Z
Electronic contribution:      0.04021       1.95312      -0.04772
Nuclear contribution   :      0.34783      -2.43499       0.39206
                        -----------------------------------------
Total Dipole Moment    :      0.38803      -0.48187       0.34433
                        -----------------------------------------
Magnitude (a.u.)       :      0.70805
Magnitude (Debye)      :      1.79973

Rotational constants in cm-1:     4.329193     0.810733     0.779151
Rotational constants in MHz : 129785.951773 24305.160858 23358.347088

                             ****ORCA TERMINATED NORMALLY****
TOTAL RUN TIME: 0 days 0 hours 1 minutes 15 seconds 5 msec
