                         Program Version 4.1.2  - RELEASE  -
|  1> #Run DFT-D3 single point of the dimer
|  2> ! wB97X-D3 def2-TZVP TIGHTSCF CHELPG PMODEL PAL8
|  3>
|  4> %base "5-71_DFT_AB"
|  5>
|  6> %scf
|  7> MaxIter 1000
|  8> end
|  9>
| 10> * xyz 0 1
| 11>   C                      0.496941             1.392049             5.026981
| 12>   O                      -0.494197            0.337308             5.082726
| 13>   H                      -0.689183            0.394878             4.127763
| 14>   H                      1.282604             1.248695             5.776744
| 15>   H                      1.032644             1.416140             4.066925
| 16>   H                      -0.013328            2.353019             5.225455
| 17>   C                      4.920314             4.342355             4.026153
| 18>   O                      4.848328             3.687352             5.323936
| 19>   H                      5.473683             4.038462             5.960329
| 20>   H                      5.270182             5.374421             4.172704
| 21>   H                      5.630790             3.914310             3.312571
| 22>   H                      3.927813             4.267338             3.743045
| 23> *
| 24>
| 25> #Run DFT-D3 single point of the molecule with dimer basis set
| 26> $new_job
| 27> %base "5-71_DFT_A"
| 28> ! wB97X-D3 def2-TZVP TIGHTSCF CHELPG PMODEL
| 29>
| 30> %scf
| 31> MaxIter 1000
| 32> end
| 33>
| 34> * xyz 0 1
| 35>   C                      0.496941             1.392049             5.026981
| 36>   O                      -0.494197            0.337308             5.082726
| 37>   H                      -0.689183            0.394878             4.127763
| 38>   H                      1.282604             1.248695             5.776744
| 39>   H                      1.032644             1.416140             4.066925
| 40>   H                      -0.013328            2.353019             5.225455
| 41>   C                    : 4.920314             4.342355             4.026153
| 42>   O                    : 4.848328             3.687352             5.323936
| 43>   H                    : 5.473683             4.038462             5.960329
| 44>   H                    : 5.270182             5.374421             4.172704
| 45>   H                    : 5.630790             3.914310             3.312571
| 46>   H                    : 3.927813             4.267338             3.743045
| 47> *
| 48>
| 49> #Run DFT-D3 single point of the particle with dimer basis set
| 50> $new_job
| 51> %base "5-71_DFT_B"
| 52> ! wB97X-D3 def2-TZVP TIGHTSCF CHELPG PMODEL
| 53>
| 54> %scf
| 55> MaxIter 1000
| 56> end
| 57>
| 58> * xyz 0 1
| 59>   C                    : 0.496941             1.392049             5.026981
| 60>   O                    : -0.494197            0.337308             5.082726
| 61>   H                    : -0.689183            0.394878             4.127763
| 62>   H                    : 1.282604             1.248695             5.776744
| 63>   H                    : 1.032644             1.416140             4.066925
| 64>   H                    : -0.013328            2.353019             5.225455
| 65>   C                      4.920314             4.342355             4.026153
| 66>   O                      4.848328             3.687352             5.323936
| 67>   H                      5.473683             4.038462             5.960329
| 68>   H                      5.270182             5.374421             4.172704
| 69>   H                      5.630790             3.914310             3.312571
| 70>   H                      3.927813             4.267338             3.743045
| 71> *
| 72>
| 73>                          ****END OF INPUT****
 Total Charge           Charge          ....    0
 Multiplicity           Mult            ....    1
 Number of Electrons    NEL             ....   36
Dispersion correction           -0.000716579
FINAL SINGLE POINT ENERGY      -231.458608642590
Dispersion correction           -0.000226452
FINAL SINGLE POINT ENERGY      -115.728760391530

CARTESIAN COORDINATES (ANGSTROEM)
---------------------------------
  C      0.496941    1.392049    5.026981
  O     -0.494197    0.337308    5.082726
  H     -0.689183    0.394878    4.127763
  H      1.282604    1.248695    5.776744
  H      1.032644    1.416140    4.066925
  H     -0.013328    2.353019    5.225455
  C      4.920314    4.342355    4.026153
  O      4.848328    3.687352    5.323936
  H      5.473683    4.038462    5.960329
  H      5.270182    5.374421    4.172704
  H      5.630790    3.914310    3.312571
  H      3.927813    4.267338    3.743045

 Multiplicity           Mult            ....    1
 Number of Electrons    NEL             ....   18
 Basis Dimension        Dim             ....  172

ORBITAL ENERGIES
----------------

  NO   OCC          E(Eh)            E(eV)
   0   2.0000     -19.224072      -523.1136
   1   2.0000     -10.311177      -280.5814
   2   2.0000      -1.119629       -30.4667
   3   2.0000      -0.802136       -21.8272
   4   2.0000      -0.609315       -16.5803
   5   2.0000      -0.535697       -14.5770
   6   2.0000      -0.524029       -14.2595
   7   2.0000      -0.432701       -11.7744
   8   2.0000      -0.372356       -10.1323
   9   0.0000       0.092479         2.5165
  10   0.0000       0.114812         3.1242
  11   0.0000       0.154598         4.2068
  12   0.0000       0.169568         4.6142
  13   0.0000       0.192219         5.2305

MULLIKEN ATOMIC CHARGES
-----------------------
   0 C :    0.000054
   1 O :   -0.000002
   2 H :   -0.000001
   3 H :   -0.000461
   4 H :   -0.000056
   5 H :   -0.000012
   6 C :   -0.154209
   7 O :   -0.498817
   8 H :    0.312103
   9 H :    0.104671
  10 H :    0.104941
  11 H :    0.131790
Sum of atomic charges:   -0.0000000

LOEWDIN ATOMIC CHARGES
----------------------
   0 C :   -0.000120
   1 O :   -0.000003
   2 H :   -0.000001
   3 H :   -0.000151
   4 H :   -0.000021
   5 H :   -0.000003
   6 C :   -0.340991
   7 O :   -0.110597
   8 H :    0.158954
   9 H :    0.099103
  10 H :    0.096347
  11 H :    0.097482

  Mayer bond orders larger than 0.1
B(  6-C ,  7-O ) :   0.9883 B(  6-C ,  9-H ) :   0.9832 B(  6-C , 10-H ) :   0.9635
B(  6-C , 11-H ) :   0.9808 B(  7-O ,  8-H ) :   0.9014

Dispersion correction           -0.000257793
FINAL SINGLE POINT ENERGY      -115.729287968599

DIPOLE MOMENT
-------------
                                X             Y             Z
Electronic contribution:     -0.20783      -0.87952       1.39435
Nuclear contribution   :      0.64353       1.40699      -1.53361
                        -----------------------------------------
Total Dipole Moment    :      0.43570       0.52747      -0.13926
                        -----------------------------------------
Magnitude (a.u.)       :      0.69818
Magnitude (Debye)      :      1.77463

Rotational constants in cm-1:     4.387123     0.801055     0.771150
Rotational constants in MHz : 131522.648492 24015.020896 23118.486820

                             ****ORCA TERMINATED NORMALLY****
TOTAL RUN TIME: 0 days 0 hours 1 minutes 2 seconds 455 msec
