                         Program Version 4.1.2  - RELEASE  -
|  1> #Run DFT-D3 single point of the dimer
|  2> ! wB97X-D3 def2-TZVP TIGHTSCF CHELPG PMODEL PAL8
|  3>
|  4> %base "8-117_DFT_AB"
|  5>
|  6> %scf
|  7> MaxIter 1000
|  8> end
|  9>
| 10> * xyz 0 1
| 11>   C                      -3.085407            1.212228             -6.857028
| 12>   O                      -4.014511            0.679533             -7.754818
| 13>   H                      -3.617017            -0.153410            -8.081807
| 14>   H                      -3.475457            2.195119             -6.416982
| 15>   H                      -2.699295            0.539996             -6.108891
| 16>   H                      -2.225274            1.472159             -7.430988
| 17>   C                      -3.614518            2.377771             -3.383967
| 18>   O                      -2.329150            2.667694             -3.971855
| 19>   H                      -1.580685            2.454712             -3.361758
| 20>   H                      -4.317410            3.034180             -3.857457
| 21>   H                      -3.902533            1.347979             -3.342968
| 22>   H                      -3.658207            2.674005             -2.304684
| 23> *
| 24>
| 25> #Run DFT-D3 single point of the molecule with dimer basis set
| 26> $new_job
| 27> %base "8-117_DFT_A"
| 28> ! wB97X-D3 def2-TZVP TIGHTSCF CHELPG PMODEL
| 29>
| 30> %scf
| 31> MaxIter 1000
| 32> end
| 33>
| 34> * xyz 0 1
| 35>   C                      -3.085407            1.212228             -6.857028
| 36>   O                      -4.014511            0.679533             -7.754818
| 37>   H                      -3.617017            -0.153410            -8.081807
| 38>   H                      -3.475457            2.195119             -6.416982
| 39>   H                      -2.699295            0.539996             -6.108891
| 40>   H                      -2.225274            1.472159             -7.430988
| 41>   C                    : -3.614518            2.377771             -3.383967
| 42>   O                    : -2.329150            2.667694             -3.971855
| 43>   H                    : -1.580685            2.454712             -3.361758
| 44>   H                    : -4.317410            3.034180             -3.857457
| 45>   H                    : -3.902533            1.347979             -3.342968
| 46>   H                    : -3.658207            2.674005             -2.304684
| 47> *
| 48>
| 49> #Run DFT-D3 single point of the particle with dimer basis set
| 50> $new_job
| 51> %base "8-117_DFT_B"
| 52> ! wB97X-D3 def2-TZVP TIGHTSCF CHELPG PMODEL
| 53>
| 54> %scf
| 55> MaxIter 1000
| 56> end
| 57>
| 58> * xyz 0 1
| 59>   C                    : -3.085407            1.212228             -6.857028
| 60>   O                    : -4.014511            0.679533             -7.754818
| 61>   H                    : -3.617017            -0.153410            -8.081807
| 62>   H                    : -3.475457            2.195119             -6.416982
| 63>   H                    : -2.699295            0.539996             -6.108891
| 64>   H                    : -2.225274            1.472159             -7.430988
| 65>   C                      -3.614518            2.377771             -3.383967
| 66>   O                      -2.329150            2.667694             -3.971855
| 67>   H                      -1.580685            2.454712             -3.361758
| 68>   H                      -4.317410            3.034180             -3.857457
| 69>   H                      -3.902533            1.347979             -3.342968
| 70>   H                      -3.658207            2.674005             -2.304684
| 71> *
| 72>
| 73>                          ****END OF INPUT****
 Total Charge           Charge          ....    0
 Multiplicity           Mult            ....    1
 Number of Electrons    NEL             ....   36
Dispersion correction           -0.001875696
FINAL SINGLE POINT ENERGY      -231.464144548360
Dispersion correction           -0.000222222
FINAL SINGLE POINT ENERGY      -115.730709645739

CARTESIAN COORDINATES (ANGSTROEM)
---------------------------------
  C     -3.085407    1.212228   -6.857028
  O     -4.014511    0.679533   -7.754818
  H     -3.617017   -0.153410   -8.081807
  H     -3.475457    2.195119   -6.416982
  H     -2.699295    0.539996   -6.108891
  H     -2.225274    1.472159   -7.430988
  C     -3.614518    2.377771   -3.383967
  O     -2.329150    2.667694   -3.971855
  H     -1.580685    2.454712   -3.361758
  H     -4.317410    3.034180   -3.857457
  H     -3.902533    1.347979   -3.342968
  H     -3.658207    2.674005   -2.304684

 Multiplicity           Mult            ....    1
 Number of Electrons    NEL             ....   18
 Basis Dimension        Dim             ....  172

ORBITAL ENERGIES
----------------

  NO   OCC          E(Eh)            E(eV)
   0   2.0000     -19.232793      -523.3509
   1   2.0000     -10.313662      -280.6490
   2   2.0000      -1.119974       -30.4760
   3   2.0000      -0.798863       -21.7382
   4   2.0000      -0.608202       -16.5500
   5   2.0000      -0.541002       -14.7214
   6   2.0000      -0.516924       -14.0662
   7   2.0000      -0.431141       -11.7319
   8   2.0000      -0.374960       -10.2032
   9   0.0000       0.094222         2.5639
  10   0.0000       0.120109         3.2683
  11   0.0000       0.148161         4.0317
  12   0.0000       0.182444         4.9646
  13   0.0000       0.191784         5.2187

MULLIKEN ATOMIC CHARGES
-----------------------
   0 C :    0.007679
   1 O :   -0.000179
   2 H :   -0.000022
   3 H :   -0.001556
   4 H :   -0.007337
   5 H :   -0.001455
   6 C :   -0.170380
   7 O :   -0.488411
   8 H :    0.316460
   9 H :    0.126777
  10 H :    0.112472
  11 H :    0.105952
Sum of atomic charges:   -0.0000000

LOEWDIN ATOMIC CHARGES
----------------------
   0 C :   -0.010137
   1 O :   -0.000034
   2 H :   -0.000020
   3 H :   -0.004199
   4 H :   -0.002895
   5 H :   -0.000374
   6 C :   -0.364208
   7 O :   -0.098597
   8 H :    0.181030
   9 H :    0.106427
  10 H :    0.091102
  11 H :    0.101905

  Mayer bond orders larger than 0.1
B(  6-C ,  7-O ) :   0.9918 B(  6-C ,  9-H ) :   0.9774 B(  6-C , 10-H ) :   0.9662
B(  6-C , 11-H ) :   0.9759 B(  7-O ,  8-H ) :   0.8926

Dispersion correction           -0.000273171
FINAL SINGLE POINT ENERGY      -115.731650928104

DIPOLE MOMENT
-------------
                                X             Y             Z
Electronic contribution:      1.51476       0.30419      -0.98632
Nuclear contribution   :     -1.57994      -0.54127       1.64557
                        -----------------------------------------
Total Dipole Moment    :     -0.06518      -0.23708       0.65925
                        -----------------------------------------
Magnitude (a.u.)       :      0.70361
Magnitude (Debye)      :      1.78842

Rotational constants in cm-1:     4.376952     0.796489     0.767742
Rotational constants in MHz : 131217.730813 23878.133949 23016.319604

                             ****ORCA TERMINATED NORMALLY****
TOTAL RUN TIME: 0 days 0 hours 0 minutes 47 seconds 170 msec
