                         Program Version 4.1.2  - RELEASE  -
|  1> #Run DFT-D3 single point of the dimer
|  2> ! wB97X-D3 def2-TZVP TIGHTSCF CHELPG PMODEL PAL8
|  3>
|  4> %base "21-59_DFT_AB"
|  5>
|  6> %scf
|  7> MaxIter 1000
|  8> end
|  9>
| 10> * xyz 0 1
| 11>   C                      -5.021241            -8.045832            2.494545
| 12>   O                      -5.989247            -7.308026            3.203133
| 13>   H                      -6.772489            -7.218520            2.640288
| 14>   H                      -4.100609            -8.060883            3.101031
| 15>   H                      -5.262900            -9.056602            2.291049
| 16>   H                      -4.833772            -7.685138            1.454732
| 17>   C                      -5.919943            -5.264590            5.812033
| 18>   O                      -4.801855            -5.892888            5.255524
| 19>   H                      -5.073147            -6.405763            4.499573
| 20>   H                      -6.574539            -6.058706            6.165626
| 21>   H                      -5.671580            -4.421539            6.542132
| 22>   H                      -6.546800            -4.793408            5.010376
| 23> *
| 24>
| 25> #Run DFT-D3 single point of the molecule with dimer basis set
| 26> $new_job
| 27> %base "21-59_DFT_A"
| 28> ! wB97X-D3 def2-TZVP TIGHTSCF CHELPG PMODEL
| 29>
| 30> %scf
| 31> MaxIter 1000
| 32> end
| 33>
| 34> * xyz 0 1
| 35>   C                      -5.021241            -8.045832            2.494545
| 36>   O                      -5.989247            -7.308026            3.203133
| 37>   H                      -6.772489            -7.218520            2.640288
| 38>   H                      -4.100609            -8.060883            3.101031
| 39>   H                      -5.262900            -9.056602            2.291049
| 40>   H                      -4.833772            -7.685138            1.454732
| 41>   C                    : -5.919943            -5.264590            5.812033
| 42>   O                    : -4.801855            -5.892888            5.255524
| 43>   H                    : -5.073147            -6.405763            4.499573
| 44>   H                    : -6.574539            -6.058706            6.165626
| 45>   H                    : -5.671580            -4.421539            6.542132
| 46>   H                    : -6.546800            -4.793408            5.010376
| 47> *
| 48>
| 49> #Run DFT-D3 single point of the particle with dimer basis set
| 50> $new_job
| 51> %base "21-59_DFT_B"
| 52> ! wB97X-D3 def2-TZVP TIGHTSCF CHELPG PMODEL
| 53>
| 54> %scf
| 55> MaxIter 1000
| 56> end
| 57>
| 58> * xyz 0 1
| 59>   C                    : -5.021241            -8.045832            2.494545
| 60>   O                    : -5.989247            -7.308026            3.203133
| 61>   H                    : -6.772489            -7.218520            2.640288
| 62>   H                    : -4.100609            -8.060883            3.101031
| 63>   H                    : -5.262900            -9.056602            2.291049
| 64>   H                    : -4.833772            -7.685138            1.454732
| 65>   C                      -5.919943            -5.264590            5.812033
| 66>   O                      -4.801855            -5.892888            5.255524
| 67>   H                      -5.073147            -6.405763            4.499573
| 68>   H                      -6.574539            -6.058706            6.165626
| 69>   H                      -5.671580            -4.421539            6.542132
| 70>   H                      -6.546800            -4.793408            5.010376
| 71> *
| 72>
| 73>                          ****END OF INPUT****
 Total Charge           Charge          ....    0
 Multiplicity           Mult            ....    1
 Number of Electrons    NEL             ....   36
Dispersion correction           -0.001855572
FINAL SINGLE POINT ENERGY      -231.470785111234
Dispersion correction           -0.000248837
FINAL SINGLE POINT ENERGY      -115.733859877808

CARTESIAN COORDINATES (ANGSTROEM)
---------------------------------
  C     -5.021241   -8.045832    2.494545
  O     -5.989247   -7.308026    3.203133
  H     -6.772489   -7.218520    2.640288
  H     -4.100609   -8.060883    3.101031
  H     -5.262900   -9.056602    2.291049
  H     -4.833772   -7.685138    1.454732
  C     -5.919943   -5.264590    5.812033
  O     -4.801855   -5.892888    5.255524
  H     -5.073147   -6.405763    4.499573
  H     -6.574539   -6.058706    6.165626
  H     -5.671580   -4.421539    6.542132
  H     -6.546800   -4.793408    5.010376

 Multiplicity           Mult            ....    1
 Number of Electrons    NEL             ....   18
 Basis Dimension        Dim             ....  172

ORBITAL ENERGIES
----------------

  NO   OCC          E(Eh)            E(eV)
   0   2.0000     -19.228311      -523.2289
   1   2.0000     -10.319868      -280.8179
   2   2.0000      -1.142426       -31.0870
   3   2.0000      -0.790231       -21.5033
   4   2.0000      -0.616462       -16.7748
   5   2.0000      -0.546245       -14.8641
   6   2.0000      -0.522287       -14.2121
   7   2.0000      -0.431070       -11.7300
   8   2.0000      -0.367697       -10.0055
   9   0.0000       0.069503         1.8913
  10   0.0000       0.127669         3.4740
  11   0.0000       0.154865         4.2141
  12   0.0000       0.170069         4.6278
  13   0.0000       0.190177         5.1750

MULLIKEN ATOMIC CHARGES
-----------------------
   0 C :   -0.002293
   1 O :   -0.006548
   2 H :   -0.000171
   3 H :   -0.000675
   4 H :    0.000277
   5 H :    0.000274
   6 C :   -0.175738
   7 O :   -0.471382
   8 H :    0.321228
   9 H :    0.107855
  10 H :    0.130153
  11 H :    0.097019
Sum of atomic charges:    0.0000000

LOEWDIN ATOMIC CHARGES
----------------------
   0 C :   -0.007463
   1 O :   -0.025588
   2 H :   -0.001054
   3 H :   -0.001629
   4 H :   -0.000118
   5 H :   -0.000106
   6 C :   -0.403772
   7 O :   -0.051777
   8 H :    0.180027
   9 H :    0.094853
  10 H :    0.120001
  11 H :    0.096626

  Mayer bond orders larger than 0.1
B(  6-C ,  7-O ) :   0.9792 B(  6-C ,  9-H ) :   0.9824 B(  6-C , 10-H ) :   0.9649
B(  6-C , 11-H ) :   0.9805 B(  7-O ,  8-H ) :   0.9017

Dispersion correction           -0.000227489
FINAL SINGLE POINT ENERGY      -115.729794948308

DIPOLE MOMENT
-------------
                                X             Y             Z
Electronic contribution:      1.62758      -0.73899      -0.47284
Nuclear contribution   :     -2.23946       0.66359       0.19406
                        -----------------------------------------
Total Dipole Moment    :     -0.61188      -0.07540      -0.27878
                        -----------------------------------------
Magnitude (a.u.)       :      0.67661
Magnitude (Debye)      :      1.71980

Rotational constants in cm-1:     4.177256     0.848411     0.806880
Rotational constants in MHz : 125230.980225 25434.725880 24189.640746

                             ****ORCA TERMINATED NORMALLY****
TOTAL RUN TIME: 0 days 0 hours 1 minutes 5 seconds 106 msec
