                         Program Version 4.1.2  - RELEASE  -
|  1> #Run DFT-D3 single point of the dimer
|  2> ! wB97X-D3 def2-TZVP TIGHTSCF CHELPG PMODEL PAL8
|  3>
|  4> %base "6-9_DFT_AB"
|  5>
|  6> %scf
|  7> MaxIter 1000
|  8> end
|  9>
| 10> * xyz 0 1
| 11>   C                      -8.943252            -7.348248            2.064146
| 12>   O                      -8.854877            -8.616783            1.511822
| 13>   H                      -9.785357            -8.938947            1.557192
| 14>   H                      -7.983475            -6.876313            1.956709
| 15>   H                      -9.635888            -6.670991            1.500144
| 16>   H                      -9.236388            -7.364689            3.074729
| 17>   C                      -10.012217           -3.260761            3.612046
| 18>   O                      -9.049971            -2.258443            3.290814
| 19>   H                      -9.544630            -1.524157            2.939896
| 20>   H                      -10.761917           -3.336044            2.835439
| 21>   H                      -9.516522            -4.196883            3.682263
| 22>   H                      -10.539423           -3.049926            4.482328
| 23> *
| 24>
| 25> #Run DFT-D3 single point of the molecule with dimer basis set
| 26> $new_job
| 27> %base "6-9_DFT_A"
| 28> ! wB97X-D3 def2-TZVP TIGHTSCF CHELPG PMODEL
| 29>
| 30> %scf
| 31> MaxIter 1000
| 32> end
| 33>
| 34> * xyz 0 1
| 35>   C                      -8.943252            -7.348248            2.064146
| 36>   O                      -8.854877            -8.616783            1.511822
| 37>   H                      -9.785357            -8.938947            1.557192
| 38>   H                      -7.983475            -6.876313            1.956709
| 39>   H                      -9.635888            -6.670991            1.500144
| 40>   H                      -9.236388            -7.364689            3.074729
| 41>   C                    : -10.012217           -3.260761            3.612046
| 42>   O                    : -9.049971            -2.258443            3.290814
| 43>   H                    : -9.544630            -1.524157            2.939896
| 44>   H                    : -10.761917           -3.336044            2.835439
| 45>   H                    : -9.516522            -4.196883            3.682263
| 46>   H                    : -10.539423           -3.049926            4.482328
| 47> *
| 48>
| 49> #Run DFT-D3 single point of the particle with dimer basis set
| 50> $new_job
| 51> %base "6-9_DFT_B"
| 52> ! wB97X-D3 def2-TZVP TIGHTSCF CHELPG PMODEL
| 53>
| 54> %scf
| 55> MaxIter 1000
| 56> end
| 57>
| 58> * xyz 0 1
| 59>   C                    : -8.943252            -7.348248            2.064146
| 60>   O                    : -8.854877            -8.616783            1.511822
| 61>   H                    : -9.785357            -8.938947            1.557192
| 62>   H                    : -7.983475            -6.876313            1.956709
| 63>   H                    : -9.635888            -6.670991            1.500144
| 64>   H                    : -9.236388            -7.364689            3.074729
| 65>   C                      -10.012217           -3.260761            3.612046
| 66>   O                      -9.049971            -2.258443            3.290814
| 67>   H                      -9.544630            -1.524157            2.939896
| 68>   H                      -10.761917           -3.336044            2.835439
| 69>   H                      -9.516522            -4.196883            3.682263
| 70>   H                      -10.539423           -3.049926            4.482328
| 71> *
| 72>
| 73>                          ****END OF INPUT****
 Total Charge           Charge          ....    0
 Multiplicity           Mult            ....    1
 Number of Electrons    NEL             ....   36
Dispersion correction           -0.001001259
FINAL SINGLE POINT ENERGY      -231.467522533738
Dispersion correction           -0.000214062
FINAL SINGLE POINT ENERGY      -115.733292409327

CARTESIAN COORDINATES (ANGSTROEM)
---------------------------------
  C     -8.943252   -7.348248    2.064146
  O     -8.854877   -8.616783    1.511822
  H     -9.785357   -8.938947    1.557192
  H     -7.983475   -6.876313    1.956709
  H     -9.635888   -6.670991    1.500144
  H     -9.236388   -7.364689    3.074729
  C    -10.012217   -3.260761    3.612046
  O     -9.049971   -2.258443    3.290814
  H     -9.544630   -1.524157    2.939896
  H    -10.761917   -3.336044    2.835439
  H     -9.516522   -4.196883    3.682263
  H    -10.539423   -3.049926    4.482328

 Multiplicity           Mult            ....    1
 Number of Electrons    NEL             ....   18
 Basis Dimension        Dim             ....  172

ORBITAL ENERGIES
----------------

  NO   OCC          E(Eh)            E(eV)
   0   2.0000     -19.227926      -523.2185
   1   2.0000     -10.302815      -280.3538
   2   2.0000      -1.134062       -30.8594
   3   2.0000      -0.803514       -21.8647
   4   2.0000      -0.612599       -16.6697
   5   2.0000      -0.545393       -14.8409
   6   2.0000      -0.527211       -14.3461
   7   2.0000      -0.440218       -11.9789
   8   2.0000      -0.374628       -10.1942
   9   0.0000       0.083981         2.2852
  10   0.0000       0.117036         3.1847
  11   0.0000       0.149391         4.0651
  12   0.0000       0.170834         4.6486
  13   0.0000       0.192008         5.2248

MULLIKEN ATOMIC CHARGES
-----------------------
   0 C :    0.000280
   1 O :    0.000004
   2 H :    0.000000
   3 H :   -0.000009
   4 H :   -0.000328
   5 H :   -0.000276
   6 C :   -0.160214
   7 O :   -0.476775
   8 H :    0.311123
   9 H :    0.097943
  10 H :    0.122961
  11 H :    0.105291
Sum of atomic charges:    0.0000000

LOEWDIN ATOMIC CHARGES
----------------------
   0 C :   -0.001072
   1 O :   -0.000006
   2 H :   -0.000002
   3 H :   -0.000074
   4 H :   -0.000273
   5 H :   -0.000336
   6 C :   -0.361032
   7 O :   -0.081489
   8 H :    0.162928
   9 H :    0.094440
  10 H :    0.103321
  11 H :    0.083594

  Mayer bond orders larger than 0.1
B(  6-C ,  7-O ) :   0.9998 B(  6-C ,  9-H ) :   0.9860 B(  6-C , 10-H ) :   0.9764
B(  6-C , 11-H ) :   0.9738 B(  7-O ,  8-H ) :   0.9044

Dispersion correction           -0.000222187
FINAL SINGLE POINT ENERGY      -115.733780033886

DIPOLE MOMENT
-------------
                                X             Y             Z
Electronic contribution:      1.33834       1.15349      -0.27505
Nuclear contribution   :     -2.05297      -1.10347       0.18294
                        -----------------------------------------
Total Dipole Moment    :     -0.71463       0.05002      -0.09211
                        -----------------------------------------
Magnitude (a.u.)       :      0.72227
Magnitude (Debye)      :      1.83588

Rotational constants in cm-1:     4.490912     0.832218     0.797991
Rotational constants in MHz : 134634.144284 24949.279146 23923.153871

                             ****ORCA TERMINATED NORMALLY****
TOTAL RUN TIME: 0 days 0 hours 1 minutes 4 seconds 481 msec
