                         Program Version 4.1.2  - RELEASE  -
|  1> #Run DFT-D3 single point of the dimer
|  2> ! wB97X-D3 def2-TZVP TIGHTSCF CHELPG PMODEL PAL8
|  3>
|  4> %base "2-54_DFT_AB"
|  5>
|  6> %scf
|  7> MaxIter 1000
|  8> end
|  9>
| 10> * xyz 0 1
| 11>   C                      -8.188592            6.299989             8.631116
| 12>   O                      -7.155412            5.502019             8.031139
| 13>   H                      -6.397915            6.059291             7.795830
| 14>   H                      -7.792349            7.169263             9.225792
| 15>   H                      -9.011123            6.514553             7.862433
| 16>   H                      -8.740029            5.735765             9.411922
| 17>   C                      -5.872700            2.986529             10.267093
| 18>   O                      -5.865862            4.344613             10.571159
| 19>   H                      -5.098697            4.792286             10.334538
| 20>   H                      -6.569282            2.379499             10.765227
| 21>   H                      -6.025662            2.776042             9.205481
| 22>   H                      -4.916978            2.548329             10.496843
| 23> *
| 24>
| 25> #Run DFT-D3 single point of the molecule with dimer basis set
| 26> $new_job
| 27> %base "2-54_DFT_A"
| 28> ! wB97X-D3 def2-TZVP TIGHTSCF CHELPG PMODEL
| 29>
| 30> %scf
| 31> MaxIter 1000
| 32> end
| 33>
| 34> * xyz 0 1
| 35>   C                      -8.188592            6.299989             8.631116
| 36>   O                      -7.155412            5.502019             8.031139
| 37>   H                      -6.397915            6.059291             7.795830
| 38>   H                      -7.792349            7.169263             9.225792
| 39>   H                      -9.011123            6.514553             7.862433
| 40>   H                      -8.740029            5.735765             9.411922
| 41>   C                    : -5.872700            2.986529             10.267093
| 42>   O                    : -5.865862            4.344613             10.571159
| 43>   H                    : -5.098697            4.792286             10.334538
| 44>   H                    : -6.569282            2.379499             10.765227
| 45>   H                    : -6.025662            2.776042             9.205481
| 46>   H                    : -4.916978            2.548329             10.496843
| 47> *
| 48>
| 49> #Run DFT-D3 single point of the particle with dimer basis set
| 50> $new_job
| 51> %base "2-54_DFT_B"
| 52> ! wB97X-D3 def2-TZVP TIGHTSCF CHELPG PMODEL
| 53>
| 54> %scf
| 55> MaxIter 1000
| 56> end
| 57>
| 58> * xyz 0 1
| 59>   C                    : -8.188592            6.299989             8.631116
| 60>   O                    : -7.155412            5.502019             8.031139
| 61>   H                    : -6.397915            6.059291             7.795830
| 62>   H                    : -7.792349            7.169263             9.225792
| 63>   H                    : -9.011123            6.514553             7.862433
| 64>   H                    : -8.740029            5.735765             9.411922
| 65>   C                      -5.872700            2.986529             10.267093
| 66>   O                      -5.865862            4.344613             10.571159
| 67>   H                      -5.098697            4.792286             10.334538
| 68>   H                      -6.569282            2.379499             10.765227
| 69>   H                      -6.025662            2.776042             9.205481
| 70>   H                      -4.916978            2.548329             10.496843
| 71> *
| 72>
| 73>                          ****END OF INPUT****
 Total Charge           Charge          ....    0
 Multiplicity           Mult            ....    1
 Number of Electrons    NEL             ....   36
Dispersion correction           -0.001899307
FINAL SINGLE POINT ENERGY      -231.458875495973
Dispersion correction           -0.000284847
FINAL SINGLE POINT ENERGY      -115.730190391458

CARTESIAN COORDINATES (ANGSTROEM)
---------------------------------
  C     -8.188592    6.299989    8.631116
  O     -7.155412    5.502019    8.031139
  H     -6.397915    6.059291    7.795830
  H     -7.792349    7.169263    9.225792
  H     -9.011123    6.514553    7.862433
  H     -8.740029    5.735765    9.411922
  C     -5.872700    2.986529   10.267093
  O     -5.865862    4.344613   10.571159
  H     -5.098697    4.792286   10.334538
  H     -6.569282    2.379499   10.765227
  H     -6.025662    2.776042    9.205481
  H     -4.916978    2.548329   10.496843

 Multiplicity           Mult            ....    1
 Number of Electrons    NEL             ....   18
 Basis Dimension        Dim             ....  172

ORBITAL ENERGIES
----------------

  NO   OCC          E(Eh)            E(eV)
   0   2.0000     -19.225928      -523.1641
   1   2.0000     -10.306393      -280.4512
   2   2.0000      -1.147405       -31.2225
   3   2.0000      -0.809816       -22.0362
   4   2.0000      -0.626344       -17.0437
   5   2.0000      -0.542554       -14.7636
   6   2.0000      -0.540328       -14.7031
   7   2.0000      -0.425629       -11.5820
   8   2.0000      -0.373401       -10.1608
   9   0.0000       0.090253         2.4559
  10   0.0000       0.130063         3.5392
  11   0.0000       0.152764         4.1569
  12   0.0000       0.172070         4.6823
  13   0.0000       0.200139         5.4461

MULLIKEN ATOMIC CHARGES
-----------------------
   0 C :   -0.000128
   1 O :   -0.000622
   2 H :   -0.001945
   3 H :   -0.000979
   4 H :   -0.000209
   5 H :   -0.001762
   6 C :   -0.145351
   7 O :   -0.478567
   8 H :    0.314862
   9 H :    0.121026
  10 H :    0.095464
  11 H :    0.098211
Sum of atomic charges:    0.0000000

LOEWDIN ATOMIC CHARGES
----------------------
   0 C :   -0.006103
   1 O :   -0.005199
   2 H :   -0.001644
   3 H :   -0.000523
   4 H :   -0.000111
   5 H :   -0.001223
   6 C :   -0.388386
   7 O :   -0.028023
   8 H :    0.144202
   9 H :    0.098659
  10 H :    0.094619
  11 H :    0.093733

  Mayer bond orders larger than 0.1
B(  6-C ,  7-O ) :   0.9957 B(  6-C ,  9-H ) :   0.9731 B(  6-C , 10-H ) :   0.9776
B(  6-C , 11-H ) :   0.9869 B(  7-O ,  8-H ) :   0.9004

Dispersion correction           -0.000242525
FINAL SINGLE POINT ENERGY      -115.729849412031

DIPOLE MOMENT
-------------
                                X             Y             Z
Electronic contribution:     -0.18046       1.80905       0.53082
Nuclear contribution   :      0.70868      -2.08385      -0.78576
                        -----------------------------------------
Total Dipole Moment    :      0.52823      -0.27480      -0.25494
                        -----------------------------------------
Magnitude (a.u.)       :      0.64771
Magnitude (Debye)      :      1.64635

Rotational constants in cm-1:     4.766694     0.837319     0.814728
Rotational constants in MHz : 142901.884382 25102.186779 24424.932020

                             ****ORCA TERMINATED NORMALLY****
TOTAL RUN TIME: 0 days 0 hours 6 minutes 4 seconds 395 msec
