                         Program Version 4.1.2  - RELEASE  -
|  1> #Run DFT-D3 single point of the dimer
|  2> ! wB97X-D3 def2-TZVP TIGHTSCF CHELPG PMODEL PAL8
|  3>
|  4> %base "9-47_DFT_AB"
|  5>
|  6> %scf
|  7> MaxIter 1000
|  8> end
|  9>
| 10> * xyz 0 1
| 11>   C                      -2.321207            -5.271564            -0.117392
| 12>   O                      -1.699948            -4.236620            -0.812064
| 13>   H                      -1.067507            -3.804357            -0.260356
| 14>   H                      -3.067091            -5.682834            -0.736439
| 15>   H                      -1.643910            -6.077927            0.202816
| 16>   H                      -2.851049            -4.806668            0.717258
| 17>   C                      -1.495863            -7.793966            2.578970
| 18>   O                      -0.483908            -8.710435            2.830056
| 19>   H                      -0.539122            -8.859072            3.780533
| 20>   H                      -1.316843            -6.805620            3.074040
| 21>   H                      -1.618548            -7.589966            1.567328
| 22>   H                      -2.421022            -8.112278            2.983919
| 23> *
| 24>
| 25> #Run DFT-D3 single point of the molecule with dimer basis set
| 26> $new_job
| 27> %base "9-47_DFT_A"
| 28> ! wB97X-D3 def2-TZVP TIGHTSCF CHELPG PMODEL
| 29>
| 30> %scf
| 31> MaxIter 1000
| 32> end
| 33>
| 34> * xyz 0 1
| 35>   C                      -2.321207            -5.271564            -0.117392
| 36>   O                      -1.699948            -4.236620            -0.812064
| 37>   H                      -1.067507            -3.804357            -0.260356
| 38>   H                      -3.067091            -5.682834            -0.736439
| 39>   H                      -1.643910            -6.077927            0.202816
| 40>   H                      -2.851049            -4.806668            0.717258
| 41>   C                    : -1.495863            -7.793966            2.578970
| 42>   O                    : -0.483908            -8.710435            2.830056
| 43>   H                    : -0.539122            -8.859072            3.780533
| 44>   H                    : -1.316843            -6.805620            3.074040
| 45>   H                    : -1.618548            -7.589966            1.567328
| 46>   H                    : -2.421022            -8.112278            2.983919
| 47> *
| 48>
| 49> #Run DFT-D3 single point of the particle with dimer basis set
| 50> $new_job
| 51> %base "9-47_DFT_B"
| 52> ! wB97X-D3 def2-TZVP TIGHTSCF CHELPG PMODEL
| 53>
| 54> %scf
| 55> MaxIter 1000
| 56> end
| 57>
| 58> * xyz 0 1
| 59>   C                    : -2.321207            -5.271564            -0.117392
| 60>   O                    : -1.699948            -4.236620            -0.812064
| 61>   H                    : -1.067507            -3.804357            -0.260356
| 62>   H                    : -3.067091            -5.682834            -0.736439
| 63>   H                    : -1.643910            -6.077927            0.202816
| 64>   H                    : -2.851049            -4.806668            0.717258
| 65>   C                      -1.495863            -7.793966            2.578970
| 66>   O                      -0.483908            -8.710435            2.830056
| 67>   H                      -0.539122            -8.859072            3.780533
| 68>   H                      -1.316843            -6.805620            3.074040
| 69>   H                      -1.618548            -7.589966            1.567328
| 70>   H                      -2.421022            -8.112278            2.983919
| 71> *
| 72>
| 73>                          ****END OF INPUT****
 Total Charge           Charge          ....    0
 Multiplicity           Mult            ....    1
 Number of Electrons    NEL             ....   36
Dispersion correction           -0.001396819
FINAL SINGLE POINT ENERGY      -231.466385919756
Dispersion correction           -0.000224301
FINAL SINGLE POINT ENERGY      -115.734560454292

CARTESIAN COORDINATES (ANGSTROEM)
---------------------------------
  C     -2.321207   -5.271564   -0.117392
  O     -1.699948   -4.236620   -0.812064
  H     -1.067507   -3.804357   -0.260356
  H     -3.067091   -5.682834   -0.736439
  H     -1.643910   -6.077927    0.202816
  H     -2.851049   -4.806668    0.717258
  C     -1.495863   -7.793966    2.578970
  O     -0.483908   -8.710435    2.830056
  H     -0.539122   -8.859072    3.780533
  H     -1.316843   -6.805620    3.074040
  H     -1.618548   -7.589966    1.567328
  H     -2.421022   -8.112278    2.983919

 Multiplicity           Mult            ....    1
 Number of Electrons    NEL             ....   18
 Basis Dimension        Dim             ....  172

ORBITAL ENERGIES
----------------

  NO   OCC          E(Eh)            E(eV)
   0   2.0000     -19.232302      -523.3376
   1   2.0000     -10.303541      -280.3736
   2   2.0000      -1.147016       -31.2119
   3   2.0000      -0.799007       -21.7421
   4   2.0000      -0.618632       -16.8338
   5   2.0000      -0.541738       -14.7414
   6   2.0000      -0.536614       -14.6020
   7   2.0000      -0.441969       -12.0266
   8   2.0000      -0.370450       -10.0805
   9   0.0000       0.086300         2.3483
  10   0.0000       0.115623         3.1463
  11   0.0000       0.154601         4.2069
  12   0.0000       0.169354         4.6083
  13   0.0000       0.187716         5.1080

MULLIKEN ATOMIC CHARGES
-----------------------
   0 C :   -0.000355
   1 O :    0.000035
   2 H :   -0.000002
   3 H :   -0.000076
   4 H :   -0.001031
   5 H :    0.000099
   6 C :   -0.161477
   7 O :   -0.459189
   8 H :    0.314949
   9 H :    0.086112
  10 H :    0.125246
  11 H :    0.095690
Sum of atomic charges:   -0.0000000

LOEWDIN ATOMIC CHARGES
----------------------
   0 C :   -0.005037
   1 O :   -0.000020
   2 H :   -0.000006
   3 H :   -0.000083
   4 H :   -0.008295
   5 H :   -0.000272
   6 C :   -0.395296
   7 O :   -0.054590
   8 H :    0.177181
   9 H :    0.098843
  10 H :    0.100546
  11 H :    0.087029

  Mayer bond orders larger than 0.1
B(  6-C ,  7-O ) :   1.0134 B(  6-C ,  9-H ) :   0.9805 B(  6-C , 10-H ) :   0.9721
B(  6-C , 11-H ) :   0.9796 B(  7-O ,  8-H ) :   0.9009

Dispersion correction           -0.000212172
FINAL SINGLE POINT ENERGY      -115.732206635453

DIPOLE MOMENT
-------------
                                X             Y             Z
Electronic contribution:      1.38636      -1.31492       0.05913
Nuclear contribution   :     -1.81662       1.55386       0.42476
                        -----------------------------------------
Total Dipole Moment    :     -0.43026       0.23894       0.48389
                        -----------------------------------------
Magnitude (a.u.)       :      0.69019
Magnitude (Debye)      :      1.75434

Rotational constants in cm-1:     4.453426     0.861974     0.827232
Rotational constants in MHz : 133510.342513 25841.335711 24799.794727

                             ****ORCA TERMINATED NORMALLY****
TOTAL RUN TIME: 0 days 0 hours 0 minutes 44 seconds 658 msec
