                         Program Version 4.1.2  - RELEASE  -
|  1> #Run DFT-D3 single point of the dimer
|  2> ! wB97X-D3 def2-TZVP TIGHTSCF CHELPG PMODEL PAL8
|  3>
|  4> %base "18-185_DFT_AB"
|  5>
|  6> %scf
|  7> MaxIter 1000
|  8> end
|  9>
| 10> * xyz 0 1
| 11>   C                      10.381878            -11.032317           -8.340953
| 12>   O                      9.262309             -10.165268           -8.121430
| 13>   H                      9.228971             -9.917636            -7.201379
| 14>   H                      11.272815            -10.547355           -8.553687
| 15>   H                      10.686308            -11.421913           -7.349363
| 16>   H                      10.336324            -11.786976           -9.146013
| 17>   C                      6.059093             -10.893009           -9.907102
| 18>   O                      6.761896             -9.808815            -9.220556
| 19>   H                      7.703710             -10.106093           -8.997001
| 20>   H                      6.655688             -11.117009           -10.812321
| 21>   H                      5.853971             -11.725111           -9.218009
| 22>   H                      5.010903             -10.597532           -10.254226
| 23> *
| 24>
| 25> #Run DFT-D3 single point of the molecule with dimer basis set
| 26> $new_job
| 27> %base "18-185_DFT_A"
| 28> ! wB97X-D3 def2-TZVP TIGHTSCF CHELPG PMODEL
| 29>
| 30> %scf
| 31> MaxIter 1000
| 32> end
| 33>
| 34> * xyz 0 1
| 35>   C                      10.381878            -11.032317           -8.340953
| 36>   O                      9.262309             -10.165268           -8.121430
| 37>   H                      9.228971             -9.917636            -7.201379
| 38>   H                      11.272815            -10.547355           -8.553687
| 39>   H                      10.686308            -11.421913           -7.349363
| 40>   H                      10.336324            -11.786976           -9.146013
| 41>   C                    : 6.059093             -10.893009           -9.907102
| 42>   O                    : 6.761896             -9.808815            -9.220556
| 43>   H                    : 7.703710             -10.106093           -8.997001
| 44>   H                    : 6.655688             -11.117009           -10.812321
| 45>   H                    : 5.853971             -11.725111           -9.218009
| 46>   H                    : 5.010903             -10.597532           -10.254226
| 47> *
| 48>
| 49> #Run DFT-D3 single point of the particle with dimer basis set
| 50> $new_job
| 51> %base "18-185_DFT_B"
| 52> ! wB97X-D3 def2-TZVP TIGHTSCF CHELPG PMODEL
| 53>
| 54> %scf
| 55> MaxIter 1000
| 56> end
| 57>
| 58> * xyz 0 1
| 59>   C                    : 10.381878            -11.032317           -8.340953
| 60>   O                    : 9.262309             -10.165268           -8.121430
| 61>   H                    : 9.228971             -9.917636            -7.201379
| 62>   H                    : 11.272815            -10.547355           -8.553687
| 63>   H                    : 10.686308            -11.421913           -7.349363
| 64>   H                    : 10.336324            -11.786976           -9.146013
| 65>   C                      6.059093             -10.893009           -9.907102
| 66>   O                      6.761896             -9.808815            -9.220556
| 67>   H                      7.703710             -10.106093           -8.997001
| 68>   H                      6.655688             -11.117009           -10.812321
| 69>   H                      5.853971             -11.725111           -9.218009
| 70>   H                      5.010903             -10.597532           -10.254226
| 71> *
| 72>
| 73>                          ****END OF INPUT****
 Total Charge           Charge          ....    0
 Multiplicity           Mult            ....    1
 Number of Electrons    NEL             ....   36
Dispersion correction           -0.001550045
FINAL SINGLE POINT ENERGY      -231.459161257235
Dispersion correction           -0.000253479
FINAL SINGLE POINT ENERGY      -115.723043882267

CARTESIAN COORDINATES (ANGSTROEM)
---------------------------------
  C     10.381878  -11.032317   -8.340953
  O      9.262309  -10.165268   -8.121430
  H      9.228971   -9.917636   -7.201379
  H     11.272815  -10.547355   -8.553687
  H     10.686308  -11.421913   -7.349363
  H     10.336324  -11.786976   -9.146013
  C      6.059093  -10.893009   -9.907102
  O      6.761896   -9.808815   -9.220556
  H      7.703710  -10.106093   -8.997001
  H      6.655688  -11.117009  -10.812321
  H      5.853971  -11.725111   -9.218009
  H      5.010903  -10.597532  -10.254226

 Multiplicity           Mult            ....    1
 Number of Electrons    NEL             ....   18
 Basis Dimension        Dim             ....  172

ORBITAL ENERGIES
----------------

  NO   OCC          E(Eh)            E(eV)
   0   2.0000     -19.232691      -523.3481
   1   2.0000     -10.325039      -280.9586
   2   2.0000      -1.110748       -30.2250
   3   2.0000      -0.788151       -21.4467
   4   2.0000      -0.588264       -16.0075
   5   2.0000      -0.547641       -14.9021
   6   2.0000      -0.516475       -14.0540
   7   2.0000      -0.422200       -11.4886
   8   2.0000      -0.374441       -10.1891
   9   0.0000       0.068466         1.8631
  10   0.0000       0.128769         3.5040
  11   0.0000       0.140425         3.8212
  12   0.0000       0.167638         4.5617
  13   0.0000       0.194141         5.2828

MULLIKEN ATOMIC CHARGES
-----------------------
   0 C :   -0.001174
   1 O :   -0.002010
   2 H :   -0.000661
   3 H :   -0.000039
   4 H :    0.000009
   5 H :    0.000064
   6 C :   -0.166732
   7 O :   -0.487049
   8 H :    0.314358
   9 H :    0.112743
  10 H :    0.112143
  11 H :    0.118347
Sum of atomic charges:   -0.0000000

LOEWDIN ATOMIC CHARGES
----------------------
   0 C :   -0.003944
   1 O :   -0.030189
   2 H :   -0.002558
   3 H :   -0.000096
   4 H :   -0.000085
   5 H :   -0.000251
   6 C :   -0.362761
   7 O :   -0.127334
   8 H :    0.212058
   9 H :    0.101211
  10 H :    0.097151
  11 H :    0.116800

  Mayer bond orders larger than 0.1
B(  6-C ,  7-O ) :   0.9862 B(  6-C ,  9-H ) :   0.9811 B(  6-C , 10-H ) :   0.9701
B(  6-C , 11-H ) :   0.9691 B(  7-O ,  8-H ) :   0.8947

Dispersion correction           -0.000272076
FINAL SINGLE POINT ENERGY      -115.727907816681

DIPOLE MOMENT
-------------
                                X             Y             Z
Electronic contribution:      0.76068       1.36222       0.83691
Nuclear contribution   :     -0.50195      -2.00196      -0.99705
                        -----------------------------------------
Total Dipole Moment    :      0.25872      -0.63974      -0.16014
                        -----------------------------------------
Magnitude (a.u.)       :      0.70841
Magnitude (Debye)      :      1.80065

Rotational constants in cm-1:     4.085546     0.775371     0.754635
Rotational constants in MHz : 122481.572954 23245.034371 22623.390034

                             ****ORCA TERMINATED NORMALLY****
TOTAL RUN TIME: 0 days 0 hours 1 minutes 2 seconds 937 msec
