                         Program Version 4.1.2  - RELEASE  -
|  1> #Run DFT-D3 single point of the dimer
|  2> ! wB97X-D3 def2-TZVP TIGHTSCF CHELPG PMODEL PAL8
|  3>
|  4> %base "10-12_DFT_AB"
|  5>
|  6> %scf
|  7> MaxIter 1000
|  8> end
|  9>
| 10> * xyz 0 1
| 11>   C                      -8.336969            -4.600054            6.961619
| 12>   O                      -7.406997            -4.718792            5.976221
| 13>   H                      -6.557219            -5.068828            6.345814
| 14>   H                      -9.026821            -3.757067            6.800029
| 15>   H                      -9.068774            -5.485411            6.969378
| 16>   H                      -7.848887            -4.496328            7.950912
| 17>   C                      -7.178545            -10.012082           8.022875
| 18>   O                      -8.462030            -10.121261           7.415269
| 19>   H                      -8.883690            -10.943522           7.737642
| 20>   H                      -6.428320            -10.699091           7.466212
| 21>   H                      -6.699504            -9.039703            8.092636
| 22>   H                      -7.206984            -10.372782           9.020855
| 23> *
| 24>
| 25> #Run DFT-D3 single point of the molecule with dimer basis set
| 26> $new_job
| 27> %base "10-12_DFT_A"
| 28> ! wB97X-D3 def2-TZVP TIGHTSCF CHELPG PMODEL
| 29>
| 30> %scf
| 31> MaxIter 1000
| 32> end
| 33>
| 34> * xyz 0 1
| 35>   C                      -8.336969            -4.600054            6.961619
| 36>   O                      -7.406997            -4.718792            5.976221
| 37>   H                      -6.557219            -5.068828            6.345814
| 38>   H                      -9.026821            -3.757067            6.800029
| 39>   H                      -9.068774            -5.485411            6.969378
| 40>   H                      -7.848887            -4.496328            7.950912
| 41>   C                    : -7.178545            -10.012082           8.022875
| 42>   O                    : -8.462030            -10.121261           7.415269
| 43>   H                    : -8.883690            -10.943522           7.737642
| 44>   H                    : -6.428320            -10.699091           7.466212
| 45>   H                    : -6.699504            -9.039703            8.092636
| 46>   H                    : -7.206984            -10.372782           9.020855
| 47> *
| 48>
| 49> #Run DFT-D3 single point of the particle with dimer basis set
| 50> $new_job
| 51> %base "10-12_DFT_B"
| 52> ! wB97X-D3 def2-TZVP TIGHTSCF CHELPG PMODEL
| 53>
| 54> %scf
| 55> MaxIter 1000
| 56> end
| 57>
| 58> * xyz 0 1
| 59>   C                    : -8.336969            -4.600054            6.961619
| 60>   O                    : -7.406997            -4.718792            5.976221
| 61>   H                    : -6.557219            -5.068828            6.345814
| 62>   H                    : -9.026821            -3.757067            6.800029
| 63>   H                    : -9.068774            -5.485411            6.969378
| 64>   H                    : -7.848887            -4.496328            7.950912
| 65>   C                      -7.178545            -10.012082           8.022875
| 66>   O                      -8.462030            -10.121261           7.415269
| 67>   H                      -8.883690            -10.943522           7.737642
| 68>   H                      -6.428320            -10.699091           7.466212
| 69>   H                      -6.699504            -9.039703            8.092636
| 70>   H                      -7.206984            -10.372782           9.020855
| 71> *
| 72>
| 73>                          ****END OF INPUT****
 Total Charge           Charge          ....    0
 Multiplicity           Mult            ....    1
 Number of Electrons    NEL             ....   36
Dispersion correction           -0.000688804
FINAL SINGLE POINT ENERGY      -231.459356501866
Dispersion correction           -0.000243979
FINAL SINGLE POINT ENERGY      -115.730516879763

CARTESIAN COORDINATES (ANGSTROEM)
---------------------------------
  C     -8.336969   -4.600054    6.961619
  O     -7.406997   -4.718792    5.976221
  H     -6.557219   -5.068828    6.345814
  H     -9.026821   -3.757067    6.800029
  H     -9.068774   -5.485411    6.969378
  H     -7.848887   -4.496328    7.950912
  C     -7.178545  -10.012082    8.022875
  O     -8.462030  -10.121261    7.415269
  H     -8.883690  -10.943522    7.737642
  H     -6.428320  -10.699091    7.466212
  H     -6.699504   -9.039703    8.092636
  H     -7.206984  -10.372782    9.020855

 Multiplicity           Mult            ....    1
 Number of Electrons    NEL             ....   18
 Basis Dimension        Dim             ....  172

ORBITAL ENERGIES
----------------

  NO   OCC          E(Eh)            E(eV)
   0   2.0000     -19.233562      -523.3718
   1   2.0000     -10.317212      -280.7456
   2   2.0000      -1.130551       -30.7639
   3   2.0000      -0.794757       -21.6264
   4   2.0000      -0.609499       -16.5853
   5   2.0000      -0.534967       -14.5572
   6   2.0000      -0.530059       -14.4236
   7   2.0000      -0.432174       -11.7601
   8   2.0000      -0.370998       -10.0954
   9   0.0000       0.089703         2.4409
  10   0.0000       0.112516         3.0617
  11   0.0000       0.146869         3.9965
  12   0.0000       0.168510         4.5854
  13   0.0000       0.192272         5.2320

MULLIKEN ATOMIC CHARGES
-----------------------
   0 C :    0.000051
   1 O :   -0.000006
   2 H :   -0.000015
   3 H :   -0.000004
   4 H :   -0.000161
   5 H :   -0.000010
   6 C :   -0.174315
   7 O :   -0.477439
   8 H :    0.321141
   9 H :    0.092771
  10 H :    0.127584
  11 H :    0.110402
Sum of atomic charges:   -0.0000000

LOEWDIN ATOMIC CHARGES
----------------------
   0 C :   -0.000018
   1 O :   -0.000002
   2 H :   -0.000018
   3 H :   -0.000000
   4 H :   -0.000049
   5 H :   -0.000005
   6 C :   -0.385158
   7 O :   -0.094361
   8 H :    0.182319
   9 H :    0.103685
  10 H :    0.105430
  11 H :    0.088178

  Mayer bond orders larger than 0.1
B(  6-C ,  7-O ) :   0.9977 B(  6-C ,  9-H ) :   0.9781 B(  6-C , 10-H ) :   0.9683
B(  6-C , 11-H ) :   0.9814 B(  7-O ,  8-H ) :   0.8928

Dispersion correction           -0.000255608
FINAL SINGLE POINT ENERGY      -115.728943969241

DIPOLE MOMENT
-------------
                                X             Y             Z
Electronic contribution:     -1.74985       0.16189      -0.82719
Nuclear contribution   :      1.98209      -0.62144       1.31913
                        -----------------------------------------
Total Dipole Moment    :      0.23224      -0.45955       0.49194
                        -----------------------------------------
Magnitude (a.u.)       :      0.71213
Magnitude (Debye)      :      1.81009

Rotational constants in cm-1:     4.340988     0.806542     0.783451
Rotational constants in MHz : 130139.544938 24179.514174 23487.276713

                             ****ORCA TERMINATED NORMALLY****
TOTAL RUN TIME: 0 days 0 hours 0 minutes 55 seconds 987 msec
