                         Program Version 4.1.2  - RELEASE  -
|  1> #Run DFT-D3 single point of the dimer
|  2> ! wB97X-D3 def2-TZVP TIGHTSCF CHELPG PMODEL PAL8
|  3>
|  4> %base "6-136_DFT_AB"
|  5>
|  6> %scf
|  7> MaxIter 1000
|  8> end
|  9>
| 10> * xyz 0 1
| 11>   C                      -4.761511            4.033597             0.644561
| 12>   O                      -5.840978            3.433233             0.049642
| 13>   H                      -5.492849            2.523633             0.104784
| 14>   H                      -3.783085            3.629081             0.423102
| 15>   H                      -4.640133            5.102742             0.387107
| 16>   H                      -4.887416            4.115966             1.738798
| 17>   C                      -9.188982            2.734245             -3.089868
| 18>   O                      -7.949023            2.911490             -3.748448
| 19>   H                      -7.436477            3.426553             -3.131312
| 20>   H                      -9.203550            1.752508             -2.653941
| 21>   H                      -9.451400            3.492022             -2.322861
| 22>   H                      -10.104893           2.853784             -3.707225
| 23> *
| 24>
| 25> #Run DFT-D3 single point of the molecule with dimer basis set
| 26> $new_job
| 27> %base "6-136_DFT_A"
| 28> ! wB97X-D3 def2-TZVP TIGHTSCF CHELPG PMODEL
| 29>
| 30> %scf
| 31> MaxIter 1000
| 32> end
| 33>
| 34> * xyz 0 1
| 35>   C                      -4.761511            4.033597             0.644561
| 36>   O                      -5.840978            3.433233             0.049642
| 37>   H                      -5.492849            2.523633             0.104784
| 38>   H                      -3.783085            3.629081             0.423102
| 39>   H                      -4.640133            5.102742             0.387107
| 40>   H                      -4.887416            4.115966             1.738798
| 41>   C                    : -9.188982            2.734245             -3.089868
| 42>   O                    : -7.949023            2.911490             -3.748448
| 43>   H                    : -7.436477            3.426553             -3.131312
| 44>   H                    : -9.203550            1.752508             -2.653941
| 45>   H                    : -9.451400            3.492022             -2.322861
| 46>   H                    : -10.104893           2.853784             -3.707225
| 47> *
| 48>
| 49> #Run DFT-D3 single point of the particle with dimer basis set
| 50> $new_job
| 51> %base "6-136_DFT_B"
| 52> ! wB97X-D3 def2-TZVP TIGHTSCF CHELPG PMODEL
| 53>
| 54> %scf
| 55> MaxIter 1000
| 56> end
| 57>
| 58> * xyz 0 1
| 59>   C                    : -4.761511            4.033597             0.644561
| 60>   O                    : -5.840978            3.433233             0.049642
| 61>   H                    : -5.492849            2.523633             0.104784
| 62>   H                    : -3.783085            3.629081             0.423102
| 63>   H                    : -4.640133            5.102742             0.387107
| 64>   H                    : -4.887416            4.115966             1.738798
| 65>   C                      -9.188982            2.734245             -3.089868
| 66>   O                      -7.949023            2.911490             -3.748448
| 67>   H                      -7.436477            3.426553             -3.131312
| 68>   H                      -9.203550            1.752508             -2.653941
| 69>   H                      -9.451400            3.492022             -2.322861
| 70>   H                      -10.104893           2.853784             -3.707225
| 71> *
| 72>
| 73>                          ****END OF INPUT****
 Total Charge           Charge          ....    0
 Multiplicity           Mult            ....    1
 Number of Electrons    NEL             ....   36
Dispersion correction           -0.000821238
FINAL SINGLE POINT ENERGY      -231.459401177204
Dispersion correction           -0.000218104
FINAL SINGLE POINT ENERGY      -115.726880084122

CARTESIAN COORDINATES (ANGSTROEM)
---------------------------------
  C     -4.761511    4.033597    0.644561
  O     -5.840978    3.433233    0.049642
  H     -5.492849    2.523633    0.104784
  H     -3.783085    3.629081    0.423102
  H     -4.640133    5.102742    0.387107
  H     -4.887416    4.115966    1.738798
  C     -9.188982    2.734245   -3.089868
  O     -7.949023    2.911490   -3.748448
  H     -7.436477    3.426553   -3.131312
  H     -9.203550    1.752508   -2.653941
  H     -9.451400    3.492022   -2.322861
  H    -10.104893    2.853784   -3.707225

 Multiplicity           Mult            ....    1
 Number of Electrons    NEL             ....   18
 Basis Dimension        Dim             ....  172

ORBITAL ENERGIES
----------------

  NO   OCC          E(Eh)            E(eV)
   0   2.0000     -19.234087      -523.3861
   1   2.0000     -10.314198      -280.6636
   2   2.0000      -1.141558       -31.0634
   3   2.0000      -0.795554       -21.6481
   4   2.0000      -0.613104       -16.6834
   5   2.0000      -0.546993       -14.8844
   6   2.0000      -0.522884       -14.2284
   7   2.0000      -0.431725       -11.7478
   8   2.0000      -0.377646       -10.2763
   9   0.0000       0.077645         2.1128
  10   0.0000       0.113241         3.0814
  11   0.0000       0.150193         4.0870
  12   0.0000       0.169119         4.6020
  13   0.0000       0.190403         5.1811

MULLIKEN ATOMIC CHARGES
-----------------------
   0 C :   -0.000058
   1 O :   -0.000078
   2 H :   -0.000079
   3 H :    0.000001
   4 H :    0.000004
   5 H :    0.000001
   6 C :   -0.182614
   7 O :   -0.463189
   8 H :    0.318329
   9 H :    0.111821
  10 H :    0.104726
  11 H :    0.111136
Sum of atomic charges:    0.0000000

LOEWDIN ATOMIC CHARGES
----------------------
   0 C :   -0.000032
   1 O :   -0.000224
   2 H :   -0.000076
   3 H :   -0.000000
   4 H :   -0.000001
   5 H :   -0.000001
   6 C :   -0.397729
   7 O :   -0.071444
   8 H :    0.168987
   9 H :    0.093902
  10 H :    0.099763
  11 H :    0.106856

  Mayer bond orders larger than 0.1
B(  6-C ,  7-O ) :   1.0084 B(  6-C ,  9-H ) :   0.9800 B(  6-C , 10-H ) :   0.9787
B(  6-C , 11-H ) :   0.9694 B(  7-O ,  8-H ) :   0.9016

Dispersion correction           -0.000252695
FINAL SINGLE POINT ENERGY      -115.730328515342

DIPOLE MOMENT
-------------
                                X             Y             Z
Electronic contribution:      1.69319       0.12981      -1.02275
Nuclear contribution   :     -1.85554       0.15106       1.67516
                        -----------------------------------------
Total Dipole Moment    :     -0.16235       0.28087       0.65240
                        -----------------------------------------
Magnitude (a.u.)       :      0.72861
Magnitude (Debye)      :      1.85199

Rotational constants in cm-1:     4.403914     0.818526     0.796139
Rotational constants in MHz : 132026.022377 24538.796495 23867.657537

                             ****ORCA TERMINATED NORMALLY****
TOTAL RUN TIME: 0 days 0 hours 1 minutes 1 seconds 141 msec
