                         Program Version 4.1.2  - RELEASE  -
|  1> #Run DFT-D3 single point of the dimer
|  2> ! wB97X-D3 def2-TZVP TIGHTSCF CHELPG PMODEL PAL8
|  3>
|  4> %base "7-182_DFT_AB"
|  5>
|  6> %scf
|  7> MaxIter 1000
|  8> end
|  9>
| 10> * xyz 0 1
| 11>   C                      -7.912247            -1.685603            -5.852618
| 12>   O                      -7.718113            -0.401322            -6.512190
| 13>   H                      -6.953689            -0.373193            -7.034727
| 14>   H                      -8.049571            -1.675328            -4.783070
| 15>   H                      -8.681711            -2.309248            -6.337922
| 16>   H                      -7.009668            -2.325405            -6.077702
| 17>   C                      -5.422532            -0.561418            -9.388061
| 18>   O                      -5.397293            0.003766             -8.132950
| 19>   H                      -4.584833            -0.355716            -7.780727
| 20>   H                      -6.177468            0.021668             -9.869926
| 21>   H                      -4.539351            -0.243569            -10.024074
| 22>   H                      -5.560223            -1.636570            -9.374983
| 23> *
| 24>
| 25> #Run DFT-D3 single point of the molecule with dimer basis set
| 26> $new_job
| 27> %base "7-182_DFT_A"
| 28> ! wB97X-D3 def2-TZVP TIGHTSCF CHELPG PMODEL
| 29>
| 30> %scf
| 31> MaxIter 1000
| 32> end
| 33>
| 34> * xyz 0 1
| 35>   C                      -7.912247            -1.685603            -5.852618
| 36>   O                      -7.718113            -0.401322            -6.512190
| 37>   H                      -6.953689            -0.373193            -7.034727
| 38>   H                      -8.049571            -1.675328            -4.783070
| 39>   H                      -8.681711            -2.309248            -6.337922
| 40>   H                      -7.009668            -2.325405            -6.077702
| 41>   C                    : -5.422532            -0.561418            -9.388061
| 42>   O                    : -5.397293            0.003766             -8.132950
| 43>   H                    : -4.584833            -0.355716            -7.780727
| 44>   H                    : -6.177468            0.021668             -9.869926
| 45>   H                    : -4.539351            -0.243569            -10.024074
| 46>   H                    : -5.560223            -1.636570            -9.374983
| 47> *
| 48>
| 49> #Run DFT-D3 single point of the particle with dimer basis set
| 50> $new_job
| 51> %base "7-182_DFT_B"
| 52> ! wB97X-D3 def2-TZVP TIGHTSCF CHELPG PMODEL
| 53>
| 54> %scf
| 55> MaxIter 1000
| 56> end
| 57>
| 58> * xyz 0 1
| 59>   C                    : -7.912247            -1.685603            -5.852618
| 60>   O                    : -7.718113            -0.401322            -6.512190
| 61>   H                    : -6.953689            -0.373193            -7.034727
| 62>   H                    : -8.049571            -1.675328            -4.783070
| 63>   H                    : -8.681711            -2.309248            -6.337922
| 64>   H                    : -7.009668            -2.325405            -6.077702
| 65>   C                      -5.422532            -0.561418            -9.388061
| 66>   O                      -5.397293            0.003766             -8.132950
| 67>   H                      -4.584833            -0.355716            -7.780727
| 68>   H                      -6.177468            0.021668             -9.869926
| 69>   H                      -4.539351            -0.243569            -10.024074
| 70>   H                      -5.560223            -1.636570            -9.374983
| 71> *
| 72>
| 73>                          ****END OF INPUT****
 Total Charge           Charge          ....    0
 Multiplicity           Mult            ....    1
 Number of Electrons    NEL             ....   36
Dispersion correction           -0.001724404
FINAL SINGLE POINT ENERGY      -231.463147398700
Dispersion correction           -0.000279051
FINAL SINGLE POINT ENERGY      -115.727596126154

CARTESIAN COORDINATES (ANGSTROEM)
---------------------------------
  C     -7.912247   -1.685603   -5.852618
  O     -7.718113   -0.401322   -6.512190
  H     -6.953689   -0.373193   -7.034727
  H     -8.049571   -1.675328   -4.783070
  H     -8.681711   -2.309248   -6.337922
  H     -7.009668   -2.325405   -6.077702
  C     -5.422532   -0.561418   -9.388061
  O     -5.397293    0.003766   -8.132950
  H     -4.584833   -0.355716   -7.780727
  H     -6.177468    0.021668   -9.869926
  H     -4.539351   -0.243569  -10.024074
  H     -5.560223   -1.636570   -9.374983

 Multiplicity           Mult            ....    1
 Number of Electrons    NEL             ....   18
 Basis Dimension        Dim             ....  172

ORBITAL ENERGIES
----------------

  NO   OCC          E(Eh)            E(eV)
   0   2.0000     -19.232738      -523.3494
   1   2.0000     -10.309264      -280.5293
   2   2.0000      -1.155671       -31.4474
   3   2.0000      -0.791581       -21.5400
   4   2.0000      -0.618074       -16.8187
   5   2.0000      -0.558277       -15.1915
   6   2.0000      -0.521967       -14.2035
   7   2.0000      -0.434066       -11.8115
   8   2.0000      -0.375730       -10.2241
   9   0.0000       0.093310         2.5391
  10   0.0000       0.124190         3.3794
  11   0.0000       0.157595         4.2884
  12   0.0000       0.186342         5.0706
  13   0.0000       0.192071         5.2265

MULLIKEN ATOMIC CHARGES
-----------------------
   0 C :    0.001290
   1 O :   -0.002022
   2 H :   -0.005676
   3 H :   -0.000109
   4 H :   -0.000141
   5 H :   -0.002338
   6 C :   -0.166317
   7 O :   -0.455533
   8 H :    0.312630
   9 H :    0.118747
  10 H :    0.093159
  11 H :    0.106309
Sum of atomic charges:   -0.0000000

LOEWDIN ATOMIC CHARGES
----------------------
   0 C :   -0.001625
   1 O :   -0.006069
   2 H :   -0.043375
   3 H :   -0.000021
   4 H :   -0.000018
   5 H :   -0.000771
   6 C :   -0.420958
   7 O :   -0.002791
   8 H :    0.171583
   9 H :    0.108181
  10 H :    0.102794
  11 H :    0.093071

  Mayer bond orders larger than 0.1
B(  6-C ,  7-O ) :   0.9834 B(  6-C ,  9-H ) :   0.9829 B(  6-C , 10-H ) :   0.9685
B(  6-C , 11-H ) :   0.9702 B(  7-O ,  8-H ) :   0.9027

Dispersion correction           -0.000206468
FINAL SINGLE POINT ENERGY      -115.728612651822

DIPOLE MOMENT
-------------
                                X             Y             Z
Electronic contribution:     -0.14999       0.63402       1.68837
Nuclear contribution   :      0.63178      -1.02904      -1.93060
                        -----------------------------------------
Total Dipole Moment    :      0.48179      -0.39502      -0.24223
                        -----------------------------------------
Magnitude (a.u.)       :      0.66845
Magnitude (Debye)      :      1.69907

Rotational constants in cm-1:     4.183365     0.879771     0.854034
Rotational constants in MHz : 125414.127834 26374.885558 25603.283510

                             ****ORCA TERMINATED NORMALLY****
TOTAL RUN TIME: 0 days 0 hours 1 minutes 9 seconds 316 msec
