                         Program Version 4.1.2  - RELEASE  -
|  1> #Run DFT-D3 single point of the dimer
|  2> ! wB97X-D3 def2-TZVP TIGHTSCF CHELPG PMODEL PAL8
|  3>
|  4> %base "1-66_DFT_AB"
|  5>
|  6> %scf
|  7> MaxIter 1000
|  8> end
|  9>
| 10> * xyz 0 1
| 11>   C                      5.651281             -6.607152            -7.131808
| 12>   O                      4.421029             -6.172387            -6.635053
| 13>   H                      3.846128             -6.941923            -6.443546
| 14>   H                      6.331579             -5.736460            -7.229165
| 15>   H                      6.041744             -7.382705            -6.519006
| 16>   H                      5.543523             -7.079936            -8.062609
| 17>   C                      9.737229             -8.670955            -6.445345
| 18>   O                      8.921854             -7.801298            -7.203061
| 19>   H                      8.022620             -7.773771            -6.947622
| 20>   H                      9.899535             -8.475589            -5.399964
| 21>   H                      9.368879             -9.762855            -6.534120
| 22>   H                      10.768083            -8.790271            -6.912394
| 23> *
| 24>
| 25> #Run DFT-D3 single point of the molecule with dimer basis set
| 26> $new_job
| 27> %base "1-66_DFT_A"
| 28> ! wB97X-D3 def2-TZVP TIGHTSCF CHELPG PMODEL
| 29>
| 30> %scf
| 31> MaxIter 1000
| 32> end
| 33>
| 34> * xyz 0 1
| 35>   C                      5.651281             -6.607152            -7.131808
| 36>   O                      4.421029             -6.172387            -6.635053
| 37>   H                      3.846128             -6.941923            -6.443546
| 38>   H                      6.331579             -5.736460            -7.229165
| 39>   H                      6.041744             -7.382705            -6.519006
| 40>   H                      5.543523             -7.079936            -8.062609
| 41>   C                    : 9.737229             -8.670955            -6.445345
| 42>   O                    : 8.921854             -7.801298            -7.203061
| 43>   H                    : 8.022620             -7.773771            -6.947622
| 44>   H                    : 9.899535             -8.475589            -5.399964
| 45>   H                    : 9.368879             -9.762855            -6.534120
| 46>   H                    : 10.768083            -8.790271            -6.912394
| 47> *
| 48>
| 49> #Run DFT-D3 single point of the particle with dimer basis set
| 50> $new_job
| 51> %base "1-66_DFT_B"
| 52> ! wB97X-D3 def2-TZVP TIGHTSCF CHELPG PMODEL
| 53>
| 54> %scf
| 55> MaxIter 1000
| 56> end
| 57>
| 58> * xyz 0 1
| 59>   C                    : 5.651281             -6.607152            -7.131808
| 60>   O                    : 4.421029             -6.172387            -6.635053
| 61>   H                    : 3.846128             -6.941923            -6.443546
| 62>   H                    : 6.331579             -5.736460            -7.229165
| 63>   H                    : 6.041744             -7.382705            -6.519006
| 64>   H                    : 5.543523             -7.079936            -8.062609
| 65>   C                      9.737229             -8.670955            -6.445345
| 66>   O                      8.921854             -7.801298            -7.203061
| 67>   H                      8.022620             -7.773771            -6.947622
| 68>   H                      9.899535             -8.475589            -5.399964
| 69>   H                      9.368879             -9.762855            -6.534120
| 70>   H                      10.768083            -8.790271            -6.912394
| 71> *
| 72>
| 73>                          ****END OF INPUT****
 Total Charge           Charge          ....    0
 Multiplicity           Mult            ....    1
 Number of Electrons    NEL             ....   36
Dispersion correction           -0.001434916
FINAL SINGLE POINT ENERGY      -231.461787270249
Dispersion correction           -0.000217693
FINAL SINGLE POINT ENERGY      -115.732540554454

CARTESIAN COORDINATES (ANGSTROEM)
---------------------------------
  C      5.651281   -6.607152   -7.131808
  O      4.421029   -6.172387   -6.635053
  H      3.846128   -6.941923   -6.443546
  H      6.331579   -5.736460   -7.229165
  H      6.041744   -7.382705   -6.519006
  H      5.543523   -7.079936   -8.062609
  C      9.737229   -8.670955   -6.445345
  O      8.921854   -7.801298   -7.203061
  H      8.022620   -7.773771   -6.947622
  H      9.899535   -8.475589   -5.399964
  H      9.368879   -9.762855   -6.534120
  H     10.768083   -8.790271   -6.912394

 Multiplicity           Mult            ....    1
 Number of Electrons    NEL             ....   18
 Basis Dimension        Dim             ....  172

ORBITAL ENERGIES
----------------

  NO   OCC          E(Eh)            E(eV)
   0   2.0000     -19.231534      -523.3166
   1   2.0000     -10.323460      -280.9156
   2   2.0000      -1.139626       -31.0108
   3   2.0000      -0.797977       -21.7141
   4   2.0000      -0.619898       -16.8683
   5   2.0000      -0.537594       -14.6287
   6   2.0000      -0.522389       -14.2149
   7   2.0000      -0.422228       -11.4894
   8   2.0000      -0.376490       -10.2448
   9   0.0000       0.074628         2.0307
  10   0.0000       0.129881         3.5342
  11   0.0000       0.145459         3.9581
  12   0.0000       0.177204         4.8220
  13   0.0000       0.192374         5.2348

MULLIKEN ATOMIC CHARGES
-----------------------
   0 C :    0.003146
   1 O :    0.000034
   2 H :    0.000009
   3 H :   -0.000995
   4 H :   -0.004499
   5 H :   -0.000581
   6 C :   -0.172911
   7 O :   -0.471783
   8 H :    0.315947
   9 H :    0.112687
  10 H :    0.097378
  11 H :    0.121567
Sum of atomic charges:   -0.0000000

LOEWDIN ATOMIC CHARGES
----------------------
   0 C :   -0.007113
   1 O :   -0.000043
   2 H :   -0.000006
   3 H :   -0.001017
   4 H :   -0.005014
   5 H :   -0.000407
   6 C :   -0.398432
   7 O :   -0.053953
   8 H :    0.155785
   9 H :    0.088711
  10 H :    0.103121
  11 H :    0.118367

  Mayer bond orders larger than 0.1
B(  6-C ,  7-O ) :   0.9989 B(  6-C ,  9-H ) :   0.9632 B(  6-C , 10-H ) :   0.9813
B(  6-C , 11-H ) :   0.9709 B(  7-O ,  8-H ) :   0.9000

Dispersion correction           -0.000288631
FINAL SINGLE POINT ENERGY      -115.729114651009

DIPOLE MOMENT
-------------
                                X             Y             Z
Electronic contribution:     -1.04596       1.39595      -0.93343
Nuclear contribution   :      0.79246      -1.72037       1.40375
                        -----------------------------------------
Total Dipole Moment    :     -0.25350      -0.32442       0.47032
                        -----------------------------------------
Magnitude (a.u.)       :      0.62507
Magnitude (Debye)      :      1.58880

Rotational constants in cm-1:     4.410972     0.803201     0.783053
Rotational constants in MHz : 132237.603854 24079.373085 23475.324371

                             ****ORCA TERMINATED NORMALLY****
TOTAL RUN TIME: 0 days 0 hours 6 minutes 14 seconds 201 msec
