                         Program Version 4.1.2  - RELEASE  -
|  1> #Run DFT-D3 single point of the dimer
|  2> ! wB97X-D3 def2-TZVP TIGHTSCF CHELPG PMODEL PAL8
|  3>
|  4> %base "18-159_DFT_AB"
|  5>
|  6> %scf
|  7> MaxIter 1000
|  8> end
|  9>
| 10> * xyz 0 1
| 11>   C                      0.928907             7.448573             3.487532
| 12>   O                      0.765895             8.885625             3.348894
| 13>   H                      1.694206             9.228665             3.410439
| 14>   H                      1.616737             7.010766             2.734022
| 15>   H                      1.367731             7.210339             4.484350
| 16>   H                      -0.005541            6.954212             3.480034
| 17>   C                      2.680048             11.428202            5.553753
| 18>   O                      3.205014             10.351090            4.820974
| 19>   H                      3.830850             9.851421             5.347493
| 20>   H                      3.483308             12.098825            5.951507
| 21>   H                      2.029457             11.987699            4.871280
| 22>   H                      2.058830             11.102375            6.433720
| 23> *
| 24>
| 25> #Run DFT-D3 single point of the molecule with dimer basis set
| 26> $new_job
| 27> %base "18-159_DFT_A"
| 28> ! wB97X-D3 def2-TZVP TIGHTSCF CHELPG PMODEL
| 29>
| 30> %scf
| 31> MaxIter 1000
| 32> end
| 33>
| 34> * xyz 0 1
| 35>   C                      0.928907             7.448573             3.487532
| 36>   O                      0.765895             8.885625             3.348894
| 37>   H                      1.694206             9.228665             3.410439
| 38>   H                      1.616737             7.010766             2.734022
| 39>   H                      1.367731             7.210339             4.484350
| 40>   H                      -0.005541            6.954212             3.480034
| 41>   C                    : 2.680048             11.428202            5.553753
| 42>   O                    : 3.205014             10.351090            4.820974
| 43>   H                    : 3.830850             9.851421             5.347493
| 44>   H                    : 3.483308             12.098825            5.951507
| 45>   H                    : 2.029457             11.987699            4.871280
| 46>   H                    : 2.058830             11.102375            6.433720
| 47> *
| 48>
| 49> #Run DFT-D3 single point of the particle with dimer basis set
| 50> $new_job
| 51> %base "18-159_DFT_B"
| 52> ! wB97X-D3 def2-TZVP TIGHTSCF CHELPG PMODEL
| 53>
| 54> %scf
| 55> MaxIter 1000
| 56> end
| 57>
| 58> * xyz 0 1
| 59>   C                    : 0.928907             7.448573             3.487532
| 60>   O                    : 0.765895             8.885625             3.348894
| 61>   H                    : 1.694206             9.228665             3.410439
| 62>   H                    : 1.616737             7.010766             2.734022
| 63>   H                    : 1.367731             7.210339             4.484350
| 64>   H                    : -0.005541            6.954212             3.480034
| 65>   C                      2.680048             11.428202            5.553753
| 66>   O                      3.205014             10.351090            4.820974
| 67>   H                      3.830850             9.851421             5.347493
| 68>   H                      3.483308             12.098825            5.951507
| 69>   H                      2.029457             11.987699            4.871280
| 70>   H                      2.058830             11.102375            6.433720
| 71> *
| 72>
| 73>                          ****END OF INPUT****
 Total Charge           Charge          ....    0
 Multiplicity           Mult            ....    1
 Number of Electrons    NEL             ....   36
Dispersion correction           -0.001600748
FINAL SINGLE POINT ENERGY      -231.476427896054
Dispersion correction           -0.000249891
FINAL SINGLE POINT ENERGY      -115.733377560888

CARTESIAN COORDINATES (ANGSTROEM)
---------------------------------
  C      0.928907    7.448573    3.487532
  O      0.765895    8.885625    3.348894
  H      1.694206    9.228665    3.410439
  H      1.616737    7.010766    2.734022
  H      1.367731    7.210339    4.484350
  H     -0.005541    6.954212    3.480034
  C      2.680048   11.428202    5.553753
  O      3.205014   10.351090    4.820974
  H      3.830850    9.851421    5.347493
  H      3.483308   12.098825    5.951507
  H      2.029457   11.987699    4.871280
  H      2.058830   11.102375    6.433720

 Multiplicity           Mult            ....    1
 Number of Electrons    NEL             ....   18
 Basis Dimension        Dim             ....  172

ORBITAL ENERGIES
----------------

  NO   OCC          E(Eh)            E(eV)
   0   2.0000     -19.230974      -523.3014
   1   2.0000     -10.319158      -280.7986
   2   2.0000      -1.138832       -30.9892
   3   2.0000      -0.792708       -21.5707
   4   2.0000      -0.613411       -16.6918
   5   2.0000      -0.536590       -14.6013
   6   2.0000      -0.528270       -14.3750
   7   2.0000      -0.432347       -11.7648
   8   2.0000      -0.372701       -10.1417
   9   0.0000       0.095274         2.5925
  10   0.0000       0.122860         3.3432
  11   0.0000       0.152586         4.1521
  12   0.0000       0.182019         4.9530
  13   0.0000       0.197409         5.3718

MULLIKEN ATOMIC CHARGES
-----------------------
   0 C :   -0.000511
   1 O :   -0.000716
   2 H :   -0.003694
   3 H :   -0.000033
   4 H :   -0.001878
   5 H :   -0.000202
   6 C :   -0.157023
   7 O :   -0.471373
   8 H :    0.313752
   9 H :    0.101363
  10 H :    0.122414
  11 H :    0.097900
Sum of atomic charges:    0.0000000

LOEWDIN ATOMIC CHARGES
----------------------
   0 C :   -0.001831
   1 O :   -0.002221
   2 H :   -0.017955
   3 H :   -0.000022
   4 H :   -0.000760
   5 H :   -0.000028
   6 C :   -0.397400
   7 O :   -0.052331
   8 H :    0.166395
   9 H :    0.098659
  10 H :    0.110048
  11 H :    0.097446

  Mayer bond orders larger than 0.1
B(  6-C ,  7-O ) :   0.9921 B(  6-C ,  9-H ) :   0.9705 B(  6-C , 10-H ) :   0.9753
B(  6-C , 11-H ) :   0.9705 B(  7-O ,  8-H ) :   0.8961

Dispersion correction           -0.000253246
FINAL SINGLE POINT ENERGY      -115.736983849872

DIPOLE MOMENT
-------------
                                X             Y             Z
Electronic contribution:      0.62524      -1.34779      -1.07038
Nuclear contribution   :     -0.42057       1.45908       1.68647
                        -----------------------------------------
Total Dipole Moment    :      0.20467       0.11129       0.61609
                        -----------------------------------------
Magnitude (a.u.)       :      0.65867
Magnitude (Debye)      :      1.67421

Rotational constants in cm-1:     4.198598     0.833607     0.804090
Rotational constants in MHz : 125870.789463 24990.909279 24106.023517

                             ****ORCA TERMINATED NORMALLY****
TOTAL RUN TIME: 0 days 0 hours 1 minutes 6 seconds 272 msec
