                         Program Version 4.1.2  - RELEASE  -
|  1> #Run DFT-D3 single point of the dimer
|  2> ! wB97X-D3 def2-TZVP TIGHTSCF CHELPG PMODEL PAL8
|  3>
|  4> %base "19-142_DFT_AB"
|  5>
|  6> %scf
|  7> MaxIter 1000
|  8> end
|  9>
| 10> * xyz 0 1
| 11>   C                      4.711834             -8.345417            -1.787665
| 12>   O                      4.351505             -9.380712            -2.640933
| 13>   H                      4.436691             -10.246070           -2.192788
| 14>   H                      5.247250             -7.520029            -2.200052
| 15>   H                      3.785953             -7.910492            -1.349305
| 16>   H                      5.296892             -8.815568            -0.964432
| 17>   C                      8.381037             -9.221024            -2.445365
| 18>   O                      7.711288             -9.785594            -3.581768
| 19>   H                      7.153848             -9.079811            -3.973077
| 20>   H                      7.701811             -9.104353            -1.629478
| 21>   H                      9.079876             -9.952231            -2.183109
| 22>   H                      8.852604             -8.316169            -2.784880
| 23> *
| 24>
| 25> #Run DFT-D3 single point of the molecule with dimer basis set
| 26> $new_job
| 27> %base "19-142_DFT_A"
| 28> ! wB97X-D3 def2-TZVP TIGHTSCF CHELPG PMODEL
| 29>
| 30> %scf
| 31> MaxIter 1000
| 32> end
| 33>
| 34> * xyz 0 1
| 35>   C                      4.711834             -8.345417            -1.787665
| 36>   O                      4.351505             -9.380712            -2.640933
| 37>   H                      4.436691             -10.246070           -2.192788
| 38>   H                      5.247250             -7.520029            -2.200052
| 39>   H                      3.785953             -7.910492            -1.349305
| 40>   H                      5.296892             -8.815568            -0.964432
| 41>   C                    : 8.381037             -9.221024            -2.445365
| 42>   O                    : 7.711288             -9.785594            -3.581768
| 43>   H                    : 7.153848             -9.079811            -3.973077
| 44>   H                    : 7.701811             -9.104353            -1.629478
| 45>   H                    : 9.079876             -9.952231            -2.183109
| 46>   H                    : 8.852604             -8.316169            -2.784880
| 47> *
| 48>
| 49> #Run DFT-D3 single point of the particle with dimer basis set
| 50> $new_job
| 51> %base "19-142_DFT_B"
| 52> ! wB97X-D3 def2-TZVP TIGHTSCF CHELPG PMODEL
| 53>
| 54> %scf
| 55> MaxIter 1000
| 56> end
| 57>
| 58> * xyz 0 1
| 59>   C                    : 4.711834             -8.345417            -1.787665
| 60>   O                    : 4.351505             -9.380712            -2.640933
| 61>   H                    : 4.436691             -10.246070           -2.192788
| 62>   H                    : 5.247250             -7.520029            -2.200052
| 63>   H                    : 3.785953             -7.910492            -1.349305
| 64>   H                    : 5.296892             -8.815568            -0.964432
| 65>   C                      8.381037             -9.221024            -2.445365
| 66>   O                      7.711288             -9.785594            -3.581768
| 67>   H                      7.153848             -9.079811            -3.973077
| 68>   H                      7.701811             -9.104353            -1.629478
| 69>   H                      9.079876             -9.952231            -2.183109
| 70>   H                      8.852604             -8.316169            -2.784880
| 71> *
| 72>
| 73>                          ****END OF INPUT****
 Total Charge           Charge          ....    0
 Multiplicity           Mult            ....    1
 Number of Electrons    NEL             ....   36
Dispersion correction           -0.002046627
FINAL SINGLE POINT ENERGY      -231.465700299335
Dispersion correction           -0.000234336
FINAL SINGLE POINT ENERGY      -115.730438145638

CARTESIAN COORDINATES (ANGSTROEM)
---------------------------------
  C      4.711834   -8.345417   -1.787665
  O      4.351505   -9.380712   -2.640933
  H      4.436691  -10.246070   -2.192788
  H      5.247250   -7.520029   -2.200052
  H      3.785953   -7.910492   -1.349305
  H      5.296892   -8.815568   -0.964432
  C      8.381037   -9.221024   -2.445365
  O      7.711288   -9.785594   -3.581768
  H      7.153848   -9.079811   -3.973077
  H      7.701811   -9.104353   -1.629478
  H      9.079876   -9.952231   -2.183109
  H      8.852604   -8.316169   -2.784880

 Multiplicity           Mult            ....    1
 Number of Electrons    NEL             ....   18
 Basis Dimension        Dim             ....  172

ORBITAL ENERGIES
----------------

  NO   OCC          E(Eh)            E(eV)
   0   2.0000     -19.226720      -523.1856
   1   2.0000     -10.303651      -280.3766
   2   2.0000      -1.124414       -30.5969
   3   2.0000      -0.799423       -21.7534
   4   2.0000      -0.602013       -16.3816
   5   2.0000      -0.552709       -15.0400
   6   2.0000      -0.524471       -14.2716
   7   2.0000      -0.434644       -11.8273
   8   2.0000      -0.372952       -10.1485
   9   0.0000       0.078120         2.1258
  10   0.0000       0.129279         3.5179
  11   0.0000       0.154803         4.2124
  12   0.0000       0.166180         4.5220
  13   0.0000       0.193004         5.2519

MULLIKEN ATOMIC CHARGES
-----------------------
   0 C :   -0.003447
   1 O :    0.000230
   2 H :   -0.000628
   3 H :   -0.000221
   4 H :    0.000017
   5 H :    0.000305
   6 C :   -0.157244
   7 O :   -0.486508
   8 H :    0.311179
   9 H :    0.103138
  10 H :    0.126370
  11 H :    0.106808
Sum of atomic charges:    0.0000000

LOEWDIN ATOMIC CHARGES
----------------------
   0 C :   -0.005665
   1 O :   -0.001809
   2 H :   -0.001026
   3 H :   -0.000716
   4 H :   -0.000066
   5 H :   -0.002266
   6 C :   -0.351549
   7 O :   -0.101292
   8 H :    0.175094
   9 H :    0.092833
  10 H :    0.100532
  11 H :    0.095931

  Mayer bond orders larger than 0.1
B(  6-C ,  7-O ) :   0.9923 B(  6-C ,  9-H ) :   0.9730 B(  6-C , 10-H ) :   0.9774
B(  6-C , 11-H ) :   0.9869 B(  7-O ,  8-H ) :   0.9016

Dispersion correction           -0.000217591
FINAL SINGLE POINT ENERGY      -115.733241823846

DIPOLE MOMENT
-------------
                                X             Y             Z
Electronic contribution:     -0.69393      -0.75027      -1.24717
Nuclear contribution   :      0.64673       1.40741       1.47417
                        -----------------------------------------
Total Dipole Moment    :     -0.04721       0.65714       0.22701
                        -----------------------------------------
Magnitude (a.u.)       :      0.69684
Magnitude (Debye)      :      1.77123

Rotational constants in cm-1:     4.296505     0.830674     0.803296
Rotational constants in MHz : 128805.970063 24902.972924 24082.216181

                             ****ORCA TERMINATED NORMALLY****
TOTAL RUN TIME: 0 days 0 hours 1 minutes 45 seconds 216 msec
