                         Program Version 4.1.2  - RELEASE  -
|  1> #Run DFT-D3 single point of the dimer
|  2> ! wB97X-D3 def2-TZVP TIGHTSCF CHELPG PMODEL PAL8
|  3>
|  4> %base "10-186_DFT_AB"
|  5>
|  6> %scf
|  7> MaxIter 1000
|  8> end
|  9>
| 10> * xyz 0 1
| 11>   C                      8.813563             -5.362564            -9.099402
| 12>   O                      7.631475             -6.211392            -8.805100
| 13>   H                      7.480940             -6.748044            -9.586111
| 14>   H                      8.838425             -4.975948            -10.120209
| 15>   H                      8.859038             -4.575543            -8.345183
| 16>   H                      9.709252             -5.911968            -8.893327
| 17>   C                      4.999269             -7.787659            -10.621185
| 18>   O                      6.223927             -7.393043            -11.259496
| 19>   H                      6.016393             -6.779621            -11.954958
| 20>   H                      4.262193             -8.069069            -11.347399
| 21>   H                      5.041425             -8.642465            -9.976267
| 22>   H                      4.608047             -6.987080            -10.034388
| 23> *
| 24>
| 25> #Run DFT-D3 single point of the molecule with dimer basis set
| 26> $new_job
| 27> %base "10-186_DFT_A"
| 28> ! wB97X-D3 def2-TZVP TIGHTSCF CHELPG PMODEL
| 29>
| 30> %scf
| 31> MaxIter 1000
| 32> end
| 33>
| 34> * xyz 0 1
| 35>   C                      8.813563             -5.362564            -9.099402
| 36>   O                      7.631475             -6.211392            -8.805100
| 37>   H                      7.480940             -6.748044            -9.586111
| 38>   H                      8.838425             -4.975948            -10.120209
| 39>   H                      8.859038             -4.575543            -8.345183
| 40>   H                      9.709252             -5.911968            -8.893327
| 41>   C                    : 4.999269             -7.787659            -10.621185
| 42>   O                    : 6.223927             -7.393043            -11.259496
| 43>   H                    : 6.016393             -6.779621            -11.954958
| 44>   H                    : 4.262193             -8.069069            -11.347399
| 45>   H                    : 5.041425             -8.642465            -9.976267
| 46>   H                    : 4.608047             -6.987080            -10.034388
| 47> *
| 48>
| 49> #Run DFT-D3 single point of the particle with dimer basis set
| 50> $new_job
| 51> %base "10-186_DFT_B"
| 52> ! wB97X-D3 def2-TZVP TIGHTSCF CHELPG PMODEL
| 53>
| 54> %scf
| 55> MaxIter 1000
| 56> end
| 57>
| 58> * xyz 0 1
| 59>   C                    : 8.813563             -5.362564            -9.099402
| 60>   O                    : 7.631475             -6.211392            -8.805100
| 61>   H                    : 7.480940             -6.748044            -9.586111
| 62>   H                    : 8.838425             -4.975948            -10.120209
| 63>   H                    : 8.859038             -4.575543            -8.345183
| 64>   H                    : 9.709252             -5.911968            -8.893327
| 65>   C                      4.999269             -7.787659            -10.621185
| 66>   O                      6.223927             -7.393043            -11.259496
| 67>   H                      6.016393             -6.779621            -11.954958
| 68>   H                      4.262193             -8.069069            -11.347399
| 69>   H                      5.041425             -8.642465            -9.976267
| 70>   H                      4.608047             -6.987080            -10.034388
| 71> *
| 72>
| 73>                          ****END OF INPUT****
 Total Charge           Charge          ....    0
 Multiplicity           Mult            ....    1
 Number of Electrons    NEL             ....   36
Dispersion correction           -0.001669743
FINAL SINGLE POINT ENERGY      -231.472892186348
Dispersion correction           -0.000267842
FINAL SINGLE POINT ENERGY      -115.732753487655

CARTESIAN COORDINATES (ANGSTROEM)
---------------------------------
  C      8.813563   -5.362564   -9.099402
  O      7.631475   -6.211392   -8.805100
  H      7.480940   -6.748044   -9.586111
  H      8.838425   -4.975948  -10.120209
  H      8.859038   -4.575543   -8.345183
  H      9.709252   -5.911968   -8.893327
  C      4.999269   -7.787659  -10.621185
  O      6.223927   -7.393043  -11.259496
  H      6.016393   -6.779621  -11.954958
  H      4.262193   -8.069069  -11.347399
  H      5.041425   -8.642465   -9.976267
  H      4.608047   -6.987080  -10.034388

 Multiplicity           Mult            ....    1
 Number of Electrons    NEL             ....   18
 Basis Dimension        Dim             ....  172

ORBITAL ENERGIES
----------------

  NO   OCC          E(Eh)            E(eV)
   0   2.0000     -19.229551      -523.2627
   1   2.0000     -10.307855      -280.4910
   2   2.0000      -1.130971       -30.7753
   3   2.0000      -0.804998       -21.9051
   4   2.0000      -0.608614       -16.5612
   5   2.0000      -0.545085       -14.8325
   6   2.0000      -0.531134       -14.4529
   7   2.0000      -0.432078       -11.7574
   8   2.0000      -0.376159       -10.2358
   9   0.0000       0.097072         2.6415
  10   0.0000       0.123822         3.3694
  11   0.0000       0.149894         4.0788
  12   0.0000       0.189676         5.1613
  13   0.0000       0.203899         5.5484

MULLIKEN ATOMIC CHARGES
-----------------------
   0 C :   -0.000617
   1 O :   -0.002907
   2 H :   -0.000324
   3 H :   -0.001116
   4 H :   -0.000085
   5 H :   -0.000088
   6 C :   -0.173964
   7 O :   -0.482544
   8 H :    0.315390
   9 H :    0.110856
  10 H :    0.123133
  11 H :    0.112266
Sum of atomic charges:    0.0000000

LOEWDIN ATOMIC CHARGES
----------------------
   0 C :   -0.001479
   1 O :   -0.003297
   2 H :   -0.024586
   3 H :   -0.000434
   4 H :   -0.000016
   5 H :   -0.000016
   6 C :   -0.360224
   7 O :   -0.065093
   8 H :    0.162191
   9 H :    0.095102
  10 H :    0.105192
  11 H :    0.092661

  Mayer bond orders larger than 0.1
B(  6-C ,  7-O ) :   0.9796 B(  6-C ,  9-H ) :   0.9772 B(  6-C , 10-H ) :   0.9737
B(  6-C , 11-H ) :   0.9805 B(  7-O ,  8-H ) :   0.8989

Dispersion correction           -0.000242873
FINAL SINGLE POINT ENERGY      -115.732849847038

DIPOLE MOMENT
-------------
                                X             Y             Z
Electronic contribution:      1.67219       0.38929      -0.69680
Nuclear contribution   :     -2.34224      -0.18536       0.51243
                        -----------------------------------------
Total Dipole Moment    :     -0.67005       0.20393      -0.18438
                        -----------------------------------------
Magnitude (a.u.)       :      0.72426
Magnitude (Debye)      :      1.84091

Rotational constants in cm-1:     4.588045     0.804538     0.781505
Rotational constants in MHz : 137546.143785 24119.428770 23428.932625

                             ****ORCA TERMINATED NORMALLY****
TOTAL RUN TIME: 0 days 0 hours 1 minutes 5 seconds 857 msec
