                         Program Version 4.1.2  - RELEASE  -
|  1> #Run DFT-D3 single point of the dimer
|  2> ! wB97X-D3 def2-TZVP TIGHTSCF CHELPG PMODEL PAL8
|  3>
|  4> %base "16-153_DFT_AB"
|  5>
|  6> %scf
|  7> MaxIter 1000
|  8> end
|  9>
| 10> * xyz 0 1
| 11>   C                      2.189674             -1.010247            4.700833
| 12>   O                      1.194320             -0.027531            4.920133
| 13>   H                      0.505740             -0.402246            5.447141
| 14>   H                      2.137842             -1.454078            3.693112
| 15>   H                      3.265044             -0.626373            4.644516
| 16>   H                      2.152488             -1.850272            5.418308
| 17>   C                      -3.580619            -0.811597            5.816965
| 18>   O                      -2.256292            -0.945819            5.365711
| 19>   H                      -1.594474            -0.478532            5.898035
| 20>   H                      -3.773277            -1.286133            6.793522
| 21>   H                      -3.960942            0.289719             5.922689
| 22>   H                      -4.295211            -1.246757            5.123571
| 23> *
| 24>
| 25> #Run DFT-D3 single point of the molecule with dimer basis set
| 26> $new_job
| 27> %base "16-153_DFT_A"
| 28> ! wB97X-D3 def2-TZVP TIGHTSCF CHELPG PMODEL
| 29>
| 30> %scf
| 31> MaxIter 1000
| 32> end
| 33>
| 34> * xyz 0 1
| 35>   C                      2.189674             -1.010247            4.700833
| 36>   O                      1.194320             -0.027531            4.920133
| 37>   H                      0.505740             -0.402246            5.447141
| 38>   H                      2.137842             -1.454078            3.693112
| 39>   H                      3.265044             -0.626373            4.644516
| 40>   H                      2.152488             -1.850272            5.418308
| 41>   C                    : -3.580619            -0.811597            5.816965
| 42>   O                    : -2.256292            -0.945819            5.365711
| 43>   H                    : -1.594474            -0.478532            5.898035
| 44>   H                    : -3.773277            -1.286133            6.793522
| 45>   H                    : -3.960942            0.289719             5.922689
| 46>   H                    : -4.295211            -1.246757            5.123571
| 47> *
| 48>
| 49> #Run DFT-D3 single point of the particle with dimer basis set
| 50> $new_job
| 51> %base "16-153_DFT_B"
| 52> ! wB97X-D3 def2-TZVP TIGHTSCF CHELPG PMODEL
| 53>
| 54> %scf
| 55> MaxIter 1000
| 56> end
| 57>
| 58> * xyz 0 1
| 59>   C                    : 2.189674             -1.010247            4.700833
| 60>   O                    : 1.194320             -0.027531            4.920133
| 61>   H                    : 0.505740             -0.402246            5.447141
| 62>   H                    : 2.137842             -1.454078            3.693112
| 63>   H                    : 3.265044             -0.626373            4.644516
| 64>   H                    : 2.152488             -1.850272            5.418308
| 65>   C                      -3.580619            -0.811597            5.816965
| 66>   O                      -2.256292            -0.945819            5.365711
| 67>   H                      -1.594474            -0.478532            5.898035
| 68>   H                      -3.773277            -1.286133            6.793522
| 69>   H                      -3.960942            0.289719             5.922689
| 70>   H                      -4.295211            -1.246757            5.123571
| 71> *
| 72>
| 73>                          ****END OF INPUT****
 Total Charge           Charge          ....    0
 Multiplicity           Mult            ....    1
 Number of Electrons    NEL             ....   36
Dispersion correction           -0.001229438
FINAL SINGLE POINT ENERGY      -231.460960028279
Dispersion correction           -0.000273006
FINAL SINGLE POINT ENERGY      -115.730870094121

CARTESIAN COORDINATES (ANGSTROEM)
---------------------------------
  C      2.189674   -1.010247    4.700833
  O      1.194320   -0.027531    4.920133
  H      0.505740   -0.402246    5.447141
  H      2.137842   -1.454078    3.693112
  H      3.265044   -0.626373    4.644516
  H      2.152488   -1.850272    5.418308
  C     -3.580619   -0.811597    5.816965
  O     -2.256292   -0.945819    5.365711
  H     -1.594474   -0.478532    5.898035
  H     -3.773277   -1.286133    6.793522
  H     -3.960942    0.289719    5.922689
  H     -4.295211   -1.246757    5.123571

 Multiplicity           Mult            ....    1
 Number of Electrons    NEL             ....   18
 Basis Dimension        Dim             ....  172

ORBITAL ENERGIES
----------------

  NO   OCC          E(Eh)            E(eV)
   0   2.0000     -19.233770      -523.3775
   1   2.0000     -10.321614      -280.8654
   2   2.0000      -1.134954       -30.8837
   3   2.0000      -0.794820       -21.6282
   4   2.0000      -0.613895       -16.7049
   5   2.0000      -0.535804       -14.5800
   6   2.0000      -0.526640       -14.3306
   7   2.0000      -0.424524       -11.5519
   8   2.0000      -0.373418       -10.1612
   9   0.0000       0.084324         2.2946
  10   0.0000       0.120269         3.2727
  11   0.0000       0.142649         3.8817
  12   0.0000       0.193351         5.2614
  13   0.0000       0.199299         5.4232

MULLIKEN ATOMIC CHARGES
-----------------------
   0 C :   -0.000180
   1 O :   -0.000460
   2 H :   -0.000125
   3 H :    0.000013
   4 H :   -0.000007
   5 H :   -0.000019
   6 C :   -0.161230
   7 O :   -0.481376
   8 H :    0.323196
   9 H :    0.102368
  10 H :    0.091429
  11 H :    0.126390
Sum of atomic charges:   -0.0000000

LOEWDIN ATOMIC CHARGES
----------------------
   0 C :   -0.000197
   1 O :   -0.000554
   2 H :   -0.004369
   3 H :   -0.000007
   4 H :   -0.000006
   5 H :   -0.000018
   6 C :   -0.402884
   7 O :   -0.071749
   8 H :    0.176731
   9 H :    0.093588
  10 H :    0.102752
  11 H :    0.106713

  Mayer bond orders larger than 0.1
B(  6-C ,  7-O ) :   1.0060 B(  6-C ,  9-H ) :   0.9731 B(  6-C , 10-H ) :   0.9732
B(  6-C , 11-H ) :   0.9702 B(  7-O ,  8-H ) :   0.8872

Dispersion correction           -0.000287459
FINAL SINGLE POINT ENERGY      -115.732194592858

DIPOLE MOMENT
-------------
                                X             Y             Z
Electronic contribution:      1.80064      -0.35037      -0.71727
Nuclear contribution   :     -1.89910       0.68057       1.22741
                        -----------------------------------------
Total Dipole Moment    :     -0.09846       0.33020       0.51014
                        -----------------------------------------
Magnitude (a.u.)       :      0.61560
Magnitude (Debye)      :      1.56473

Rotational constants in cm-1:     4.346106     0.810305     0.788075
Rotational constants in MHz : 130292.990455 24292.317958 23625.894442

                             ****ORCA TERMINATED NORMALLY****
TOTAL RUN TIME: 0 days 0 hours 0 minutes 53 seconds 657 msec
