                         Program Version 4.1.2  - RELEASE  -
|  1> #Run DFT-D3 single point of the dimer
|  2> ! wB97X-D3 def2-TZVP TIGHTSCF CHELPG PMODEL PAL8
|  3>
|  4> %base "4-84_DFT_AB"
|  5>
|  6> %scf
|  7> MaxIter 1000
|  8> end
|  9>
| 10> * xyz 0 1
| 11>   C                      10.523130            -2.639775            4.449714
| 12>   O                      9.637086             -1.623541            4.944725
| 13>   H                      10.235835            -1.029594            5.432499
| 14>   H                      10.169014            -3.207924            3.581402
| 15>   H                      11.577218            -2.300368            4.261550
| 16>   H                      10.573071            -3.466301            5.153517
| 17>   C                      8.781810             -2.907840            1.108210
| 18>   O                      8.441871             -2.974294            -0.306185
| 19>   H                      7.565023             -3.371196            -0.310385
| 20>   H                      8.668325             -3.878862            1.667925
| 21>   H                      9.851191             -2.708176            1.214549
| 22>   H                      8.151343             -2.172420            1.656720
| 23> *
| 24>
| 25> #Run DFT-D3 single point of the molecule with dimer basis set
| 26> $new_job
| 27> %base "4-84_DFT_A"
| 28> ! wB97X-D3 def2-TZVP TIGHTSCF CHELPG PMODEL
| 29>
| 30> %scf
| 31> MaxIter 1000
| 32> end
| 33>
| 34> * xyz 0 1
| 35>   C                      10.523130            -2.639775            4.449714
| 36>   O                      9.637086             -1.623541            4.944725
| 37>   H                      10.235835            -1.029594            5.432499
| 38>   H                      10.169014            -3.207924            3.581402
| 39>   H                      11.577218            -2.300368            4.261550
| 40>   H                      10.573071            -3.466301            5.153517
| 41>   C                    : 8.781810             -2.907840            1.108210
| 42>   O                    : 8.441871             -2.974294            -0.306185
| 43>   H                    : 7.565023             -3.371196            -0.310385
| 44>   H                    : 8.668325             -3.878862            1.667925
| 45>   H                    : 9.851191             -2.708176            1.214549
| 46>   H                    : 8.151343             -2.172420            1.656720
| 47> *
| 48>
| 49> #Run DFT-D3 single point of the particle with dimer basis set
| 50> $new_job
| 51> %base "4-84_DFT_B"
| 52> ! wB97X-D3 def2-TZVP TIGHTSCF CHELPG PMODEL
| 53>
| 54> %scf
| 55> MaxIter 1000
| 56> end
| 57>
| 58> * xyz 0 1
| 59>   C                    : 10.523130            -2.639775            4.449714
| 60>   O                    : 9.637086             -1.623541            4.944725
| 61>   H                    : 10.235835            -1.029594            5.432499
| 62>   H                    : 10.169014            -3.207924            3.581402
| 63>   H                    : 11.577218            -2.300368            4.261550
| 64>   H                    : 10.573071            -3.466301            5.153517
| 65>   C                      8.781810             -2.907840            1.108210
| 66>   O                      8.441871             -2.974294            -0.306185
| 67>   H                      7.565023             -3.371196            -0.310385
| 68>   H                      8.668325             -3.878862            1.667925
| 69>   H                      9.851191             -2.708176            1.214549
| 70>   H                      8.151343             -2.172420            1.656720
| 71> *
| 72>
| 73>                          ****END OF INPUT****
 Total Charge           Charge          ....    0
 Multiplicity           Mult            ....    1
 Number of Electrons    NEL             ....   36
Dispersion correction           -0.001549200
FINAL SINGLE POINT ENERGY      -231.464379072755
Dispersion correction           -0.000261416
FINAL SINGLE POINT ENERGY      -115.730026668018

CARTESIAN COORDINATES (ANGSTROEM)
---------------------------------
  C     10.523130   -2.639775    4.449714
  O      9.637086   -1.623541    4.944725
  H     10.235835   -1.029594    5.432499
  H     10.169014   -3.207924    3.581402
  H     11.577218   -2.300368    4.261550
  H     10.573071   -3.466301    5.153517
  C      8.781810   -2.907840    1.108210
  O      8.441871   -2.974294   -0.306185
  H      7.565023   -3.371196   -0.310385
  H      8.668325   -3.878862    1.667925
  H      9.851191   -2.708176    1.214549
  H      8.151343   -2.172420    1.656720

 Multiplicity           Mult            ....    1
 Number of Electrons    NEL             ....   18
 Basis Dimension        Dim             ....  172

ORBITAL ENERGIES
----------------

  NO   OCC          E(Eh)            E(eV)
   0   2.0000     -19.234905      -523.4084
   1   2.0000     -10.322445      -280.8880
   2   2.0000      -1.127477       -30.6802
   3   2.0000      -0.792829       -21.5740
   4   2.0000      -0.603125       -16.4119
   5   2.0000      -0.537867       -14.6361
   6   2.0000      -0.514999       -14.0138
   7   2.0000      -0.442101       -12.0302
   8   2.0000      -0.377039       -10.2597
   9   0.0000       0.081940         2.2297
  10   0.0000       0.115244         3.1359
  11   0.0000       0.147288         4.0079
  12   0.0000       0.164913         4.4875
  13   0.0000       0.178185         4.8487

MULLIKEN ATOMIC CHARGES
-----------------------
   0 C :    0.001434
   1 O :    0.000081
   2 H :   -0.000009
   3 H :   -0.003412
   4 H :   -0.000073
   5 H :   -0.000148
   6 C :   -0.185248
   7 O :   -0.466789
   8 H :    0.313216
   9 H :    0.105224
  10 H :    0.128023
  11 H :    0.107699
Sum of atomic charges:   -0.0000000

LOEWDIN ATOMIC CHARGES
----------------------
   0 C :   -0.002910
   1 O :   -0.000145
   2 H :   -0.000008
   3 H :   -0.004918
   4 H :   -0.000069
   5 H :   -0.000010
   6 C :   -0.368884
   7 O :   -0.103023
   8 H :    0.168702
   9 H :    0.101673
  10 H :    0.110239
  11 H :    0.099355

  Mayer bond orders larger than 0.1
B(  6-C ,  7-O ) :   1.0022 B(  6-C ,  9-H ) :   0.9704 B(  6-C , 10-H ) :   0.9733
B(  6-C , 11-H ) :   0.9679 B(  7-O ,  8-H ) :   0.9031

Dispersion correction           -0.000267175
FINAL SINGLE POINT ENERGY      -115.733415666528

DIPOLE MOMENT
-------------
                                X             Y             Z
Electronic contribution:     -0.29836       0.05311      -1.90671
Nuclear contribution   :     -0.09615      -0.28522       2.47255
                        -----------------------------------------
Total Dipole Moment    :     -0.39451      -0.23211       0.56584
                        -----------------------------------------
Magnitude (a.u.)       :      0.72780
Magnitude (Debye)      :      1.84992

Rotational constants in cm-1:     4.199146     0.787480     0.760590
Rotational constants in MHz : 125887.240616 23608.046389 22801.909048

                             ****ORCA TERMINATED NORMALLY****
TOTAL RUN TIME: 0 days 0 hours 1 minutes 31 seconds 449 msec
