                         Program Version 4.1.2  - RELEASE  -
|  1> #Run DFT-D3 single point of the dimer
|  2> ! wB97X-D3 def2-TZVP TIGHTSCF CHELPG PMODEL PAL8
|  3>
|  4> %base "4-109_DFT_AB"
|  5>
|  6> %scf
|  7> MaxIter 1000
|  8> end
|  9>
| 10> * xyz 0 1
| 11>   C                      2.306363             7.977900             -7.049044
| 12>   O                      3.680497             7.508819             -7.003539
| 13>   H                      3.822370             6.627895             -7.386926
| 14>   H                      2.324172             9.011762             -7.391483
| 15>   H                      1.650519             7.439648             -7.782240
| 16>   H                      1.747418             7.886337             -6.125104
| 17>   C                      2.722578             4.133135             -4.885620
| 18>   O                      4.120572             4.134643             -4.407210
| 19>   H                      4.093610             4.370129             -3.497614
| 20>   H                      2.658445             4.004755             -5.980850
| 21>   H                      2.083581             3.392493             -4.388767
| 22>   H                      2.263852             5.133771             -4.764851
| 23> *
| 24>
| 25> #Run DFT-D3 single point of the molecule with dimer basis set
| 26> $new_job
| 27> %base "4-109_DFT_A"
| 28> ! wB97X-D3 def2-TZVP TIGHTSCF CHELPG PMODEL
| 29>
| 30> %scf
| 31> MaxIter 1000
| 32> end
| 33>
| 34> * xyz 0 1
| 35>   C                      2.306363             7.977900             -7.049044
| 36>   O                      3.680497             7.508819             -7.003539
| 37>   H                      3.822370             6.627895             -7.386926
| 38>   H                      2.324172             9.011762             -7.391483
| 39>   H                      1.650519             7.439648             -7.782240
| 40>   H                      1.747418             7.886337             -6.125104
| 41>   C                    : 2.722578             4.133135             -4.885620
| 42>   O                    : 4.120572             4.134643             -4.407210
| 43>   H                    : 4.093610             4.370129             -3.497614
| 44>   H                    : 2.658445             4.004755             -5.980850
| 45>   H                    : 2.083581             3.392493             -4.388767
| 46>   H                    : 2.263852             5.133771             -4.764851
| 47> *
| 48>
| 49> #Run DFT-D3 single point of the particle with dimer basis set
| 50> $new_job
| 51> %base "4-109_DFT_B"
| 52> ! wB97X-D3 def2-TZVP TIGHTSCF CHELPG PMODEL
| 53>
| 54> %scf
| 55> MaxIter 1000
| 56> end
| 57>
| 58> * xyz 0 1
| 59>   C                    : 2.306363             7.977900             -7.049044
| 60>   O                    : 3.680497             7.508819             -7.003539
| 61>   H                    : 3.822370             6.627895             -7.386926
| 62>   H                    : 2.324172             9.011762             -7.391483
| 63>   H                    : 1.650519             7.439648             -7.782240
| 64>   H                    : 1.747418             7.886337             -6.125104
| 65>   C                      2.722578             4.133135             -4.885620
| 66>   O                      4.120572             4.134643             -4.407210
| 67>   H                      4.093610             4.370129             -3.497614
| 68>   H                      2.658445             4.004755             -5.980850
| 69>   H                      2.083581             3.392493             -4.388767
| 70>   H                      2.263852             5.133771             -4.764851
| 71> *
| 72>
| 73>                          ****END OF INPUT****
 Total Charge           Charge          ....    0
 Multiplicity           Mult            ....    1
 Number of Electrons    NEL             ....   36
Dispersion correction           -0.001496753
FINAL SINGLE POINT ENERGY      -231.464692227355
Dispersion correction           -0.000293986
FINAL SINGLE POINT ENERGY      -115.731804455984

CARTESIAN COORDINATES (ANGSTROEM)
---------------------------------
  C      2.306363    7.977900   -7.049044
  O      3.680497    7.508819   -7.003539
  H      3.822370    6.627895   -7.386926
  H      2.324172    9.011762   -7.391483
  H      1.650519    7.439648   -7.782240
  H      1.747418    7.886337   -6.125104
  C      2.722578    4.133135   -4.885620
  O      4.120572    4.134643   -4.407210
  H      4.093610    4.370129   -3.497614
  H      2.658445    4.004755   -5.980850
  H      2.083581    3.392493   -4.388767
  H      2.263852    5.133771   -4.764851

 Multiplicity           Mult            ....    1
 Number of Electrons    NEL             ....   18
 Basis Dimension        Dim             ....  172

ORBITAL ENERGIES
----------------

  NO   OCC          E(Eh)            E(eV)
   0   2.0000     -19.230535      -523.2895
   1   2.0000     -10.322394      -280.8866
   2   2.0000      -1.123590       -30.5744
   3   2.0000      -0.798565       -21.7301
   4   2.0000      -0.600727       -16.3466
   5   2.0000      -0.537908       -14.6372
   6   2.0000      -0.518014       -14.0959
   7   2.0000      -0.437319       -11.9001
   8   2.0000      -0.378421       -10.2974
   9   0.0000       0.082801         2.2531
  10   0.0000       0.121389         3.3032
  11   0.0000       0.149430         4.0662
  12   0.0000       0.161982         4.4077
  13   0.0000       0.185306         5.0424

MULLIKEN ATOMIC CHARGES
-----------------------
   0 C :   -0.000185
   1 O :    0.000105
   2 H :   -0.000072
   3 H :   -0.000021
   4 H :   -0.000035
   5 H :   -0.000197
   6 C :   -0.185744
   7 O :   -0.478336
   8 H :    0.310261
   9 H :    0.126780
  10 H :    0.116090
  11 H :    0.111354
Sum of atomic charges:   -0.0000000

LOEWDIN ATOMIC CHARGES
----------------------
   0 C :   -0.001009
   1 O :   -0.000102
   2 H :   -0.000384
   3 H :   -0.000009
   4 H :   -0.000048
   5 H :   -0.000665
   6 C :   -0.348479
   7 O :   -0.108815
   8 H :    0.150853
   9 H :    0.112055
  10 H :    0.096890
  11 H :    0.099714

  Mayer bond orders larger than 0.1
B(  6-C ,  7-O ) :   0.9873 B(  6-C ,  9-H ) :   0.9733 B(  6-C , 10-H ) :   0.9679
B(  6-C , 11-H ) :   0.9761 B(  7-O ,  8-H ) :   0.9064

Dispersion correction           -0.000277858
FINAL SINGLE POINT ENERGY      -115.732207911126

DIPOLE MOMENT
-------------
                                X             Y             Z
Electronic contribution:      1.81823      -0.13759       0.50701
Nuclear contribution   :     -2.43772       0.29932      -0.14668
                        -----------------------------------------
Total Dipole Moment    :     -0.61949       0.16173       0.36033
                        -----------------------------------------
Magnitude (a.u.)       :      0.73469
Magnitude (Debye)      :      1.86742

Rotational constants in cm-1:     4.330412     0.765466     0.743374
Rotational constants in MHz : 129822.482887 22948.080657 22285.802863

                             ****ORCA TERMINATED NORMALLY****
TOTAL RUN TIME: 0 days 0 hours 1 minutes 32 seconds 733 msec
