                         Program Version 4.1.2  - RELEASE  -
|  1> #Run DFT-D3 single point of the dimer
|  2> ! wB97X-D3 def2-TZVP TIGHTSCF CHELPG PMODEL PAL8
|  3>
|  4> %base "12-42_DFT_AB"
|  5>
|  6> %scf
|  7> MaxIter 1000
|  8> end
|  9>
| 10> * xyz 0 1
| 11>   C                      -2.565252            4.718114             -0.085181
| 12>   O                      -2.001019            4.805665             -1.430314
| 13>   H                      -1.240345            5.338943             -1.221299
| 14>   H                      -1.779562            4.387065             0.613376
| 15>   H                      -2.893558            5.626545             0.347260
| 16>   H                      -3.394099            4.098800             0.009473
| 17>   C                      0.661193             3.421647             2.670552
| 18>   O                      2.005955             3.170968             2.578442
| 19>   H                      2.290748             2.485866             3.173461
| 20>   H                      0.335738             4.235484             1.992829
| 21>   H                      -0.008043            2.596136             2.424679
| 22>   H                      0.402929             3.729779             3.674865
| 23> *
| 24>
| 25> #Run DFT-D3 single point of the molecule with dimer basis set
| 26> $new_job
| 27> %base "12-42_DFT_A"
| 28> ! wB97X-D3 def2-TZVP TIGHTSCF CHELPG PMODEL
| 29>
| 30> %scf
| 31> MaxIter 1000
| 32> end
| 33>
| 34> * xyz 0 1
| 35>   C                      -2.565252            4.718114             -0.085181
| 36>   O                      -2.001019            4.805665             -1.430314
| 37>   H                      -1.240345            5.338943             -1.221299
| 38>   H                      -1.779562            4.387065             0.613376
| 39>   H                      -2.893558            5.626545             0.347260
| 40>   H                      -3.394099            4.098800             0.009473
| 41>   C                    : 0.661193             3.421647             2.670552
| 42>   O                    : 2.005955             3.170968             2.578442
| 43>   H                    : 2.290748             2.485866             3.173461
| 44>   H                    : 0.335738             4.235484             1.992829
| 45>   H                    : -0.008043            2.596136             2.424679
| 46>   H                    : 0.402929             3.729779             3.674865
| 47> *
| 48>
| 49> #Run DFT-D3 single point of the particle with dimer basis set
| 50> $new_job
| 51> %base "12-42_DFT_B"
| 52> ! wB97X-D3 def2-TZVP TIGHTSCF CHELPG PMODEL
| 53>
| 54> %scf
| 55> MaxIter 1000
| 56> end
| 57>
| 58> * xyz 0 1
| 59>   C                    : -2.565252            4.718114             -0.085181
| 60>   O                    : -2.001019            4.805665             -1.430314
| 61>   H                    : -1.240345            5.338943             -1.221299
| 62>   H                    : -1.779562            4.387065             0.613376
| 63>   H                    : -2.893558            5.626545             0.347260
| 64>   H                    : -3.394099            4.098800             0.009473
| 65>   C                      0.661193             3.421647             2.670552
| 66>   O                      2.005955             3.170968             2.578442
| 67>   H                      2.290748             2.485866             3.173461
| 68>   H                      0.335738             4.235484             1.992829
| 69>   H                      -0.008043            2.596136             2.424679
| 70>   H                      0.402929             3.729779             3.674865
| 71> *
| 72>
| 73>                          ****END OF INPUT****
 Total Charge           Charge          ....    0
 Multiplicity           Mult            ....    1
 Number of Electrons    NEL             ....   36
Dispersion correction           -0.001137859
FINAL SINGLE POINT ENERGY      -231.461840091553
Dispersion correction           -0.000233859
FINAL SINGLE POINT ENERGY      -115.726990874975

CARTESIAN COORDINATES (ANGSTROEM)
---------------------------------
  C     -2.565252    4.718114   -0.085181
  O     -2.001019    4.805665   -1.430314
  H     -1.240345    5.338943   -1.221299
  H     -1.779562    4.387065    0.613376
  H     -2.893558    5.626545    0.347260
  H     -3.394099    4.098800    0.009473
  C      0.661193    3.421647    2.670552
  O      2.005955    3.170968    2.578442
  H      2.290748    2.485866    3.173461
  H      0.335738    4.235484    1.992829
  H     -0.008043    2.596136    2.424679
  H      0.402929    3.729779    3.674865

 Multiplicity           Mult            ....    1
 Number of Electrons    NEL             ....   18
 Basis Dimension        Dim             ....  172

ORBITAL ENERGIES
----------------

  NO   OCC          E(Eh)            E(eV)
   0   2.0000     -19.229449      -523.2599
   1   2.0000     -10.309142      -280.5260
   2   2.0000      -1.149441       -31.2779
   3   2.0000      -0.798185       -21.7197
   4   2.0000      -0.623808       -16.9747
   5   2.0000      -0.545886       -14.8543
   6   2.0000      -0.532053       -14.4779
   7   2.0000      -0.425014       -11.5652
   8   2.0000      -0.371858       -10.1188
   9   0.0000       0.086490         2.3535
  10   0.0000       0.118869         3.2346
  11   0.0000       0.154567         4.2060
  12   0.0000       0.161966         4.4073
  13   0.0000       0.192397         5.2354

MULLIKEN ATOMIC CHARGES
-----------------------
   0 C :    0.001756
   1 O :   -0.000013
   2 H :   -0.000073
   3 H :   -0.003173
   4 H :   -0.000138
   5 H :   -0.000114
   6 C :   -0.143844
   7 O :   -0.470702
   8 H :    0.317298
   9 H :    0.116984
  10 H :    0.092906
  11 H :    0.089115
Sum of atomic charges:   -0.0000000

LOEWDIN ATOMIC CHARGES
----------------------
   0 C :   -0.000874
   1 O :   -0.000004
   2 H :   -0.000054
   3 H :   -0.003017
   4 H :   -0.000016
   5 H :   -0.000008
   6 C :   -0.418324
   7 O :   -0.038990
   8 H :    0.166804
   9 H :    0.113537
  10 H :    0.091224
  11 H :    0.089721

  Mayer bond orders larger than 0.1
B(  6-C ,  7-O ) :   1.0076 B(  6-C ,  9-H ) :   0.9712 B(  6-C , 10-H ) :   0.9736
B(  6-C , 11-H ) :   0.9807 B(  7-O ,  8-H ) :   0.8948

Dispersion correction           -0.000239162
FINAL SINGLE POINT ENERGY      -115.734424673223

DIPOLE MOMENT
-------------
                                X             Y             Z
Electronic contribution:      1.87902      -0.29328      -0.22612
Nuclear contribution   :     -2.20114      -0.05616       0.65028
                        -----------------------------------------
Total Dipole Moment    :     -0.32212      -0.34945       0.42416
                        -----------------------------------------
Magnitude (a.u.)       :      0.63702
Magnitude (Debye)      :      1.61917

Rotational constants in cm-1:     4.496812     0.859790     0.829196
Rotational constants in MHz : 134811.020242 25775.859252 24858.684189

                             ****ORCA TERMINATED NORMALLY****
TOTAL RUN TIME: 0 days 0 hours 1 minutes 14 seconds 308 msec
