                         Program Version 4.1.2  - RELEASE  -
|  1> #Run DFT-D3 single point of the dimer
|  2> ! wB97X-D3 def2-TZVP TIGHTSCF CHELPG PMODEL PAL8
|  3>
|  4> %base "13-44_DFT_AB"
|  5>
|  6> %scf
|  7> MaxIter 1000
|  8> end
|  9>
| 10> * xyz 0 1
| 11>   C                      2.238468             -1.442492            -1.376394
| 12>   O                      1.121689             -1.733540            -0.514272
| 13>   H                      1.431541             -2.499082            -0.058163
| 14>   H                      3.190386             -1.760322            -0.835746
| 15>   H                      2.025457             -1.974779            -2.354060
| 16>   H                      2.293692             -0.377440            -1.575006
| 17>   C                      2.762096             2.655684             1.530170
| 18>   O                      2.753763             4.024068             1.324614
| 19>   H                      2.514257             4.430045             2.147818
| 20>   H                      1.792702             2.145952             1.351646
| 21>   H                      3.462178             2.111263             0.819954
| 22>   H                      3.020352             2.428854             2.585999
| 23> *
| 24>
| 25> #Run DFT-D3 single point of the molecule with dimer basis set
| 26> $new_job
| 27> %base "13-44_DFT_A"
| 28> ! wB97X-D3 def2-TZVP TIGHTSCF CHELPG PMODEL
| 29>
| 30> %scf
| 31> MaxIter 1000
| 32> end
| 33>
| 34> * xyz 0 1
| 35>   C                      2.238468             -1.442492            -1.376394
| 36>   O                      1.121689             -1.733540            -0.514272
| 37>   H                      1.431541             -2.499082            -0.058163
| 38>   H                      3.190386             -1.760322            -0.835746
| 39>   H                      2.025457             -1.974779            -2.354060
| 40>   H                      2.293692             -0.377440            -1.575006
| 41>   C                    : 2.762096             2.655684             1.530170
| 42>   O                    : 2.753763             4.024068             1.324614
| 43>   H                    : 2.514257             4.430045             2.147818
| 44>   H                    : 1.792702             2.145952             1.351646
| 45>   H                    : 3.462178             2.111263             0.819954
| 46>   H                    : 3.020352             2.428854             2.585999
| 47> *
| 48>
| 49> #Run DFT-D3 single point of the particle with dimer basis set
| 50> $new_job
| 51> %base "13-44_DFT_B"
| 52> ! wB97X-D3 def2-TZVP TIGHTSCF CHELPG PMODEL
| 53>
| 54> %scf
| 55> MaxIter 1000
| 56> end
| 57>
| 58> * xyz 0 1
| 59>   C                    : 2.238468             -1.442492            -1.376394
| 60>   O                    : 1.121689             -1.733540            -0.514272
| 61>   H                    : 1.431541             -2.499082            -0.058163
| 62>   H                    : 3.190386             -1.760322            -0.835746
| 63>   H                    : 2.025457             -1.974779            -2.354060
| 64>   H                    : 2.293692             -0.377440            -1.575006
| 65>   C                      2.762096             2.655684             1.530170
| 66>   O                      2.753763             4.024068             1.324614
| 67>   H                      2.514257             4.430045             2.147818
| 68>   H                      1.792702             2.145952             1.351646
| 69>   H                      3.462178             2.111263             0.819954
| 70>   H                      3.020352             2.428854             2.585999
| 71> *
| 72>
| 73>                          ****END OF INPUT****
 Total Charge           Charge          ....    0
 Multiplicity           Mult            ....    1
 Number of Electrons    NEL             ....   36
Dispersion correction           -0.000808800
FINAL SINGLE POINT ENERGY      -231.464124670502
Dispersion correction           -0.000233270
FINAL SINGLE POINT ENERGY      -115.730661199193

CARTESIAN COORDINATES (ANGSTROEM)
---------------------------------
  C      2.238468   -1.442492   -1.376394
  O      1.121689   -1.733540   -0.514272
  H      1.431541   -2.499082   -0.058163
  H      3.190386   -1.760322   -0.835746
  H      2.025457   -1.974779   -2.354060
  H      2.293692   -0.377440   -1.575006
  C      2.762096    2.655684    1.530170
  O      2.753763    4.024068    1.324614
  H      2.514257    4.430045    2.147818
  H      1.792702    2.145952    1.351646
  H      3.462178    2.111263    0.819954
  H      3.020352    2.428854    2.585999

 Multiplicity           Mult            ....    1
 Number of Electrons    NEL             ....   18
 Basis Dimension        Dim             ....  172

ORBITAL ENERGIES
----------------

  NO   OCC          E(Eh)            E(eV)
   0   2.0000     -19.232343      -523.3387
   1   2.0000     -10.319106      -280.7971
   2   2.0000      -1.150803       -31.3149
   3   2.0000      -0.790400       -21.5079
   4   2.0000      -0.620718       -16.8906
   5   2.0000      -0.541001       -14.7214
   6   2.0000      -0.528861       -14.3910
   7   2.0000      -0.433084       -11.7848
   8   2.0000      -0.370812       -10.0903
   9   0.0000       0.084394         2.2965
  10   0.0000       0.114193         3.1073
  11   0.0000       0.146405         3.9839
  12   0.0000       0.166005         4.5172
  13   0.0000       0.188379         5.1261

MULLIKEN ATOMIC CHARGES
-----------------------
   0 C :    0.000104
   1 O :   -0.000004
   2 H :   -0.000001
   3 H :   -0.000040
   4 H :   -0.000003
   5 H :   -0.000181
   6 C :   -0.164675
   7 O :   -0.455927
   8 H :    0.317547
   9 H :    0.095141
  10 H :    0.112769
  11 H :    0.095270
Sum of atomic charges:    0.0000000

LOEWDIN ATOMIC CHARGES
----------------------
   0 C :   -0.000147
   1 O :   -0.000020
   2 H :   -0.000003
   3 H :   -0.000017
   4 H :   -0.000001
   5 H :   -0.000127
   6 C :   -0.420093
   7 O :   -0.047973
   8 H :    0.167019
   9 H :    0.093024
  10 H :    0.112360
  11 H :    0.095976

  Mayer bond orders larger than 0.1
B(  6-C ,  7-O ) :   1.0132 B(  6-C ,  9-H ) :   0.9685 B(  6-C , 10-H ) :   0.9731
B(  6-C , 11-H ) :   0.9871 B(  7-O ,  8-H ) :   0.8989

Dispersion correction           -0.000244338
FINAL SINGLE POINT ENERGY      -115.732962302597

DIPOLE MOMENT
-------------
                                X             Y             Z
Electronic contribution:      0.04994       1.91246      -0.41280
Nuclear contribution   :     -0.19665      -2.14951       1.02686
                        -----------------------------------------
Total Dipole Moment    :     -0.14671      -0.23705       0.61406
                        -----------------------------------------
Magnitude (a.u.)       :      0.67438
Magnitude (Debye)      :      1.71414

Rotational constants in cm-1:     4.251019     0.854402     0.814611
Rotational constants in MHz : 127442.342040 25614.330332 24421.438224

                             ****ORCA TERMINATED NORMALLY****
TOTAL RUN TIME: 0 days 0 hours 1 minutes 8 seconds 581 msec
