                         Program Version 4.1.2  - RELEASE  -
|  1> #Run DFT-D3 single point of the dimer
|  2> ! wB97X-D3 def2-TZVP TIGHTSCF CHELPG PMODEL PAL8
|  3>
|  4> %base "19-179_DFT_AB"
|  5>
|  6> %scf
|  7> MaxIter 1000
|  8> end
|  9>
| 10> * xyz 0 1
| 11>   C                      3.089893             11.110754            -0.114609
| 12>   O                      3.850398             10.493262            -1.074291
| 13>   H                      3.417378             9.665737             -1.160041
| 14>   H                      3.676850             12.031888            0.293145
| 15>   H                      2.147422             11.452563            -0.475074
| 16>   H                      2.886578             10.334264            0.731127
| 17>   C                      3.450819             6.673279             -1.723132
| 18>   O                      4.383026             7.705525             -1.912753
| 19>   H                      5.261560             7.404493             -1.709815
| 20>   H                      3.639488             5.964944             -0.949126
| 21>   H                      2.464917             7.050423             -1.501497
| 22>   H                      3.294769             6.043042             -2.592645
| 23> *
| 24>
| 25> #Run DFT-D3 single point of the molecule with dimer basis set
| 26> $new_job
| 27> %base "19-179_DFT_A"
| 28> ! wB97X-D3 def2-TZVP TIGHTSCF CHELPG PMODEL
| 29>
| 30> %scf
| 31> MaxIter 1000
| 32> end
| 33>
| 34> * xyz 0 1
| 35>   C                      3.089893             11.110754            -0.114609
| 36>   O                      3.850398             10.493262            -1.074291
| 37>   H                      3.417378             9.665737             -1.160041
| 38>   H                      3.676850             12.031888            0.293145
| 39>   H                      2.147422             11.452563            -0.475074
| 40>   H                      2.886578             10.334264            0.731127
| 41>   C                    : 3.450819             6.673279             -1.723132
| 42>   O                    : 4.383026             7.705525             -1.912753
| 43>   H                    : 5.261560             7.404493             -1.709815
| 44>   H                    : 3.639488             5.964944             -0.949126
| 45>   H                    : 2.464917             7.050423             -1.501497
| 46>   H                    : 3.294769             6.043042             -2.592645
| 47> *
| 48>
| 49> #Run DFT-D3 single point of the particle with dimer basis set
| 50> $new_job
| 51> %base "19-179_DFT_B"
| 52> ! wB97X-D3 def2-TZVP TIGHTSCF CHELPG PMODEL
| 53>
| 54> %scf
| 55> MaxIter 1000
| 56> end
| 57>
| 58> * xyz 0 1
| 59>   C                    : 3.089893             11.110754            -0.114609
| 60>   O                    : 3.850398             10.493262            -1.074291
| 61>   H                    : 3.417378             9.665737             -1.160041
| 62>   H                    : 3.676850             12.031888            0.293145
| 63>   H                    : 2.147422             11.452563            -0.475074
| 64>   H                    : 2.886578             10.334264            0.731127
| 65>   C                      3.450819             6.673279             -1.723132
| 66>   O                      4.383026             7.705525             -1.912753
| 67>   H                      5.261560             7.404493             -1.709815
| 68>   H                      3.639488             5.964944             -0.949126
| 69>   H                      2.464917             7.050423             -1.501497
| 70>   H                      3.294769             6.043042             -2.592645
| 71> *
| 72>
| 73>                          ****END OF INPUT****
 Total Charge           Charge          ....    0
 Multiplicity           Mult            ....    1
 Number of Electrons    NEL             ....   36
Dispersion correction           -0.001515316
FINAL SINGLE POINT ENERGY      -231.463327697555
Dispersion correction           -0.000212293
FINAL SINGLE POINT ENERGY      -115.726960385478

CARTESIAN COORDINATES (ANGSTROEM)
---------------------------------
  C      3.089893   11.110754   -0.114609
  O      3.850398   10.493262   -1.074291
  H      3.417378    9.665737   -1.160041
  H      3.676850   12.031888    0.293145
  H      2.147422   11.452563   -0.475074
  H      2.886578   10.334264    0.731127
  C      3.450819    6.673279   -1.723132
  O      4.383026    7.705525   -1.912753
  H      5.261560    7.404493   -1.709815
  H      3.639488    5.964944   -0.949126
  H      2.464917    7.050423   -1.501497
  H      3.294769    6.043042   -2.592645

 Multiplicity           Mult            ....    1
 Number of Electrons    NEL             ....   18
 Basis Dimension        Dim             ....  172

ORBITAL ENERGIES
----------------

  NO   OCC          E(Eh)            E(eV)
   0   2.0000     -19.233476      -523.3695
   1   2.0000     -10.306428      -280.4522
   2   2.0000      -1.141186       -31.0532
   3   2.0000      -0.804924       -21.9031
   4   2.0000      -0.622554       -16.9406
   5   2.0000      -0.536188       -14.5904
   6   2.0000      -0.531074       -14.4513
   7   2.0000      -0.435524       -11.8512
   8   2.0000      -0.375012       -10.2046
   9   0.0000       0.097513         2.6535
  10   0.0000       0.122443         3.3318
  11   0.0000       0.150500         4.0953
  12   0.0000       0.187154         5.0927
  13   0.0000       0.205262         5.5855

MULLIKEN ATOMIC CHARGES
-----------------------
   0 C :    0.000042
   1 O :    0.000972
   2 H :   -0.007638
   3 H :    0.000006
   4 H :   -0.000053
   5 H :   -0.000128
   6 C :   -0.168308
   7 O :   -0.465526
   8 H :    0.315333
   9 H :    0.106941
  10 H :    0.117177
  11 H :    0.101180
Sum of atomic charges:   -0.0000000

LOEWDIN ATOMIC CHARGES
----------------------
   0 C :   -0.000756
   1 O :   -0.006709
   2 H :   -0.016833
   3 H :   -0.000008
   4 H :   -0.000010
   5 H :   -0.000095
   6 C :   -0.391933
   7 O :   -0.038881
   8 H :    0.164870
   9 H :    0.090865
  10 H :    0.105280
  11 H :    0.094210

  Mayer bond orders larger than 0.1
B(  6-C ,  7-O ) :   1.0051 B(  6-C ,  9-H ) :   0.9764 B(  6-C , 10-H ) :   0.9789
B(  6-C , 11-H ) :   0.9753 B(  7-O ,  8-H ) :   0.8970

Dispersion correction           -0.000259978
FINAL SINGLE POINT ENERGY      -115.733518749452

DIPOLE MOMENT
-------------
                                X             Y             Z
Electronic contribution:      1.23954       1.49673      -0.24310
Nuclear contribution   :     -1.03702      -2.11525       0.46820
                        -----------------------------------------
Total Dipole Moment    :      0.20251      -0.61852       0.22510
                        -----------------------------------------
Magnitude (a.u.)       :      0.68865
Magnitude (Debye)      :      1.75042

Rotational constants in cm-1:     4.673395     0.826306     0.797776
Rotational constants in MHz : 140104.860638 24772.024650 23916.714014

                             ****ORCA TERMINATED NORMALLY****
TOTAL RUN TIME: 0 days 0 hours 1 minutes 33 seconds 473 msec
