                         Program Version 4.1.2  - RELEASE  -
|  1> #Run DFT-D3 single point of the dimer
|  2> ! wB97X-D3 def2-TZVP TIGHTSCF CHELPG PMODEL PAL8
|  3>
|  4> %base "9-44_DFT_AB"
|  5>
|  6> %scf
|  7> MaxIter 1000
|  8> end
|  9>
| 10> * xyz 0 1
| 11>   C                      -2.321207            -5.271564            -0.117392
| 12>   O                      -1.699948            -4.236620            -0.812064
| 13>   H                      -1.067507            -3.804357            -0.260356
| 14>   H                      -3.067091            -5.682834            -0.736439
| 15>   H                      -1.643910            -6.077927            0.202816
| 16>   H                      -2.851049            -4.806668            0.717258
| 17>   C                      -0.644259            -10.288811           -0.613577
| 18>   O                      0.403820             -9.855791            0.193845
| 19>   H                      0.055486             -9.356534            0.947444
| 20>   H                      -1.065645            -11.179136           -0.133979
| 21>   H                      -1.357217            -9.505382            -0.921732
| 22>   H                      -0.289226            -10.785823           -1.502527
| 23> *
| 24>
| 25> #Run DFT-D3 single point of the molecule with dimer basis set
| 26> $new_job
| 27> %base "9-44_DFT_A"
| 28> ! wB97X-D3 def2-TZVP TIGHTSCF CHELPG PMODEL
| 29>
| 30> %scf
| 31> MaxIter 1000
| 32> end
| 33>
| 34> * xyz 0 1
| 35>   C                      -2.321207            -5.271564            -0.117392
| 36>   O                      -1.699948            -4.236620            -0.812064
| 37>   H                      -1.067507            -3.804357            -0.260356
| 38>   H                      -3.067091            -5.682834            -0.736439
| 39>   H                      -1.643910            -6.077927            0.202816
| 40>   H                      -2.851049            -4.806668            0.717258
| 41>   C                    : -0.644259            -10.288811           -0.613577
| 42>   O                    : 0.403820             -9.855791            0.193845
| 43>   H                    : 0.055486             -9.356534            0.947444
| 44>   H                    : -1.065645            -11.179136           -0.133979
| 45>   H                    : -1.357217            -9.505382            -0.921732
| 46>   H                    : -0.289226            -10.785823           -1.502527
| 47> *
| 48>
| 49> #Run DFT-D3 single point of the particle with dimer basis set
| 50> $new_job
| 51> %base "9-44_DFT_B"
| 52> ! wB97X-D3 def2-TZVP TIGHTSCF CHELPG PMODEL
| 53>
| 54> %scf
| 55> MaxIter 1000
| 56> end
| 57>
| 58> * xyz 0 1
| 59>   C                    : -2.321207            -5.271564            -0.117392
| 60>   O                    : -1.699948            -4.236620            -0.812064
| 61>   H                    : -1.067507            -3.804357            -0.260356
| 62>   H                    : -3.067091            -5.682834            -0.736439
| 63>   H                    : -1.643910            -6.077927            0.202816
| 64>   H                    : -2.851049            -4.806668            0.717258
| 65>   C                      -0.644259            -10.288811           -0.613577
| 66>   O                      0.403820             -9.855791            0.193845
| 67>   H                      0.055486             -9.356534            0.947444
| 68>   H                      -1.065645            -11.179136           -0.133979
| 69>   H                      -1.357217            -9.505382            -0.921732
| 70>   H                      -0.289226            -10.785823           -1.502527
| 71> *
| 72>
| 73>                          ****END OF INPUT****
 Total Charge           Charge          ....    0
 Multiplicity           Mult            ....    1
 Number of Electrons    NEL             ....   36
Dispersion correction           -0.000759865
FINAL SINGLE POINT ENERGY      -231.465365409691
Dispersion correction           -0.000224301
FINAL SINGLE POINT ENERGY      -115.734475370097

CARTESIAN COORDINATES (ANGSTROEM)
---------------------------------
  C     -2.321207   -5.271564   -0.117392
  O     -1.699948   -4.236620   -0.812064
  H     -1.067507   -3.804357   -0.260356
  H     -3.067091   -5.682834   -0.736439
  H     -1.643910   -6.077927    0.202816
  H     -2.851049   -4.806668    0.717258
  C     -0.644259  -10.288811   -0.613577
  O      0.403820   -9.855791    0.193845
  H      0.055486   -9.356534    0.947444
  H     -1.065645  -11.179136   -0.133979
  H     -1.357217   -9.505382   -0.921732
  H     -0.289226  -10.785823   -1.502527

 Multiplicity           Mult            ....    1
 Number of Electrons    NEL             ....   18
 Basis Dimension        Dim             ....  172

ORBITAL ENERGIES
----------------

  NO   OCC          E(Eh)            E(eV)
   0   2.0000     -19.229523      -523.2619
   1   2.0000     -10.309828      -280.5447
   2   2.0000      -1.139784       -31.0151
   3   2.0000      -0.796881       -21.6842
   4   2.0000      -0.609256       -16.5787
   5   2.0000      -0.552399       -15.0315
   6   2.0000      -0.529420       -14.4063
   7   2.0000      -0.424205       -11.5432
   8   2.0000      -0.370617       -10.0850
   9   0.0000       0.079834         2.1724
  10   0.0000       0.115629         3.1464
  11   0.0000       0.149827         4.0770
  12   0.0000       0.165043         4.4910
  13   0.0000       0.189434         5.1548

MULLIKEN ATOMIC CHARGES
-----------------------
   0 C :   -0.000045
   1 O :    0.000002
   2 H :   -0.000003
   3 H :    0.000014
   4 H :   -0.000426
   5 H :   -0.000003
   6 C :   -0.161654
   7 O :   -0.475842
   8 H :    0.318918
   9 H :    0.099645
  10 H :    0.105457
  11 H :    0.113936
Sum of atomic charges:    0.0000000

LOEWDIN ATOMIC CHARGES
----------------------
   0 C :   -0.000107
   1 O :   -0.000002
   2 H :   -0.000000
   3 H :   -0.000028
   4 H :   -0.000216
   5 H :   -0.000001
   6 C :   -0.409079
   7 O :   -0.067309
   8 H :    0.175771
   9 H :    0.097750
  10 H :    0.097551
  11 H :    0.105669

  Mayer bond orders larger than 0.1
B(  6-C ,  7-O ) :   1.0060 B(  6-C ,  9-H ) :   0.9867 B(  6-C , 10-H ) :   0.9708
B(  6-C , 11-H ) :   0.9717 B(  7-O ,  8-H ) :   0.8942

Dispersion correction           -0.000240899
FINAL SINGLE POINT ENERGY      -115.730814084412

DIPOLE MOMENT
-------------
                                X             Y             Z
Electronic contribution:      1.41138       0.66763       0.96071
Nuclear contribution   :     -2.02132      -0.53903      -0.81556
                        -----------------------------------------
Total Dipole Moment    :     -0.60994       0.12860       0.14515
                        -----------------------------------------
Magnitude (a.u.)       :      0.64003
Magnitude (Debye)      :      1.62683

Rotational constants in cm-1:     4.365911     0.845613     0.819168
Rotational constants in MHz : 130886.710380 25350.846370 24558.051242

                             ****ORCA TERMINATED NORMALLY****
TOTAL RUN TIME: 0 days 0 hours 0 minutes 39 seconds 834 msec
