                         Program Version 4.1.2  - RELEASE  -
|  1> #Run DFT-D3 single point of the dimer
|  2> ! wB97X-D3 def2-TZVP TIGHTSCF CHELPG PMODEL PAL8
|  3>
|  4> %base "11-89_DFT_AB"
|  5>
|  6> %scf
|  7> MaxIter 1000
|  8> end
|  9>
| 10> * xyz 0 1
| 11>   C                      10.085171            9.090846             -6.497490
| 12>   O                      9.870105             7.743981             -6.738684
| 13>   H                      9.596428             7.627402             -7.668537
| 14>   H                      10.240051            9.593562             -7.467117
| 15>   H                      9.364494             9.634166             -5.908815
| 16>   H                      11.032180            9.300689             -5.983905
| 17>   C                      10.825239            10.312332            -10.324682
| 18>   O                      10.087337            9.529532             -11.215426
| 19>   H                      10.091996            8.647479             -10.790467
| 20>   H                      10.376625            10.657462            -9.370134
| 21>   H                      11.667905            9.771630             -9.897731
| 22>   H                      11.170152            11.263542            -10.799498
| 23> *
| 24>
| 25> #Run DFT-D3 single point of the molecule with dimer basis set
| 26> $new_job
| 27> %base "11-89_DFT_A"
| 28> ! wB97X-D3 def2-TZVP TIGHTSCF CHELPG PMODEL
| 29>
| 30> %scf
| 31> MaxIter 1000
| 32> end
| 33>
| 34> * xyz 0 1
| 35>   C                      10.085171            9.090846             -6.497490
| 36>   O                      9.870105             7.743981             -6.738684
| 37>   H                      9.596428             7.627402             -7.668537
| 38>   H                      10.240051            9.593562             -7.467117
| 39>   H                      9.364494             9.634166             -5.908815
| 40>   H                      11.032180            9.300689             -5.983905
| 41>   C                    : 10.825239            10.312332            -10.324682
| 42>   O                    : 10.087337            9.529532             -11.215426
| 43>   H                    : 10.091996            8.647479             -10.790467
| 44>   H                    : 10.376625            10.657462            -9.370134
| 45>   H                    : 11.667905            9.771630             -9.897731
| 46>   H                    : 11.170152            11.263542            -10.799498
| 47> *
| 48>
| 49> #Run DFT-D3 single point of the particle with dimer basis set
| 50> $new_job
| 51> %base "11-89_DFT_B"
| 52> ! wB97X-D3 def2-TZVP TIGHTSCF CHELPG PMODEL
| 53>
| 54> %scf
| 55> MaxIter 1000
| 56> end
| 57>
| 58> * xyz 0 1
| 59>   C                    : 10.085171            9.090846             -6.497490
| 60>   O                    : 9.870105             7.743981             -6.738684
| 61>   H                    : 9.596428             7.627402             -7.668537
| 62>   H                    : 10.240051            9.593562             -7.467117
| 63>   H                    : 9.364494             9.634166             -5.908815
| 64>   H                    : 11.032180            9.300689             -5.983905
| 65>   C                      10.825239            10.312332            -10.324682
| 66>   O                      10.087337            9.529532             -11.215426
| 67>   H                      10.091996            8.647479             -10.790467
| 68>   H                      10.376625            10.657462            -9.370134
| 69>   H                      11.667905            9.771630             -9.897731
| 70>   H                      11.170152            11.263542            -10.799498
| 71> *
| 72>
| 73>                          ****END OF INPUT****
 Total Charge           Charge          ....    0
 Multiplicity           Mult            ....    1
 Number of Electrons    NEL             ....   36
Dispersion correction           -0.001594526
FINAL SINGLE POINT ENERGY      -231.460364642059
Dispersion correction           -0.000246814
FINAL SINGLE POINT ENERGY      -115.731005696973

CARTESIAN COORDINATES (ANGSTROEM)
---------------------------------
  C     10.085171    9.090846   -6.497490
  O      9.870105    7.743981   -6.738684
  H      9.596428    7.627402   -7.668537
  H     10.240051    9.593562   -7.467117
  H      9.364494    9.634166   -5.908815
  H     11.032180    9.300689   -5.983905
  C     10.825239   10.312332  -10.324682
  O     10.087337    9.529532  -11.215426
  H     10.091996    8.647479  -10.790467
  H     10.376625   10.657462   -9.370134
  H     11.667905    9.771630   -9.897731
  H     11.170152   11.263542  -10.799498

 Multiplicity           Mult            ....    1
 Number of Electrons    NEL             ....   18
 Basis Dimension        Dim             ....  172

ORBITAL ENERGIES
----------------

  NO   OCC          E(Eh)            E(eV)
   0   2.0000     -19.240398      -523.5578
   1   2.0000     -10.315128      -280.6889
   2   2.0000      -1.145154       -31.1612
   3   2.0000      -0.791803       -21.5461
   4   2.0000      -0.621088       -16.9007
   5   2.0000      -0.535592       -14.5742
   6   2.0000      -0.523226       -14.2377
   7   2.0000      -0.443786       -12.0760
   8   2.0000      -0.371139       -10.0992
   9   0.0000       0.074657         2.0315
  10   0.0000       0.116857         3.1798
  11   0.0000       0.148590         4.0433
  12   0.0000       0.174797         4.7565
  13   0.0000       0.184668         5.0251

MULLIKEN ATOMIC CHARGES
-----------------------
   0 C :    0.001348
   1 O :    0.000000
   2 H :   -0.000254
   3 H :   -0.003052
   4 H :   -0.000171
   5 H :    0.000007
   6 C :   -0.175216
   7 O :   -0.447851
   8 H :    0.318140
   9 H :    0.092848
  10 H :    0.097889
  11 H :    0.116311
Sum of atomic charges:   -0.0000000

LOEWDIN ATOMIC CHARGES
----------------------
   0 C :   -0.002351
   1 O :   -0.000027
   2 H :   -0.000374
   3 H :   -0.008106
   4 H :   -0.000032
   5 H :   -0.000033
   6 C :   -0.416692
   7 O :   -0.062228
   8 H :    0.187249
   9 H :    0.097246
  10 H :    0.093497
  11 H :    0.111851

  Mayer bond orders larger than 0.1
B(  6-C ,  7-O ) :   1.0222 B(  6-C ,  9-H ) :   0.9624 B(  6-C , 10-H ) :   0.9842
B(  6-C , 11-H ) :   0.9754 B(  7-O ,  8-H ) :   0.8967

Dispersion correction           -0.000249615
FINAL SINGLE POINT ENERGY      -115.729831174045

DIPOLE MOMENT
-------------
                                X             Y             Z
Electronic contribution:     -1.09818      -0.98804      -1.43320
Nuclear contribution   :      1.38189       0.71575       2.02384
                        -----------------------------------------
Total Dipole Moment    :      0.28371      -0.27229       0.59065
                        -----------------------------------------
Magnitude (a.u.)       :      0.70958
Magnitude (Debye)      :      1.80360

Rotational constants in cm-1:     4.352586     0.842955     0.795885
Rotational constants in MHz : 130487.250811 25271.140665 23860.026190

                             ****ORCA TERMINATED NORMALLY****
TOTAL RUN TIME: 0 days 0 hours 1 minutes 12 seconds 349 msec
