                         Program Version 4.1.2  - RELEASE  -
|  1> #Run DFT-D3 single point of the dimer
|  2> ! wB97X-D3 def2-TZVP TIGHTSCF CHELPG PMODEL PAL8
|  3>
|  4> %base "21-23_DFT_AB"
|  5>
|  6> %scf
|  7> MaxIter 1000
|  8> end
|  9>
| 10> * xyz 0 1
| 11>   C                      -3.092686            -1.451874            10.711364
| 12>   O                      -2.273163            -2.540808            10.545648
| 13>   H                      -2.684214            -3.268882            11.063944
| 14>   H                      -4.148534            -1.721086            10.677316
| 15>   H                      -2.829864            -0.967831            11.633750
| 16>   H                      -2.944506            -0.806253            9.884226
| 17>   C                      -6.767604            -2.303085            9.470767
| 18>   O                      -7.417140            -3.417160            10.135505
| 19>   H                      -7.310689            -3.242921            11.064672
| 20>   H                      -5.714070            -2.228165            9.764882
| 21>   H                      -6.698954            -2.457698            8.384943
| 22>   H                      -7.079861            -1.301568            9.764304
| 23> *
| 24>
| 25> #Run DFT-D3 single point of the molecule with dimer basis set
| 26> $new_job
| 27> %base "21-23_DFT_A"
| 28> ! wB97X-D3 def2-TZVP TIGHTSCF CHELPG PMODEL
| 29>
| 30> %scf
| 31> MaxIter 1000
| 32> end
| 33>
| 34> * xyz 0 1
| 35>   C                      -3.092686            -1.451874            10.711364
| 36>   O                      -2.273163            -2.540808            10.545648
| 37>   H                      -2.684214            -3.268882            11.063944
| 38>   H                      -4.148534            -1.721086            10.677316
| 39>   H                      -2.829864            -0.967831            11.633750
| 40>   H                      -2.944506            -0.806253            9.884226
| 41>   C                    : -6.767604            -2.303085            9.470767
| 42>   O                    : -7.417140            -3.417160            10.135505
| 43>   H                    : -7.310689            -3.242921            11.064672
| 44>   H                    : -5.714070            -2.228165            9.764882
| 45>   H                    : -6.698954            -2.457698            8.384943
| 46>   H                    : -7.079861            -1.301568            9.764304
| 47> *
| 48>
| 49> #Run DFT-D3 single point of the particle with dimer basis set
| 50> $new_job
| 51> %base "21-23_DFT_B"
| 52> ! wB97X-D3 def2-TZVP TIGHTSCF CHELPG PMODEL
| 53>
| 54> %scf
| 55> MaxIter 1000
| 56> end
| 57>
| 58> * xyz 0 1
| 59>   C                    : -3.092686            -1.451874            10.711364
| 60>   O                    : -2.273163            -2.540808            10.545648
| 61>   H                    : -2.684214            -3.268882            11.063944
| 62>   H                    : -4.148534            -1.721086            10.677316
| 63>   H                    : -2.829864            -0.967831            11.633750
| 64>   H                    : -2.944506            -0.806253            9.884226
| 65>   C                      -6.767604            -2.303085            9.470767
| 66>   O                      -7.417140            -3.417160            10.135505
| 67>   H                      -7.310689            -3.242921            11.064672
| 68>   H                      -5.714070            -2.228165            9.764882
| 69>   H                      -6.698954            -2.457698            8.384943
| 70>   H                      -7.079861            -1.301568            9.764304
| 71> *
| 72>
| 73>                          ****END OF INPUT****
 Total Charge           Charge          ....    0
 Multiplicity           Mult            ....    1
 Number of Electrons    NEL             ....   36
Dispersion correction           -0.001462630
FINAL SINGLE POINT ENERGY      -231.462193524586
Dispersion correction           -0.000205283
FINAL SINGLE POINT ENERGY      -115.732865571403

CARTESIAN COORDINATES (ANGSTROEM)
---------------------------------
  C     -3.092686   -1.451874   10.711364
  O     -2.273163   -2.540808   10.545648
  H     -2.684214   -3.268882   11.063944
  H     -4.148534   -1.721086   10.677316
  H     -2.829864   -0.967831   11.633750
  H     -2.944506   -0.806253    9.884226
  C     -6.767604   -2.303085    9.470767
  O     -7.417140   -3.417160   10.135505
  H     -7.310689   -3.242921   11.064672
  H     -5.714070   -2.228165    9.764882
  H     -6.698954   -2.457698    8.384943
  H     -7.079861   -1.301568    9.764304

 Multiplicity           Mult            ....    1
 Number of Electrons    NEL             ....   18
 Basis Dimension        Dim             ....  172

ORBITAL ENERGIES
----------------

  NO   OCC          E(Eh)            E(eV)
   0   2.0000     -19.233809      -523.3785
   1   2.0000     -10.317479      -280.7529
   2   2.0000      -1.130619       -30.7657
   3   2.0000      -0.799400       -21.7528
   4   2.0000      -0.611946       -16.6519
   5   2.0000      -0.532552       -14.4915
   6   2.0000      -0.518184       -14.1005
   7   2.0000      -0.447141       -12.1673
   8   2.0000      -0.373409       -10.1610
   9   0.0000       0.082278         2.2389
  10   0.0000       0.120964         3.2916
  11   0.0000       0.147217         4.0060
  12   0.0000       0.169455         4.6111
  13   0.0000       0.191800         5.2191

MULLIKEN ATOMIC CHARGES
-----------------------
   0 C :   -0.005167
   1 O :   -0.000028
   2 H :    0.000024
   3 H :    0.009135
   4 H :    0.000206
   5 H :    0.000085
   6 C :   -0.168110
   7 O :   -0.468651
   8 H :    0.311984
   9 H :    0.084862
  10 H :    0.129589
  11 H :    0.106072
Sum of atomic charges:    0.0000000

LOEWDIN ATOMIC CHARGES
----------------------
   0 C :   -0.006784
   1 O :   -0.000012
   2 H :   -0.000066
   3 H :   -0.014425
   4 H :   -0.000063
   5 H :   -0.000287
   6 C :   -0.363531
   7 O :   -0.092557
   8 H :    0.162334
   9 H :    0.106581
  10 H :    0.112824
  11 H :    0.095986

  Mayer bond orders larger than 0.1
B(  6-C ,  7-O ) :   0.9961 B(  6-C ,  9-H ) :   0.9831 B(  6-C , 10-H ) :   0.9705
B(  6-C , 11-H ) :   0.9752 B(  7-O ,  8-H ) :   0.9039

Dispersion correction           -0.000258254
FINAL SINGLE POINT ENERGY      -115.730283160886

DIPOLE MOMENT
-------------
                                X             Y             Z
Electronic contribution:     -1.06910      -1.50451       0.66474
Nuclear contribution   :      1.43099       2.06451      -0.34252
                        -----------------------------------------
Total Dipole Moment    :      0.36189       0.56001       0.32222
                        -----------------------------------------
Magnitude (a.u.)       :      0.74054
Magnitude (Debye)      :      1.88230

Rotational constants in cm-1:     4.393070     0.797007     0.757870
Rotational constants in MHz : 131700.929121 23893.678665 22720.380699

                             ****ORCA TERMINATED NORMALLY****
TOTAL RUN TIME: 0 days 0 hours 0 minutes 59 seconds 707 msec
