                         Program Version 4.1.2  - RELEASE  -
|  1> #Run DFT-D3 single point of the dimer
|  2> ! wB97X-D3 def2-TZVP TIGHTSCF CHELPG PMODEL PAL8
|  3>
|  4> %base "1-71_DFT_AB"
|  5>
|  6> %scf
|  7> MaxIter 1000
|  8> end
|  9>
| 10> * xyz 0 1
| 11>   C                      5.651281             -6.607152            -7.131808
| 12>   O                      4.421029             -6.172387            -6.635053
| 13>   H                      3.846128             -6.941923            -6.443546
| 14>   H                      6.331579             -5.736460            -7.229165
| 15>   H                      6.041744             -7.382705            -6.519006
| 16>   H                      5.543523             -7.079936            -8.062609
| 17>   C                      6.434312             -7.306322            -1.481719
| 18>   O                      7.211626             -6.513637            -0.556180
| 19>   H                      6.580815             -6.001494            -0.012692
| 20>   H                      6.963843             -8.158007            -1.860671
| 21>   H                      5.610221             -7.785308            -0.963448
| 22>   H                      6.142163             -6.787449            -2.406088
| 23> *
| 24>
| 25> #Run DFT-D3 single point of the molecule with dimer basis set
| 26> $new_job
| 27> %base "1-71_DFT_A"
| 28> ! wB97X-D3 def2-TZVP TIGHTSCF CHELPG PMODEL
| 29>
| 30> %scf
| 31> MaxIter 1000
| 32> end
| 33>
| 34> * xyz 0 1
| 35>   C                      5.651281             -6.607152            -7.131808
| 36>   O                      4.421029             -6.172387            -6.635053
| 37>   H                      3.846128             -6.941923            -6.443546
| 38>   H                      6.331579             -5.736460            -7.229165
| 39>   H                      6.041744             -7.382705            -6.519006
| 40>   H                      5.543523             -7.079936            -8.062609
| 41>   C                    : 6.434312             -7.306322            -1.481719
| 42>   O                    : 7.211626             -6.513637            -0.556180
| 43>   H                    : 6.580815             -6.001494            -0.012692
| 44>   H                    : 6.963843             -8.158007            -1.860671
| 45>   H                    : 5.610221             -7.785308            -0.963448
| 46>   H                    : 6.142163             -6.787449            -2.406088
| 47> *
| 48>
| 49> #Run DFT-D3 single point of the particle with dimer basis set
| 50> $new_job
| 51> %base "1-71_DFT_B"
| 52> ! wB97X-D3 def2-TZVP TIGHTSCF CHELPG PMODEL
| 53>
| 54> %scf
| 55> MaxIter 1000
| 56> end
| 57>
| 58> * xyz 0 1
| 59>   C                    : 5.651281             -6.607152            -7.131808
| 60>   O                    : 4.421029             -6.172387            -6.635053
| 61>   H                    : 3.846128             -6.941923            -6.443546
| 62>   H                    : 6.331579             -5.736460            -7.229165
| 63>   H                    : 6.041744             -7.382705            -6.519006
| 64>   H                    : 5.543523             -7.079936            -8.062609
| 65>   C                      6.434312             -7.306322            -1.481719
| 66>   O                      7.211626             -6.513637            -0.556180
| 67>   H                      6.580815             -6.001494            -0.012692
| 68>   H                      6.963843             -8.158007            -1.860671
| 69>   H                      5.610221             -7.785308            -0.963448
| 70>   H                      6.142163             -6.787449            -2.406088
| 71> *
| 72>
| 73>                          ****END OF INPUT****
 Total Charge           Charge          ....    0
 Multiplicity           Mult            ....    1
 Number of Electrons    NEL             ....   36
Dispersion correction           -0.000645313
FINAL SINGLE POINT ENERGY      -231.464468265697
Dispersion correction           -0.000217693
FINAL SINGLE POINT ENERGY      -115.732499714935

CARTESIAN COORDINATES (ANGSTROEM)
---------------------------------
  C      5.651281   -6.607152   -7.131808
  O      4.421029   -6.172387   -6.635053
  H      3.846128   -6.941923   -6.443546
  H      6.331579   -5.736460   -7.229165
  H      6.041744   -7.382705   -6.519006
  H      5.543523   -7.079936   -8.062609
  C      6.434312   -7.306322   -1.481719
  O      7.211626   -6.513637   -0.556180
  H      6.580815   -6.001494   -0.012692
  H      6.963843   -8.158007   -1.860671
  H      5.610221   -7.785308   -0.963448
  H      6.142163   -6.787449   -2.406088

 Multiplicity           Mult            ....    1
 Number of Electrons    NEL             ....   18
 Basis Dimension        Dim             ....  172

ORBITAL ENERGIES
----------------

  NO   OCC          E(Eh)            E(eV)
   0   2.0000     -19.233402      -523.3675
   1   2.0000     -10.312308      -280.6122
   2   2.0000      -1.123923       -30.5835
   3   2.0000      -0.799688       -21.7606
   4   2.0000      -0.600589       -16.3429
   5   2.0000      -0.543979       -14.8024
   6   2.0000      -0.524862       -14.2822
   7   2.0000      -0.429142       -11.6775
   8   2.0000      -0.377728       -10.2785
   9   0.0000       0.083000         2.2585
  10   0.0000       0.115086         3.1317
  11   0.0000       0.145494         3.9591
  12   0.0000       0.164116         4.4658
  13   0.0000       0.189553         5.1580

MULLIKEN ATOMIC CHARGES
-----------------------
   0 C :   -0.000001
   1 O :   -0.000001
   2 H :   -0.000009
   3 H :    0.000001
   4 H :   -0.000055
   5 H :   -0.000004
   6 C :   -0.172758
   7 O :   -0.477328
   8 H :    0.318026
   9 H :    0.119795
  10 H :    0.106720
  11 H :    0.105614
Sum of atomic charges:   -0.0000000

LOEWDIN ATOMIC CHARGES
----------------------
   0 C :   -0.000063
   1 O :   -0.000005
   2 H :   -0.000008
   3 H :   -0.000002
   4 H :   -0.000040
   5 H :   -0.000001
   6 C :   -0.369639
   7 O :   -0.105975
   8 H :    0.178091
   9 H :    0.103128
  10 H :    0.096723
  11 H :    0.097792

  Mayer bond orders larger than 0.1
B(  6-C ,  7-O ) :   1.0060 B(  6-C ,  9-H ) :   0.9739 B(  6-C , 10-H ) :   0.9825
B(  6-C , 11-H ) :   0.9718 B(  7-O ,  8-H ) :   0.8970

Dispersion correction           -0.000266211
FINAL SINGLE POINT ENERGY      -115.731770039063

DIPOLE MOMENT
-------------
                                X             Y             Z
Electronic contribution:      1.10556       1.03031       1.13043
Nuclear contribution   :     -1.81157      -1.07533      -1.16677
                        -----------------------------------------
Total Dipole Moment    :     -0.70601      -0.04502      -0.03635
                        -----------------------------------------
Magnitude (a.u.)       :      0.70838
Magnitude (Debye)      :      1.80056

Rotational constants in cm-1:     4.424228     0.790276     0.771397
Rotational constants in MHz : 132635.005444 23691.875762 23125.889947

                             ****ORCA TERMINATED NORMALLY****
TOTAL RUN TIME: 0 days 0 hours 6 minutes 8 seconds 248 msec
