                         Program Version 4.1.2  - RELEASE  -
|  1> #Run DFT-D3 single point of the dimer
|  2> ! wB97X-D3 def2-TZVP TIGHTSCF CHELPG PMODEL PAL8
|  3>
|  4> %base "1-168_DFT_AB"
|  5>
|  6> %scf
|  7> MaxIter 1000
|  8> end
|  9>
| 10> * xyz 0 1
| 11>   C                      -2.402393            -10.278773           -3.280738
| 12>   O                      -1.721454            -10.813631           -4.440282
| 13>   H                      -2.355756            -11.155104           -5.064941
| 14>   H                      -1.851665            -10.416140           -2.347565
| 15>   H                      -2.501331            -9.212577            -3.385509
| 16>   H                      -3.410301            -10.670817           -3.273811
| 17>   C                      -0.937352            -8.088927            -2.221611
| 18>   O                      -0.146251            -8.844559            -3.090830
| 19>   H                      -0.684379            -9.530490            -3.450825
| 20>   H                      -1.078185            -8.565614            -1.265755
| 21>   H                      -0.482756            -7.086738            -2.030550
| 22>   H                      -1.994815            -7.899985            -2.646214
| 23> *
| 24>
| 25> #Run DFT-D3 single point of the molecule with dimer basis set
| 26> $new_job
| 27> %base "1-168_DFT_A"
| 28> ! wB97X-D3 def2-TZVP TIGHTSCF CHELPG PMODEL
| 29>
| 30> %scf
| 31> MaxIter 1000
| 32> end
| 33>
| 34> * xyz 0 1
| 35>   C                      -2.402393            -10.278773           -3.280738
| 36>   O                      -1.721454            -10.813631           -4.440282
| 37>   H                      -2.355756            -11.155104           -5.064941
| 38>   H                      -1.851665            -10.416140           -2.347565
| 39>   H                      -2.501331            -9.212577            -3.385509
| 40>   H                      -3.410301            -10.670817           -3.273811
| 41>   C                    : -0.937352            -8.088927            -2.221611
| 42>   O                    : -0.146251            -8.844559            -3.090830
| 43>   H                    : -0.684379            -9.530490            -3.450825
| 44>   H                    : -1.078185            -8.565614            -1.265755
| 45>   H                    : -0.482756            -7.086738            -2.030550
| 46>   H                    : -1.994815            -7.899985            -2.646214
| 47> *
| 48>
| 49> #Run DFT-D3 single point of the particle with dimer basis set
| 50> $new_job
| 51> %base "1-168_DFT_B"
| 52> ! wB97X-D3 def2-TZVP TIGHTSCF CHELPG PMODEL
| 53>
| 54> %scf
| 55> MaxIter 1000
| 56> end
| 57>
| 58> * xyz 0 1
| 59>   C                    : -2.402393            -10.278773           -3.280738
| 60>   O                    : -1.721454            -10.813631           -4.440282
| 61>   H                    : -2.355756            -11.155104           -5.064941
| 62>   H                    : -1.851665            -10.416140           -2.347565
| 63>   H                    : -2.501331            -9.212577            -3.385509
| 64>   H                    : -3.410301            -10.670817           -3.273811
| 65>   C                      -0.937352            -8.088927            -2.221611
| 66>   O                      -0.146251            -8.844559            -3.090830
| 67>   H                      -0.684379            -9.530490            -3.450825
| 68>   H                      -1.078185            -8.565614            -1.265755
| 69>   H                      -0.482756            -7.086738            -2.030550
| 70>   H                      -1.994815            -7.899985            -2.646214
| 71> *
| 72>
| 73>                          ****END OF INPUT****
 Total Charge           Charge          ....    0
 Multiplicity           Mult            ....    1
 Number of Electrons    NEL             ....   36
Dispersion correction           -0.002013314
FINAL SINGLE POINT ENERGY      -231.450357875198
Dispersion correction           -0.000249700
FINAL SINGLE POINT ENERGY      -115.732905078295

CARTESIAN COORDINATES (ANGSTROEM)
---------------------------------
  C     -2.402393  -10.278773   -3.280738
  O     -1.721454  -10.813631   -4.440282
  H     -2.355756  -11.155104   -5.064941
  H     -1.851665  -10.416140   -2.347565
  H     -2.501331   -9.212577   -3.385509
  H     -3.410301  -10.670817   -3.273811
  C     -0.937352   -8.088927   -2.221611
  O     -0.146251   -8.844559   -3.090830
  H     -0.684379   -9.530490   -3.450825
  H     -1.078185   -8.565614   -1.265755
  H     -0.482756   -7.086738   -2.030550
  H     -1.994815   -7.899985   -2.646214

 Multiplicity           Mult            ....    1
 Number of Electrons    NEL             ....   18
 Basis Dimension        Dim             ....  172

ORBITAL ENERGIES
----------------

  NO   OCC          E(Eh)            E(eV)
   0   2.0000     -19.232736      -523.3494
   1   2.0000     -10.318884      -280.7911
   2   2.0000      -1.146993       -31.2113
   3   2.0000      -0.792720       -21.5710
   4   2.0000      -0.616522       -16.7764
   5   2.0000      -0.540760       -14.7148
   6   2.0000      -0.529589       -14.4109
   7   2.0000      -0.431939       -11.7537
   8   2.0000      -0.374727       -10.1968
   9   0.0000       0.074240         2.0202
  10   0.0000       0.139712         3.8017
  11   0.0000       0.158617         4.3162
  12   0.0000       0.172801         4.7022
  13   0.0000       0.184593         5.0230

MULLIKEN ATOMIC CHARGES
-----------------------
   0 C :   -0.027327
   1 O :    0.000764
   2 H :   -0.000043
   3 H :    0.000266
   4 H :    0.008888
   5 H :   -0.001313
   6 C :   -0.169793
   7 O :   -0.452048
   8 H :    0.325572
   9 H :    0.106875
  10 H :    0.124688
  11 H :    0.083472
Sum of atomic charges:   -0.0000000

LOEWDIN ATOMIC CHARGES
----------------------
   0 C :   -0.067846
   1 O :   -0.014861
   2 H :   -0.000600
   3 H :   -0.011834
   4 H :   -0.031690
   5 H :   -0.000515
   6 C :   -0.373646
   7 O :   -0.018449
   8 H :    0.188531
   9 H :    0.093760
  10 H :    0.112121
  11 H :    0.125029

  Mayer bond orders larger than 0.1
B(  6-C ,  7-O ) :   0.9895 B(  6-C ,  9-H ) :   0.9799 B(  6-C , 10-H ) :   0.9733
B(  6-C , 11-H ) :   0.9795 B(  7-O ,  8-H ) :   0.9056

Dispersion correction           -0.000245326
FINAL SINGLE POINT ENERGY      -115.734734065383

DIPOLE MOMENT
-------------
                                X             Y             Z
Electronic contribution:      1.25552      -0.96401      -1.09968
Nuclear contribution   :     -1.87872       0.81430       1.20680
                        -----------------------------------------
Total Dipole Moment    :     -0.62319      -0.14971       0.10712
                        -----------------------------------------
Magnitude (a.u.)       :      0.64981
Magnitude (Debye)      :      1.65169

Rotational constants in cm-1:     4.233078     0.840909     0.807275
Rotational constants in MHz : 126904.475412 25209.830478 24201.485588

                             ****ORCA TERMINATED NORMALLY****
TOTAL RUN TIME: 0 days 0 hours 6 minutes 17 seconds 422 msec
