                         Program Version 4.1.2  - RELEASE  -
|  1> #Run DFT-D3 single point of the dimer
|  2> ! wB97X-D3 def2-TZVP TIGHTSCF CHELPG PMODEL PAL8
|  3>
|  4> %base "10-16_DFT_AB"
|  5>
|  6> %scf
|  7> MaxIter 1000
|  8> end
|  9>
| 10> * xyz 0 1
| 11>   C                      -8.336969            -4.600054            6.961619
| 12>   O                      -7.406997            -4.718792            5.976221
| 13>   H                      -6.557219            -5.068828            6.345814
| 14>   H                      -9.026821            -3.757067            6.800029
| 15>   H                      -9.068774            -5.485411            6.969378
| 16>   H                      -7.848887            -4.496328            7.950912
| 17>   C                      -8.584011            -7.656971            10.581008
| 18>   O                      -7.674715            -6.777983            10.007865
| 19>   H                      -6.853025            -7.140505            10.301418
| 20>   H                      -8.119190            -8.646090            10.809109
| 21>   H                      -9.085518            -7.182406            11.434163
| 22>   H                      -9.323413            -7.939942            9.860139
| 23> *
| 24>
| 25> #Run DFT-D3 single point of the molecule with dimer basis set
| 26> $new_job
| 27> %base "10-16_DFT_A"
| 28> ! wB97X-D3 def2-TZVP TIGHTSCF CHELPG PMODEL
| 29>
| 30> %scf
| 31> MaxIter 1000
| 32> end
| 33>
| 34> * xyz 0 1
| 35>   C                      -8.336969            -4.600054            6.961619
| 36>   O                      -7.406997            -4.718792            5.976221
| 37>   H                      -6.557219            -5.068828            6.345814
| 38>   H                      -9.026821            -3.757067            6.800029
| 39>   H                      -9.068774            -5.485411            6.969378
| 40>   H                      -7.848887            -4.496328            7.950912
| 41>   C                    : -8.584011            -7.656971            10.581008
| 42>   O                    : -7.674715            -6.777983            10.007865
| 43>   H                    : -6.853025            -7.140505            10.301418
| 44>   H                    : -8.119190            -8.646090            10.809109
| 45>   H                    : -9.085518            -7.182406            11.434163
| 46>   H                    : -9.323413            -7.939942            9.860139
| 47> *
| 48>
| 49> #Run DFT-D3 single point of the particle with dimer basis set
| 50> $new_job
| 51> %base "10-16_DFT_B"
| 52> ! wB97X-D3 def2-TZVP TIGHTSCF CHELPG PMODEL
| 53>
| 54> %scf
| 55> MaxIter 1000
| 56> end
| 57>
| 58> * xyz 0 1
| 59>   C                    : -8.336969            -4.600054            6.961619
| 60>   O                    : -7.406997            -4.718792            5.976221
| 61>   H                    : -6.557219            -5.068828            6.345814
| 62>   H                    : -9.026821            -3.757067            6.800029
| 63>   H                    : -9.068774            -5.485411            6.969378
| 64>   H                    : -7.848887            -4.496328            7.950912
| 65>   C                      -8.584011            -7.656971            10.581008
| 66>   O                      -7.674715            -6.777983            10.007865
| 67>   H                      -6.853025            -7.140505            10.301418
| 68>   H                      -8.119190            -8.646090            10.809109
| 69>   H                      -9.085518            -7.182406            11.434163
| 70>   H                      -9.323413            -7.939942            9.860139
| 71> *
| 72>
| 73>                          ****END OF INPUT****
 Total Charge           Charge          ....    0
 Multiplicity           Mult            ....    1
 Number of Electrons    NEL             ....   36
Dispersion correction           -0.001178612
FINAL SINGLE POINT ENERGY      -231.463339937902
Dispersion correction           -0.000243979
FINAL SINGLE POINT ENERGY      -115.730525419273

CARTESIAN COORDINATES (ANGSTROEM)
---------------------------------
  C     -8.336969   -4.600054    6.961619
  O     -7.406997   -4.718792    5.976221
  H     -6.557219   -5.068828    6.345814
  H     -9.026821   -3.757067    6.800029
  H     -9.068774   -5.485411    6.969378
  H     -7.848887   -4.496328    7.950912
  C     -8.584011   -7.656971   10.581008
  O     -7.674715   -6.777983   10.007865
  H     -6.853025   -7.140505   10.301418
  H     -8.119190   -8.646090   10.809109
  H     -9.085518   -7.182406   11.434163
  H     -9.323413   -7.939942    9.860139

 Multiplicity           Mult            ....    1
 Number of Electrons    NEL             ....   18
 Basis Dimension        Dim             ....  172

ORBITAL ENERGIES
----------------

  NO   OCC          E(Eh)            E(eV)
   0   2.0000     -19.230232      -523.2812
   1   2.0000     -10.310802      -280.5712
   2   2.0000      -1.152488       -31.3608
   3   2.0000      -0.792911       -21.5762
   4   2.0000      -0.616123       -16.7656
   5   2.0000      -0.551404       -15.0045
   6   2.0000      -0.529043       -14.3960
   7   2.0000      -0.434548       -11.8246
   8   2.0000      -0.374931       -10.2024
   9   0.0000       0.097610         2.6561
  10   0.0000       0.119010         3.2384
  11   0.0000       0.156820         4.2673
  12   0.0000       0.175268         4.7693
  13   0.0000       0.188861         5.1392

MULLIKEN ATOMIC CHARGES
-----------------------
   0 C :    0.000089
   1 O :    0.000078
   2 H :   -0.000239
   3 H :   -0.000226
   4 H :   -0.000774
   5 H :   -0.003242
   6 C :   -0.169703
   7 O :   -0.449464
   8 H :    0.314056
   9 H :    0.094619
  10 H :    0.101062
  11 H :    0.113744
Sum of atomic charges:   -0.0000000

LOEWDIN ATOMIC CHARGES
----------------------
   0 C :   -0.003159
   1 O :   -0.000015
   2 H :   -0.000108
   3 H :   -0.000032
   4 H :   -0.000400
   5 H :   -0.003263
   6 C :   -0.408028
   7 O :   -0.047119
   8 H :    0.165880
   9 H :    0.100785
  10 H :    0.097905
  11 H :    0.097555

  Mayer bond orders larger than 0.1
B(  6-C ,  7-O ) :   1.0086 B(  6-C ,  9-H ) :   0.9860 B(  6-C , 10-H ) :   0.9750
B(  6-C , 11-H ) :   0.9759 B(  7-O ,  8-H ) :   0.9045

Dispersion correction           -0.000219829
FINAL SINGLE POINT ENERGY      -115.731403047400

DIPOLE MOMENT
-------------
                                X             Y             Z
Electronic contribution:      1.09922       1.29223      -0.75673
Nuclear contribution   :     -0.91440      -1.87089       1.13592
                        -----------------------------------------
Total Dipole Moment    :      0.18483      -0.57866       0.37920
                        -----------------------------------------
Magnitude (a.u.)       :      0.71610
Magnitude (Debye)      :      1.82018

Rotational constants in cm-1:     4.248913     0.864747     0.834818
Rotational constants in MHz : 127379.213420 25924.450376 25027.206254

                             ****ORCA TERMINATED NORMALLY****
TOTAL RUN TIME: 0 days 0 hours 1 minutes 3 seconds 227 msec
