                         Program Version 4.1.2  - RELEASE  -
|  1> #Run DFT-D3 single point of the dimer
|  2> ! wB97X-D3 def2-TZVP TIGHTSCF CHELPG PMODEL PAL8
|  3>
|  4> %base "10-143_DFT_AB"
|  5>
|  6> %scf
|  7> MaxIter 1000
|  8> end
|  9>
| 10> * xyz 0 1
| 11>   C                      -3.729851            3.038293             4.185323
| 12>   O                      -3.523052            2.471416             5.433180
| 13>   H                      -4.135422            2.762021             6.113348
| 14>   H                      -4.740345            3.461552             4.070275
| 15>   H                      -3.093136            3.884884             4.062776
| 16>   H                      -3.567683            2.320354             3.352861
| 17>   C                      -6.628751            4.410598             1.237463
| 18>   O                      -6.240640            3.256132             1.916110
| 19>   H                      -6.294813            3.544461             2.875612
| 20>   H                      -7.445922            4.955824             1.738805
| 21>   H                      -5.770708            4.985715             1.059692
| 22>   H                      -6.850357            4.201028             0.178720
| 23> *
| 24>
| 25> #Run DFT-D3 single point of the molecule with dimer basis set
| 26> $new_job
| 27> %base "10-143_DFT_A"
| 28> ! wB97X-D3 def2-TZVP TIGHTSCF CHELPG PMODEL
| 29>
| 30> %scf
| 31> MaxIter 1000
| 32> end
| 33>
| 34> * xyz 0 1
| 35>   C                      -3.729851            3.038293             4.185323
| 36>   O                      -3.523052            2.471416             5.433180
| 37>   H                      -4.135422            2.762021             6.113348
| 38>   H                      -4.740345            3.461552             4.070275
| 39>   H                      -3.093136            3.884884             4.062776
| 40>   H                      -3.567683            2.320354             3.352861
| 41>   C                    : -6.628751            4.410598             1.237463
| 42>   O                    : -6.240640            3.256132             1.916110
| 43>   H                    : -6.294813            3.544461             2.875612
| 44>   H                    : -7.445922            4.955824             1.738805
| 45>   H                    : -5.770708            4.985715             1.059692
| 46>   H                    : -6.850357            4.201028             0.178720
| 47> *
| 48>
| 49> #Run DFT-D3 single point of the particle with dimer basis set
| 50> $new_job
| 51> %base "10-143_DFT_B"
| 52> ! wB97X-D3 def2-TZVP TIGHTSCF CHELPG PMODEL
| 53>
| 54> %scf
| 55> MaxIter 1000
| 56> end
| 57>
| 58> * xyz 0 1
| 59>   C                    : -3.729851            3.038293             4.185323
| 60>   O                    : -3.523052            2.471416             5.433180
| 61>   H                    : -4.135422            2.762021             6.113348
| 62>   H                    : -4.740345            3.461552             4.070275
| 63>   H                    : -3.093136            3.884884             4.062776
| 64>   H                    : -3.567683            2.320354             3.352861
| 65>   C                      -6.628751            4.410598             1.237463
| 66>   O                      -6.240640            3.256132             1.916110
| 67>   H                      -6.294813            3.544461             2.875612
| 68>   H                      -7.445922            4.955824             1.738805
| 69>   H                      -5.770708            4.985715             1.059692
| 70>   H                      -6.850357            4.201028             0.178720
| 71> *
| 72>
| 73>                          ****END OF INPUT****
 Total Charge           Charge          ....    0
 Multiplicity           Mult            ....    1
 Number of Electrons    NEL             ....   36
Dispersion correction           -0.001569634
FINAL SINGLE POINT ENERGY      -231.459561763246
Dispersion correction           -0.000246681
FINAL SINGLE POINT ENERGY      -115.733272207044

CARTESIAN COORDINATES (ANGSTROEM)
---------------------------------
  C     -3.729851    3.038293    4.185323
  O     -3.523052    2.471416    5.433180
  H     -4.135422    2.762021    6.113348
  H     -4.740345    3.461552    4.070275
  H     -3.093136    3.884884    4.062776
  H     -3.567683    2.320354    3.352861
  C     -6.628751    4.410598    1.237463
  O     -6.240640    3.256132    1.916110
  H     -6.294813    3.544461    2.875612
  H     -7.445922    4.955824    1.738805
  H     -5.770708    4.985715    1.059692
  H     -6.850357    4.201028    0.178720

 Multiplicity           Mult            ....    1
 Number of Electrons    NEL             ....   18
 Basis Dimension        Dim             ....  172

ORBITAL ENERGIES
----------------

  NO   OCC          E(Eh)            E(eV)
   0   2.0000     -19.235502      -523.4246
   1   2.0000     -10.307303      -280.4760
   2   2.0000      -1.139052       -30.9952
   3   2.0000      -0.792772       -21.5724
   4   2.0000      -0.607733       -16.5372
   5   2.0000      -0.553161       -15.0523
   6   2.0000      -0.526261       -14.3203
   7   2.0000      -0.436328       -11.8731
   8   2.0000      -0.369204       -10.0466
   9   0.0000       0.079939         2.1753
  10   0.0000       0.125719         3.4210
  11   0.0000       0.156682         4.2635
  12   0.0000       0.165570         4.5054
  13   0.0000       0.196616         5.3502

MULLIKEN ATOMIC CHARGES
-----------------------
   0 C :    0.004556
   1 O :   -0.000343
   2 H :   -0.000040
   3 H :   -0.014217
   4 H :   -0.000560
   5 H :   -0.000894
   6 C :   -0.174319
   7 O :   -0.452547
   8 H :    0.318823
   9 H :    0.104567
  10 H :    0.108426
  11 H :    0.106549
Sum of atomic charges:    0.0000000

LOEWDIN ATOMIC CHARGES
----------------------
   0 C :   -0.008927
   1 O :   -0.000047
   2 H :   -0.000011
   3 H :   -0.010606
   4 H :   -0.000138
   5 H :   -0.001999
   6 C :   -0.410260
   7 O :   -0.067209
   8 H :    0.203491
   9 H :    0.098608
  10 H :    0.087440
  11 H :    0.109658

  Mayer bond orders larger than 0.1
B(  6-C ,  7-O ) :   1.0134 B(  6-C ,  9-H ) :   0.9809 B(  6-C , 10-H ) :   0.9787
B(  6-C , 11-H ) :   0.9751 B(  7-O ,  8-H ) :   0.8946

Dispersion correction           -0.000218725
FINAL SINGLE POINT ENERGY      -115.727251798091

DIPOLE MOMENT
-------------
                                X             Y             Z
Electronic contribution:      0.42831      -1.57514       0.81962
Nuclear contribution   :     -0.59878       2.19125      -0.52648
                        -----------------------------------------
Total Dipole Moment    :     -0.17047       0.61611       0.29314
                        -----------------------------------------
Magnitude (a.u.)       :      0.70327
Magnitude (Debye)      :      1.78757

Rotational constants in cm-1:     4.245798     0.865093     0.816504
Rotational constants in MHz : 127285.826750 25934.839850 24478.174498

                             ****ORCA TERMINATED NORMALLY****
TOTAL RUN TIME: 0 days 0 hours 1 minutes 6 seconds 70 msec
