                         Program Version 4.1.2  - RELEASE  -
|  1> #Run DFT-D3 single point of the dimer
|  2> ! wB97X-D3 def2-TZVP TIGHTSCF CHELPG PMODEL PAL8
|  3>
|  4> %base "1-167_DFT_AB"
|  5>
|  6> %scf
|  7> MaxIter 1000
|  8> end
|  9>
| 10> * xyz 0 1
| 11>   C                      0.144095             -7.252960            6.891746
| 12>   O                      0.342838             -6.072351            7.719867
| 13>   H                      0.144008             -6.243576            8.650731
| 14>   H                      -0.412885            -7.910515            7.511644
| 15>   H                      -0.473165            -7.072138            6.063705
| 16>   H                      1.048022             -7.622503            6.470122
| 17>   C                      -0.665410            -8.380681            4.393711
| 18>   O                      0.289953             -8.164521            5.389637
| 19>   H                      0.352855             -8.938722            5.877031
| 20>   H                      -0.398421            -7.807642            3.558172
| 21>   H                      -0.649855            -9.464361            4.143995
| 22>   H                      -1.682944            -8.024090            4.647246
| 23> *
| 24>
| 25> #Run DFT-D3 single point of the molecule with dimer basis set
| 26> $new_job
| 27> %base "1-167_DFT_A"
| 28> ! wB97X-D3 def2-TZVP TIGHTSCF CHELPG PMODEL
| 29>
| 30> %scf
| 31> MaxIter 1000
| 32> end
| 33>
| 34> * xyz 0 1
| 35>   C                      0.144095             -7.252960            6.891746
| 36>   O                      0.342838             -6.072351            7.719867
| 37>   H                      0.144008             -6.243576            8.650731
| 38>   H                      -0.412885            -7.910515            7.511644
| 39>   H                      -0.473165            -7.072138            6.063705
| 40>   H                      1.048022             -7.622503            6.470122
| 41>   C                    : -0.665410            -8.380681            4.393711
| 42>   O                    : 0.289953             -8.164521            5.389637
| 43>   H                    : 0.352855             -8.938722            5.877031
| 44>   H                    : -0.398421            -7.807642            3.558172
| 45>   H                    : -0.649855            -9.464361            4.143995
| 46>   H                    : -1.682944            -8.024090            4.647246
| 47> *
| 48>
| 49> #Run DFT-D3 single point of the particle with dimer basis set
| 50> $new_job
| 51> %base "1-167_DFT_B"
| 52> ! wB97X-D3 def2-TZVP TIGHTSCF CHELPG PMODEL
| 53>
| 54> %scf
| 55> MaxIter 1000
| 56> end
| 57>
| 58> * xyz 0 1
| 59>   C                    : 0.144095             -7.252960            6.891746
| 60>   O                    : 0.342838             -6.072351            7.719867
| 61>   H                    : 0.144008             -6.243576            8.650731
| 62>   H                    : -0.412885            -7.910515            7.511644
| 63>   H                    : -0.473165            -7.072138            6.063705
| 64>   H                    : 1.048022             -7.622503            6.470122
| 65>   C                      -0.665410            -8.380681            4.393711
| 66>   O                      0.289953             -8.164521            5.389637
| 67>   H                      0.352855             -8.938722            5.877031
| 68>   H                      -0.398421            -7.807642            3.558172
| 69>   H                      -0.649855            -9.464361            4.143995
| 70>   H                      -1.682944            -8.024090            4.647246
| 71> *
| 72>
| 73>                          ****END OF INPUT****
 Total Charge           Charge          ....    0
 Multiplicity           Mult            ....    1
 Number of Electrons    NEL             ....   36
Dispersion correction           -0.001785115
FINAL SINGLE POINT ENERGY      -231.282162179655
Dispersion correction           -0.000249000
FINAL SINGLE POINT ENERGY      -115.727550913075

CARTESIAN COORDINATES (ANGSTROEM)
---------------------------------
  C      0.144095   -7.252960    6.891746
  O      0.342838   -6.072351    7.719867
  H      0.144008   -6.243576    8.650731
  H     -0.412885   -7.910515    7.511644
  H     -0.473165   -7.072138    6.063705
  H      1.048022   -7.622503    6.470122
  C     -0.665410   -8.380681    4.393711
  O      0.289953   -8.164521    5.389637
  H      0.352855   -8.938722    5.877031
  H     -0.398421   -7.807642    3.558172
  H     -0.649855   -9.464361    4.143995
  H     -1.682944   -8.024090    4.647246

 Multiplicity           Mult            ....    1
 Number of Electrons    NEL             ....   18
 Basis Dimension        Dim             ....  172

ORBITAL ENERGIES
----------------

  NO   OCC          E(Eh)            E(eV)
   0   2.0000     -19.227765      -523.2141
   1   2.0000     -10.311085      -280.5789
   2   2.0000      -1.152503       -31.3612
   3   2.0000      -0.801118       -21.7995
   4   2.0000      -0.617778       -16.8106
   5   2.0000      -0.546511       -14.8713
   6   2.0000      -0.537151       -14.6166
   7   2.0000      -0.436019       -11.8647
   8   2.0000      -0.374697       -10.1960
   9   0.0000       0.099261         2.7010
  10   0.0000       0.136905         3.7254
  11   0.0000       0.156933         4.2704
  12   0.0000       0.191235         5.2038
  13   0.0000       0.202267         5.5040

MULLIKEN ATOMIC CHARGES
-----------------------
   0 C :   -0.051161
   1 O :   -0.001761
   2 H :   -0.000445
   3 H :    0.001025
   4 H :    0.014207
   5 H :   -0.006173
   6 C :   -0.177904
   7 O :   -0.403971
   8 H :    0.305273
   9 H :    0.117488
  10 H :    0.102462
  11 H :    0.100961
Sum of atomic charges:   -0.0000000

LOEWDIN ATOMIC CHARGES
----------------------
   0 C :   -0.271609
   1 O :   -0.001930
   2 H :   -0.000299
   3 H :   -0.013152
   4 H :   -0.084990
   5 H :   -0.099043
   6 C :   -0.347945
   7 O :    0.326781
   8 H :    0.184334
   9 H :    0.098702
  10 H :    0.105613
  11 H :    0.103538

  Mayer bond orders larger than 0.1
B(  6-C ,  7-O ) :   0.9991 B(  6-C ,  9-H ) :   0.9805 B(  6-C , 10-H ) :   0.9831
B(  6-C , 11-H ) :   0.9795 B(  7-O ,  8-H ) :   0.9069

Dispersion correction           -0.000227501
FINAL SINGLE POINT ENERGY      -115.732544784917

DIPOLE MOMENT
-------------
                                X             Y             Z
Electronic contribution:      1.24019       0.41244       1.21952
Nuclear contribution   :     -1.55087      -0.98710      -1.32468
                        -----------------------------------------
Total Dipole Moment    :     -0.31069      -0.57467      -0.10516
                        -----------------------------------------
Magnitude (a.u.)       :      0.66168
Magnitude (Debye)      :      1.68187

Rotational constants in cm-1:     4.368509     0.857224     0.823694
Rotational constants in MHz : 130964.595117 25698.917924 24693.727418

                             ****ORCA TERMINATED NORMALLY****
TOTAL RUN TIME: 0 days 0 hours 6 minutes 21 seconds 735 msec
