                         Program Version 4.1.2  - RELEASE  -
|  1> #Run DFT-D3 single point of the dimer
|  2> ! wB97X-D3 def2-TZVP TIGHTSCF CHELPG PMODEL PAL8
|  3>
|  4> %base "13-14_DFT_AB"
|  5>
|  6> %scf
|  7> MaxIter 1000
|  8> end
|  9>
| 10> * xyz 0 1
| 11>   C                      -1.759558            -3.697240            10.473655
| 12>   O                      -1.814703            -2.791501            9.446395
| 13>   H                      -1.493921            -1.963915            9.817831
| 14>   H                      -0.839036            -3.765161            10.942798
| 15>   H                      -2.437705            -3.484567            11.215743
| 16>   H                      -1.906414            -4.658250            10.028213
| 17>   C                      -2.480424            1.308828             7.904205
| 18>   O                      -1.509948            0.802413             7.031501
| 19>   H                      -1.975338            0.214268             6.452613
| 20>   H                      -2.494032            0.674964             8.764390
| 21>   H                      -2.228813            2.301698             8.272983
| 22>   H                      -3.456427            1.299778             7.479879
| 23> *
| 24>
| 25> #Run DFT-D3 single point of the molecule with dimer basis set
| 26> $new_job
| 27> %base "13-14_DFT_A"
| 28> ! wB97X-D3 def2-TZVP TIGHTSCF CHELPG PMODEL
| 29>
| 30> %scf
| 31> MaxIter 1000
| 32> end
| 33>
| 34> * xyz 0 1
| 35>   C                      -1.759558            -3.697240            10.473655
| 36>   O                      -1.814703            -2.791501            9.446395
| 37>   H                      -1.493921            -1.963915            9.817831
| 38>   H                      -0.839036            -3.765161            10.942798
| 39>   H                      -2.437705            -3.484567            11.215743
| 40>   H                      -1.906414            -4.658250            10.028213
| 41>   C                    : -2.480424            1.308828             7.904205
| 42>   O                    : -1.509948            0.802413             7.031501
| 43>   H                    : -1.975338            0.214268             6.452613
| 44>   H                    : -2.494032            0.674964             8.764390
| 45>   H                    : -2.228813            2.301698             8.272983
| 46>   H                    : -3.456427            1.299778             7.479879
| 47> *
| 48>
| 49> #Run DFT-D3 single point of the particle with dimer basis set
| 50> $new_job
| 51> %base "13-14_DFT_B"
| 52> ! wB97X-D3 def2-TZVP TIGHTSCF CHELPG PMODEL
| 53>
| 54> %scf
| 55> MaxIter 1000
| 56> end
| 57>
| 58> * xyz 0 1
| 59>   C                    : -1.759558            -3.697240            10.473655
| 60>   O                    : -1.814703            -2.791501            9.446395
| 61>   H                    : -1.493921            -1.963915            9.817831
| 62>   H                    : -0.839036            -3.765161            10.942798
| 63>   H                    : -2.437705            -3.484567            11.215743
| 64>   H                    : -1.906414            -4.658250            10.028213
| 65>   C                      -2.480424            1.308828             7.904205
| 66>   O                      -1.509948            0.802413             7.031501
| 67>   H                      -1.975338            0.214268             6.452613
| 68>   H                      -2.494032            0.674964             8.764390
| 69>   H                      -2.228813            2.301698             8.272983
| 70>   H                      -3.456427            1.299778             7.479879
| 71> *
| 72>
| 73>                          ****END OF INPUT****
 Total Charge           Charge          ....    0
 Multiplicity           Mult            ....    1
 Number of Electrons    NEL             ....   36
Dispersion correction           -0.000893171
FINAL SINGLE POINT ENERGY      -231.463151358587
Dispersion correction           -0.000194011
FINAL SINGLE POINT ENERGY      -115.728445673302

CARTESIAN COORDINATES (ANGSTROEM)
---------------------------------
  C     -1.759558   -3.697240   10.473655
  O     -1.814703   -2.791501    9.446395
  H     -1.493921   -1.963915    9.817831
  H     -0.839036   -3.765161   10.942798
  H     -2.437705   -3.484567   11.215743
  H     -1.906414   -4.658250   10.028213
  C     -2.480424    1.308828    7.904205
  O     -1.509948    0.802413    7.031501
  H     -1.975338    0.214268    6.452613
  H     -2.494032    0.674964    8.764390
  H     -2.228813    2.301698    8.272983
  H     -3.456427    1.299778    7.479879

 Multiplicity           Mult            ....    1
 Number of Electrons    NEL             ....   18
 Basis Dimension        Dim             ....  172

ORBITAL ENERGIES
----------------

  NO   OCC          E(Eh)            E(eV)
   0   2.0000     -19.227292      -523.2012
   1   2.0000     -10.304845      -280.4091
   2   2.0000      -1.144089       -31.1322
   3   2.0000      -0.798863       -21.7382
   4   2.0000      -0.617304       -16.7977
   5   2.0000      -0.543302       -14.7840
   6   2.0000      -0.533129       -14.5072
   7   2.0000      -0.439916       -11.9707
   8   2.0000      -0.370136       -10.0719
   9   0.0000       0.086877         2.3641
  10   0.0000       0.115460         3.1418
  11   0.0000       0.156305         4.2533
  12   0.0000       0.169391         4.6094
  13   0.0000       0.196645         5.3510

MULLIKEN ATOMIC CHARGES
-----------------------
   0 C :   -0.000120
   1 O :   -0.000087
   2 H :    0.000457
   3 H :    0.000003
   4 H :    0.000023
   5 H :   -0.000001
   6 C :   -0.162993
   7 O :   -0.467463
   8 H :    0.312666
   9 H :    0.100627
  10 H :    0.110847
  11 H :    0.106042
Sum of atomic charges:    0.0000000

LOEWDIN ATOMIC CHARGES
----------------------
   0 C :   -0.000022
   1 O :   -0.000144
   2 H :   -0.000563
   3 H :   -0.000001
   4 H :   -0.000001
   5 H :   -0.000001
   6 C :   -0.387078
   7 O :   -0.062027
   8 H :    0.163600
   9 H :    0.090974
  10 H :    0.104781
  11 H :    0.090481

  Mayer bond orders larger than 0.1
B(  6-C ,  7-O ) :   1.0086 B(  6-C ,  9-H ) :   0.9795 B(  6-C , 10-H ) :   0.9769
B(  6-C , 11-H ) :   0.9865 B(  7-O ,  8-H ) :   0.9043

Dispersion correction           -0.000216031
FINAL SINGLE POINT ENERGY      -115.733571613896

DIPOLE MOMENT
-------------
                                X             Y             Z
Electronic contribution:      1.31343      -0.51221      -1.13214
Nuclear contribution   :     -2.00218       0.33484       1.09851
                        -----------------------------------------
Total Dipole Moment    :     -0.68875      -0.17737      -0.03363
                        -----------------------------------------
Magnitude (a.u.)       :      0.71202
Magnitude (Debye)      :      1.80980

Rotational constants in cm-1:     4.426060     0.856798     0.819849
Rotational constants in MHz : 132689.933189 25686.165119 24578.456364

                             ****ORCA TERMINATED NORMALLY****
TOTAL RUN TIME: 0 days 0 hours 1 minutes 6 seconds 374 msec
