                         Program Version 4.1.2  - RELEASE  -
|  1> #Run DFT-D3 single point of the dimer
|  2> ! wB97X-D3 def2-TZVP TIGHTSCF CHELPG PMODEL PAL8
|  3>
|  4> %base "1-117_DFT_AB"
|  5>
|  6> %scf
|  7> MaxIter 1000
|  8> end
|  9>
| 10> * xyz 0 1
| 11>   C                      10.097442            -11.021088           4.792170
| 12>   O                      9.797004             -10.184872           3.709985
| 13>   H                      10.061023            -9.304137            3.936101
| 14>   H                      10.118877            -12.027282           4.441475
| 15>   H                      11.067215            -10.924921           5.229111
| 16>   H                      9.389762             -10.964575           5.682178
| 17>   C                      9.807481             -6.265374            3.255807
| 18>   O                      8.516116             -5.985784            2.849230
| 19>   H                      7.873444             -6.652670            3.107081
| 20>   H                      9.878384             -6.416579            4.390140
| 21>   H                      10.158821            -7.284269            2.864965
| 22>   H                      10.483945            -5.489420            2.930069
| 23> *
| 24>
| 25> #Run DFT-D3 single point of the molecule with dimer basis set
| 26> $new_job
| 27> %base "1-117_DFT_A"
| 28> ! wB97X-D3 def2-TZVP TIGHTSCF CHELPG PMODEL
| 29>
| 30> %scf
| 31> MaxIter 1000
| 32> end
| 33>
| 34> * xyz 0 1
| 35>   C                      10.097442            -11.021088           4.792170
| 36>   O                      9.797004             -10.184872           3.709985
| 37>   H                      10.061023            -9.304137            3.936101
| 38>   H                      10.118877            -12.027282           4.441475
| 39>   H                      11.067215            -10.924921           5.229111
| 40>   H                      9.389762             -10.964575           5.682178
| 41>   C                    : 9.807481             -6.265374            3.255807
| 42>   O                    : 8.516116             -5.985784            2.849230
| 43>   H                    : 7.873444             -6.652670            3.107081
| 44>   H                    : 9.878384             -6.416579            4.390140
| 45>   H                    : 10.158821            -7.284269            2.864965
| 46>   H                    : 10.483945            -5.489420            2.930069
| 47> *
| 48>
| 49> #Run DFT-D3 single point of the particle with dimer basis set
| 50> $new_job
| 51> %base "1-117_DFT_B"
| 52> ! wB97X-D3 def2-TZVP TIGHTSCF CHELPG PMODEL
| 53>
| 54> %scf
| 55> MaxIter 1000
| 56> end
| 57>
| 58> * xyz 0 1
| 59>   C                    : 10.097442            -11.021088           4.792170
| 60>   O                    : 9.797004             -10.184872           3.709985
| 61>   H                    : 10.061023            -9.304137            3.936101
| 62>   H                    : 10.118877            -12.027282           4.441475
| 63>   H                    : 11.067215            -10.924921           5.229111
| 64>   H                    : 9.389762             -10.964575           5.682178
| 65>   C                      9.807481             -6.265374            3.255807
| 66>   O                      8.516116             -5.985784            2.849230
| 67>   H                      7.873444             -6.652670            3.107081
| 68>   H                      9.878384             -6.416579            4.390140
| 69>   H                      10.158821            -7.284269            2.864965
| 70>   H                      10.483945            -5.489420            2.930069
| 71> *
| 72>
| 73>                          ****END OF INPUT****
 Total Charge           Charge          ....    0
 Multiplicity           Mult            ....    1
 Number of Electrons    NEL             ....   36
Dispersion correction           -0.001317401
FINAL SINGLE POINT ENERGY      -231.466431519283
Dispersion correction           -0.000258124
FINAL SINGLE POINT ENERGY      -115.733182378340

CARTESIAN COORDINATES (ANGSTROEM)
---------------------------------
  C     10.097442  -11.021088    4.792170
  O      9.797004  -10.184872    3.709985
  H     10.061023   -9.304137    3.936101
  H     10.118877  -12.027282    4.441475
  H     11.067215  -10.924921    5.229111
  H      9.389762  -10.964575    5.682178
  C      9.807481   -6.265374    3.255807
  O      8.516116   -5.985784    2.849230
  H      7.873444   -6.652670    3.107081
  H      9.878384   -6.416579    4.390140
  H     10.158821   -7.284269    2.864965
  H     10.483945   -5.489420    2.930069

 Multiplicity           Mult            ....    1
 Number of Electrons    NEL             ....   18
 Basis Dimension        Dim             ....  172

ORBITAL ENERGIES
----------------

  NO   OCC          E(Eh)            E(eV)
   0   2.0000     -19.230202      -523.2804
   1   2.0000     -10.321258      -280.8557
   2   2.0000      -1.143694       -31.1215
   3   2.0000      -0.791736       -21.5442
   4   2.0000      -0.617681       -16.8080
   5   2.0000      -0.538901       -14.6642
   6   2.0000      -0.529133       -14.3984
   7   2.0000      -0.429626       -11.6907
   8   2.0000      -0.366114        -9.9625
   9   0.0000       0.079694         2.1686
  10   0.0000       0.115223         3.1354
  11   0.0000       0.150173         4.0864
  12   0.0000       0.177579         4.8322
  13   0.0000       0.191923         5.2225

MULLIKEN ATOMIC CHARGES
-----------------------
   0 C :    0.000333
   1 O :    0.000569
   2 H :   -0.002767
   3 H :   -0.000002
   4 H :   -0.000041
   5 H :   -0.000026
   6 C :   -0.150087
   7 O :   -0.472236
   8 H :    0.319243
   9 H :    0.088983
  10 H :    0.087665
  11 H :    0.128366
Sum of atomic charges:   -0.0000000

LOEWDIN ATOMIC CHARGES
----------------------
   0 C :   -0.000070
   1 O :   -0.000813
   2 H :   -0.006353
   3 H :   -0.000001
   4 H :   -0.000003
   5 H :   -0.000002
   6 C :   -0.413576
   7 O :   -0.055206
   8 H :    0.171260
   9 H :    0.099188
  10 H :    0.099966
  11 H :    0.105608

  Mayer bond orders larger than 0.1
B(  6-C ,  7-O ) :   1.0077 B(  6-C ,  9-H ) :   0.9749 B(  6-C , 10-H ) :   0.9748
B(  6-C , 11-H ) :   0.9665 B(  7-O ,  8-H ) :   0.8915

Dispersion correction           -0.000252327
FINAL SINGLE POINT ENERGY      -115.732572724475

DIPOLE MOMENT
-------------
                                X             Y             Z
Electronic contribution:     -1.66491       0.64222      -0.67161
Nuclear contribution   :      1.72548      -1.16233       0.97933
                        -----------------------------------------
Total Dipole Moment    :      0.06058      -0.52011       0.30773
                        -----------------------------------------
Magnitude (a.u.)       :      0.60736
Magnitude (Debye)      :      1.54378

Rotational constants in cm-1:     4.184698     0.849623     0.814899
Rotational constants in MHz : 125454.079001 25471.065521 24430.047567

                             ****ORCA TERMINATED NORMALLY****
TOTAL RUN TIME: 0 days 0 hours 5 minutes 32 seconds 902 msec
