                         Program Version 4.1.2  - RELEASE  -
|  1> #Run DFT-D3 single point of the dimer
|  2> ! wB97X-D3 def2-TZVP TIGHTSCF CHELPG PMODEL PAL8
|  3>
|  4> %base "3-138_DFT_AB"
|  5>
|  6> %scf
|  7> MaxIter 1000
|  8> end
|  9>
| 10> * xyz 0 1
| 11>   C                      -7.916342            -6.777899            -3.497241
| 12>   O                      -8.592063            -7.645050            -2.610539
| 13>   H                      -8.289805            -7.563570            -1.732779
| 14>   H                      -6.857783            -7.080269            -3.642114
| 15>   H                      -8.305381            -6.748343            -4.490312
| 16>   H                      -8.036397            -5.738256            -3.130291
| 17>   C                      -7.949055            -9.171305            -6.566835
| 18>   O                      -8.982075            -8.273082            -6.852369
| 19>   H                      -8.439640            -7.513511            -7.058999
| 20>   H                      -7.037029            -9.018700            -7.166905
| 21>   H                      -7.643131            -8.978097            -5.558532
| 22>   H                      -8.170766            -10.203733           -6.710026
| 23> *
| 24>
| 25> #Run DFT-D3 single point of the molecule with dimer basis set
| 26> $new_job
| 27> %base "3-138_DFT_A"
| 28> ! wB97X-D3 def2-TZVP TIGHTSCF CHELPG PMODEL
| 29>
| 30> %scf
| 31> MaxIter 1000
| 32> end
| 33>
| 34> * xyz 0 1
| 35>   C                      -7.916342            -6.777899            -3.497241
| 36>   O                      -8.592063            -7.645050            -2.610539
| 37>   H                      -8.289805            -7.563570            -1.732779
| 38>   H                      -6.857783            -7.080269            -3.642114
| 39>   H                      -8.305381            -6.748343            -4.490312
| 40>   H                      -8.036397            -5.738256            -3.130291
| 41>   C                    : -7.949055            -9.171305            -6.566835
| 42>   O                    : -8.982075            -8.273082            -6.852369
| 43>   H                    : -8.439640            -7.513511            -7.058999
| 44>   H                    : -7.037029            -9.018700            -7.166905
| 45>   H                    : -7.643131            -8.978097            -5.558532
| 46>   H                    : -8.170766            -10.203733           -6.710026
| 47> *
| 48>
| 49> #Run DFT-D3 single point of the particle with dimer basis set
| 50> $new_job
| 51> %base "3-138_DFT_B"
| 52> ! wB97X-D3 def2-TZVP TIGHTSCF CHELPG PMODEL
| 53>
| 54> %scf
| 55> MaxIter 1000
| 56> end
| 57>
| 58> * xyz 0 1
| 59>   C                    : -7.916342            -6.777899            -3.497241
| 60>   O                    : -8.592063            -7.645050            -2.610539
| 61>   H                    : -8.289805            -7.563570            -1.732779
| 62>   H                    : -6.857783            -7.080269            -3.642114
| 63>   H                    : -8.305381            -6.748343            -4.490312
| 64>   H                    : -8.036397            -5.738256            -3.130291
| 65>   C                      -7.949055            -9.171305            -6.566835
| 66>   O                      -8.982075            -8.273082            -6.852369
| 67>   H                      -8.439640            -7.513511            -7.058999
| 68>   H                      -7.037029            -9.018700            -7.166905
| 69>   H                      -7.643131            -8.978097            -5.558532
| 70>   H                      -8.170766            -10.203733           -6.710026
| 71> *
| 72>
| 73>                          ****END OF INPUT****
 Total Charge           Charge          ....    0
 Multiplicity           Mult            ....    1
 Number of Electrons    NEL             ....   36
Dispersion correction           -0.001743620
FINAL SINGLE POINT ENERGY      -231.462094225547
Dispersion correction           -0.000249556
FINAL SINGLE POINT ENERGY      -115.732371953705

CARTESIAN COORDINATES (ANGSTROEM)
---------------------------------
  C     -7.916342   -6.777899   -3.497241
  O     -8.592063   -7.645050   -2.610539
  H     -8.289805   -7.563570   -1.732779
  H     -6.857783   -7.080269   -3.642114
  H     -8.305381   -6.748343   -4.490312
  H     -8.036397   -5.738256   -3.130291
  C     -7.949055   -9.171305   -6.566835
  O     -8.982075   -8.273082   -6.852369
  H     -8.439640   -7.513511   -7.058999
  H     -7.037029   -9.018700   -7.166905
  H     -7.643131   -8.978097   -5.558532
  H     -8.170766  -10.203733   -6.710026

 Multiplicity           Mult            ....    1
 Number of Electrons    NEL             ....   18
 Basis Dimension        Dim             ....  172

ORBITAL ENERGIES
----------------

  NO   OCC          E(Eh)            E(eV)
   0   2.0000     -19.234156      -523.3880
   1   2.0000     -10.307815      -280.4899
   2   2.0000      -1.150847       -31.3161
   3   2.0000      -0.795658       -21.6509
   4   2.0000      -0.615391       -16.7457
   5   2.0000      -0.553192       -15.0531
   6   2.0000      -0.527960       -14.3665
   7   2.0000      -0.443352       -12.0642
   8   2.0000      -0.373728       -10.1697
   9   0.0000       0.083082         2.2608
  10   0.0000       0.121155         3.2968
  11   0.0000       0.154399         4.2014
  12   0.0000       0.171985         4.6800
  13   0.0000       0.187803         5.1104

MULLIKEN ATOMIC CHARGES
-----------------------
   0 C :    0.010104
   1 O :   -0.000516
   2 H :   -0.000039
   3 H :   -0.001615
   4 H :   -0.013262
   5 H :   -0.000128
   6 C :   -0.181018
   7 O :   -0.449373
   8 H :    0.318201
   9 H :    0.101454
  10 H :    0.092876
  11 H :    0.123318
Sum of atomic charges:    0.0000000

LOEWDIN ATOMIC CHARGES
----------------------
   0 C :   -0.005029
   1 O :   -0.000093
   2 H :   -0.000009
   3 H :   -0.001088
   4 H :   -0.005625
   5 H :   -0.000024
   6 C :   -0.399134
   7 O :   -0.055778
   8 H :    0.176242
   9 H :    0.097547
  10 H :    0.092855
  11 H :    0.100137

  Mayer bond orders larger than 0.1
B(  6-C ,  7-O ) :   1.0062 B(  6-C ,  9-H ) :   0.9855 B(  6-C , 10-H ) :   0.9830
B(  6-C , 11-H ) :   0.9756 B(  7-O ,  8-H ) :   0.9016

Dispersion correction           -0.000204045
FINAL SINGLE POINT ENERGY      -115.729298920310

DIPOLE MOMENT
-------------
                                X             Y             Z
Electronic contribution:     -1.61864       0.99753      -0.38708
Nuclear contribution   :      2.34246      -0.88039       0.34675
                        -----------------------------------------
Total Dipole Moment    :      0.72382       0.11715      -0.04032
                        -----------------------------------------
Magnitude (a.u.)       :      0.73435
Magnitude (Debye)      :      1.86656

Rotational constants in cm-1:     4.390559     0.856865     0.823629
Rotational constants in MHz : 131625.655113 25688.176299 24691.790326

                             ****ORCA TERMINATED NORMALLY****
TOTAL RUN TIME: 0 days 0 hours 5 minutes 49 seconds 293 msec
