                         Program Version 4.1.2  - RELEASE  -
|  1> #Run DFT-D3 single point of the dimer
|  2> ! wB97X-D3 def2-TZVP TIGHTSCF CHELPG PMODEL PAL8
|  3>
|  4> %base "1-42_DFT_AB"
|  5>
|  6> %scf
|  7> MaxIter 1000
|  8> end
|  9>
| 10> * xyz 0 1
| 11>   C                      -2.553089            -9.341690            7.829840
| 12>   O                      -3.202982            -9.262673            6.528423
| 13>   H                      -3.995979            -9.807772            6.501171
| 14>   H                      -1.675079            -8.720392            7.907150
| 15>   H                      -3.152298            -8.937749            8.646217
| 16>   H                      -2.217675            -10.345372           8.116701
| 17>   C                      0.147487             -10.878635           5.552531
| 18>   O                      -0.847567            -10.263458           6.365772
| 19>   H                      -1.074027            -9.403888            6.015301
| 20>   H                      -0.429552            -11.525158           4.836190
| 21>   H                      0.745412             -10.186834           4.917920
| 22>   H                      0.793972             -11.591896           6.171292
| 23> *
| 24>
| 25> #Run DFT-D3 single point of the molecule with dimer basis set
| 26> $new_job
| 27> %base "1-42_DFT_A"
| 28> ! wB97X-D3 def2-TZVP TIGHTSCF CHELPG PMODEL
| 29>
| 30> %scf
| 31> MaxIter 1000
| 32> end
| 33>
| 34> * xyz 0 1
| 35>   C                      -2.553089            -9.341690            7.829840
| 36>   O                      -3.202982            -9.262673            6.528423
| 37>   H                      -3.995979            -9.807772            6.501171
| 38>   H                      -1.675079            -8.720392            7.907150
| 39>   H                      -3.152298            -8.937749            8.646217
| 40>   H                      -2.217675            -10.345372           8.116701
| 41>   C                    : 0.147487             -10.878635           5.552531
| 42>   O                    : -0.847567            -10.263458           6.365772
| 43>   H                    : -1.074027            -9.403888            6.015301
| 44>   H                    : -0.429552            -11.525158           4.836190
| 45>   H                    : 0.745412             -10.186834           4.917920
| 46>   H                    : 0.793972             -11.591896           6.171292
| 47> *
| 48>
| 49> #Run DFT-D3 single point of the particle with dimer basis set
| 50> $new_job
| 51> %base "1-42_DFT_B"
| 52> ! wB97X-D3 def2-TZVP TIGHTSCF CHELPG PMODEL
| 53>
| 54> %scf
| 55> MaxIter 1000
| 56> end
| 57>
| 58> * xyz 0 1
| 59>   C                    : -2.553089            -9.341690            7.829840
| 60>   O                    : -3.202982            -9.262673            6.528423
| 61>   H                    : -3.995979            -9.807772            6.501171
| 62>   H                    : -1.675079            -8.720392            7.907150
| 63>   H                    : -3.152298            -8.937749            8.646217
| 64>   H                    : -2.217675            -10.345372           8.116701
| 65>   C                      0.147487             -10.878635           5.552531
| 66>   O                      -0.847567            -10.263458           6.365772
| 67>   H                      -1.074027            -9.403888            6.015301
| 68>   H                      -0.429552            -11.525158           4.836190
| 69>   H                      0.745412             -10.186834           4.917920
| 70>   H                      0.793972             -11.591896           6.171292
| 71> *
| 72>
| 73>                          ****END OF INPUT****
 Total Charge           Charge          ....    0
 Multiplicity           Mult            ....    1
 Number of Electrons    NEL             ....   36
Dispersion correction           -0.001828902
FINAL SINGLE POINT ENERGY      -231.454521574750
Dispersion correction           -0.000288248
FINAL SINGLE POINT ENERGY      -115.732734190408

CARTESIAN COORDINATES (ANGSTROEM)
---------------------------------
  C     -2.553089   -9.341690    7.829840
  O     -3.202982   -9.262673    6.528423
  H     -3.995979   -9.807772    6.501171
  H     -1.675079   -8.720392    7.907150
  H     -3.152298   -8.937749    8.646217
  H     -2.217675  -10.345372    8.116701
  C      0.147487  -10.878635    5.552531
  O     -0.847567  -10.263458    6.365772
  H     -1.074027   -9.403888    6.015301
  H     -0.429552  -11.525158    4.836190
  H      0.745412  -10.186834    4.917920
  H      0.793972  -11.591896    6.171292

 Multiplicity           Mult            ....    1
 Number of Electrons    NEL             ....   18
 Basis Dimension        Dim             ....  172

ORBITAL ENERGIES
----------------

  NO   OCC          E(Eh)            E(eV)
   0   2.0000     -19.231503      -523.3158
   1   2.0000     -10.326423      -280.9963
   2   2.0000      -1.134407       -30.8688
   3   2.0000      -0.790487       -21.5102
   4   2.0000      -0.611791       -16.6477
   5   2.0000      -0.530433       -14.4338
   6   2.0000      -0.525085       -14.2883
   7   2.0000      -0.438000       -11.9186
   8   2.0000      -0.369017       -10.0415
   9   0.0000       0.092269         2.5108
  10   0.0000       0.130564         3.5528
  11   0.0000       0.157884         4.2962
  12   0.0000       0.172768         4.7013
  13   0.0000       0.187021         5.0891

MULLIKEN ATOMIC CHARGES
-----------------------
   0 C :    0.014115
   1 O :   -0.004849
   2 H :   -0.001723
   3 H :   -0.013580
   4 H :   -0.001362
   5 H :   -0.011052
   6 C :   -0.189499
   7 O :   -0.443157
   8 H :    0.318144
   9 H :    0.103932
  10 H :    0.108768
  11 H :    0.120263
Sum of atomic charges:   -0.0000000

LOEWDIN ATOMIC CHARGES
----------------------
   0 C :   -0.066135
   1 O :   -0.017769
   2 H :   -0.001600
   3 H :   -0.011234
   4 H :   -0.000565
   5 H :   -0.015718
   6 C :   -0.383730
   7 O :   -0.003226
   8 H :    0.182455
   9 H :    0.102070
  10 H :    0.099492
  11 H :    0.115960

  Mayer bond orders larger than 0.1
B(  6-C ,  7-O ) :   1.0022 B(  6-C ,  9-H ) :   0.9816 B(  6-C , 10-H ) :   0.9702
B(  6-C , 11-H ) :   0.9722 B(  7-O ,  8-H ) :   0.8930

Dispersion correction           -0.000263625
FINAL SINGLE POINT ENERGY      -115.731880145262

DIPOLE MOMENT
-------------
                                X             Y             Z
Electronic contribution:     -1.14113       0.79780       1.16998
Nuclear contribution   :      1.40293      -0.48688      -1.73864
                        -----------------------------------------
Total Dipole Moment    :      0.26180       0.31092      -0.56867
                        -----------------------------------------
Magnitude (a.u.)       :      0.69900
Magnitude (Debye)      :      1.77671

Rotational constants in cm-1:     4.116344     0.817158     0.781406
Rotational constants in MHz : 123404.887114 24497.772239 23425.975096

                             ****ORCA TERMINATED NORMALLY****
TOTAL RUN TIME: 0 days 0 hours 6 minutes 16 seconds 2 msec
