                         Program Version 4.1.2  - RELEASE  -
|  1> #Run DFT-D3 single point of the dimer
|  2> ! wB97X-D3 def2-TZVP TIGHTSCF CHELPG PMODEL PAL8
|  3>
|  4> %base "3-51_DFT_AB"
|  5>
|  6> %scf
|  7> MaxIter 1000
|  8> end
|  9>
| 10> * xyz 0 1
| 11>   C                      -1.585375            -0.526504            1.034932
| 12>   O                      -1.659778            -0.611331            2.447003
| 13>   H                      -2.532319            -0.358363            2.745018
| 14>   H                      -0.888317            0.258825             0.604334
| 15>   H                      -1.291051            -1.503012            0.632394
| 16>   H                      -2.593034            -0.391837            0.618044
| 17>   C                      -2.126235            -0.360681            -2.637112
| 18>   O                      -1.117700            -1.154782            -3.243928
| 19>   H                      -0.344218            -1.171476            -2.675353
| 20>   H                      -2.847046            -0.072665            -3.423563
| 21>   H                      -2.661588            -0.937043            -1.872576
| 22>   H                      -1.636193            0.528980             -2.202952
| 23> *
| 24>
| 25> #Run DFT-D3 single point of the molecule with dimer basis set
| 26> $new_job
| 27> %base "3-51_DFT_A"
| 28> ! wB97X-D3 def2-TZVP TIGHTSCF CHELPG PMODEL
| 29>
| 30> %scf
| 31> MaxIter 1000
| 32> end
| 33>
| 34> * xyz 0 1
| 35>   C                      -1.585375            -0.526504            1.034932
| 36>   O                      -1.659778            -0.611331            2.447003
| 37>   H                      -2.532319            -0.358363            2.745018
| 38>   H                      -0.888317            0.258825             0.604334
| 39>   H                      -1.291051            -1.503012            0.632394
| 40>   H                      -2.593034            -0.391837            0.618044
| 41>   C                    : -2.126235            -0.360681            -2.637112
| 42>   O                    : -1.117700            -1.154782            -3.243928
| 43>   H                    : -0.344218            -1.171476            -2.675353
| 44>   H                    : -2.847046            -0.072665            -3.423563
| 45>   H                    : -2.661588            -0.937043            -1.872576
| 46>   H                    : -1.636193            0.528980             -2.202952
| 47> *
| 48>
| 49> #Run DFT-D3 single point of the particle with dimer basis set
| 50> $new_job
| 51> %base "3-51_DFT_B"
| 52> ! wB97X-D3 def2-TZVP TIGHTSCF CHELPG PMODEL
| 53>
| 54> %scf
| 55> MaxIter 1000
| 56> end
| 57>
| 58> * xyz 0 1
| 59>   C                    : -1.585375            -0.526504            1.034932
| 60>   O                    : -1.659778            -0.611331            2.447003
| 61>   H                    : -2.532319            -0.358363            2.745018
| 62>   H                    : -0.888317            0.258825             0.604334
| 63>   H                    : -1.291051            -1.503012            0.632394
| 64>   H                    : -2.593034            -0.391837            0.618044
| 65>   C                      -2.126235            -0.360681            -2.637112
| 66>   O                      -1.117700            -1.154782            -3.243928
| 67>   H                      -0.344218            -1.171476            -2.675353
| 68>   H                      -2.847046            -0.072665            -3.423563
| 69>   H                      -2.661588            -0.937043            -1.872576
| 70>   H                      -1.636193            0.528980             -2.202952
| 71> *
| 72>
| 73>                          ****END OF INPUT****
 Total Charge           Charge          ....    0
 Multiplicity           Mult            ....    1
 Number of Electrons    NEL             ....   36
Dispersion correction           -0.001734128
FINAL SINGLE POINT ENERGY      -231.469677908436
Dispersion correction           -0.000262640
FINAL SINGLE POINT ENERGY      -115.732744865668

CARTESIAN COORDINATES (ANGSTROEM)
---------------------------------
  C     -1.585375   -0.526504    1.034932
  O     -1.659778   -0.611331    2.447003
  H     -2.532319   -0.358363    2.745018
  H     -0.888317    0.258825    0.604334
  H     -1.291051   -1.503012    0.632394
  H     -2.593034   -0.391837    0.618044
  C     -2.126235   -0.360681   -2.637112
  O     -1.117700   -1.154782   -3.243928
  H     -0.344218   -1.171476   -2.675353
  H     -2.847046   -0.072665   -3.423563
  H     -2.661588   -0.937043   -1.872576
  H     -1.636193    0.528980   -2.202952

 Multiplicity           Mult            ....    1
 Number of Electrons    NEL             ....   18
 Basis Dimension        Dim             ....  172

ORBITAL ENERGIES
----------------

  NO   OCC          E(Eh)            E(eV)
   0   2.0000     -19.226204      -523.1716
   1   2.0000     -10.316194      -280.7179
   2   2.0000      -1.132367       -30.8133
   3   2.0000      -0.792389       -21.5620
   4   2.0000      -0.606645       -16.5076
   5   2.0000      -0.543406       -14.7868
   6   2.0000      -0.526508       -14.3270
   7   2.0000      -0.430408       -11.7120
   8   2.0000      -0.371672       -10.1137
   9   0.0000       0.076457         2.0805
  10   0.0000       0.118567         3.2264
  11   0.0000       0.154209         4.1963
  12   0.0000       0.173760         4.7283
  13   0.0000       0.180572         4.9136

MULLIKEN ATOMIC CHARGES
-----------------------
   0 C :    0.000247
   1 O :    0.000045
   2 H :    0.000027
   3 H :   -0.000381
   4 H :    0.000525
   5 H :   -0.001990
   6 C :   -0.158799
   7 O :   -0.480238
   8 H :    0.313365
   9 H :    0.123360
  10 H :    0.101921
  11 H :    0.101919
Sum of atomic charges:   -0.0000000

LOEWDIN ATOMIC CHARGES
----------------------
   0 C :   -0.005481
   1 O :   -0.000021
   2 H :   -0.000003
   3 H :   -0.000962
   4 H :   -0.000633
   5 H :   -0.003275
   6 C :   -0.375691
   7 O :   -0.086713
   8 H :    0.165752
   9 H :    0.110776
  10 H :    0.096870
  11 H :    0.099381

  Mayer bond orders larger than 0.1
B(  6-C ,  7-O ) :   0.9979 B(  6-C ,  9-H ) :   0.9704 B(  6-C , 10-H ) :   0.9722
B(  6-C , 11-H ) :   0.9844 B(  7-O ,  8-H ) :   0.9000

Dispersion correction           -0.000235215
FINAL SINGLE POINT ENERGY      -115.736159107745

DIPOLE MOMENT
-------------
                                X             Y             Z
Electronic contribution:      1.13894      -0.99571      -0.84395
Nuclear contribution   :     -1.04962       1.31039       1.43910
                        -----------------------------------------
Total Dipole Moment    :      0.08932       0.31467       0.59515
                        -----------------------------------------
Magnitude (a.u.)       :      0.67912
Magnitude (Debye)      :      1.72618

Rotational constants in cm-1:     4.167134     0.831659     0.801138
Rotational constants in MHz : 124927.536966 24932.521319 24017.505871

                             ****ORCA TERMINATED NORMALLY****
TOTAL RUN TIME: 0 days 0 hours 6 minutes 17 seconds 568 msec
