                         Program Version 4.1.2  - RELEASE  -
|  1> #Run DFT-D3 single point of the dimer
|  2> ! wB97X-D3 def2-TZVP TIGHTSCF CHELPG PMODEL PAL8
|  3>
|  4> %base "7-87_DFT_AB"
|  5>
|  6> %scf
|  7> MaxIter 1000
|  8> end
|  9>
| 10> * xyz 0 1
| 11>   C                      3.021370             9.219144             -8.876034
| 12>   O                      2.988232             10.333611            -8.053201
| 13>   H                      3.566255             11.030090            -8.396873
| 14>   H                      2.927108             8.298902             -8.306554
| 15>   H                      2.081663             9.364225             -9.548580
| 16>   H                      3.885532             9.146176             -9.495416
| 17>   C                      2.163176             6.492274             -4.981907
| 18>   O                      1.985793             5.101903             -4.804777
| 19>   H                      2.362999             4.914867             -3.969239
| 20>   H                      2.898402             6.911257             -4.360386
| 21>   H                      2.393466             6.722393             -6.010610
| 22>   H                      1.274072             6.999518             -4.632095
| 23> *
| 24>
| 25> #Run DFT-D3 single point of the molecule with dimer basis set
| 26> $new_job
| 27> %base "7-87_DFT_A"
| 28> ! wB97X-D3 def2-TZVP TIGHTSCF CHELPG PMODEL
| 29>
| 30> %scf
| 31> MaxIter 1000
| 32> end
| 33>
| 34> * xyz 0 1
| 35>   C                      3.021370             9.219144             -8.876034
| 36>   O                      2.988232             10.333611            -8.053201
| 37>   H                      3.566255             11.030090            -8.396873
| 38>   H                      2.927108             8.298902             -8.306554
| 39>   H                      2.081663             9.364225             -9.548580
| 40>   H                      3.885532             9.146176             -9.495416
| 41>   C                    : 2.163176             6.492274             -4.981907
| 42>   O                    : 1.985793             5.101903             -4.804777
| 43>   H                    : 2.362999             4.914867             -3.969239
| 44>   H                    : 2.898402             6.911257             -4.360386
| 45>   H                    : 2.393466             6.722393             -6.010610
| 46>   H                    : 1.274072             6.999518             -4.632095
| 47> *
| 48>
| 49> #Run DFT-D3 single point of the particle with dimer basis set
| 50> $new_job
| 51> %base "7-87_DFT_B"
| 52> ! wB97X-D3 def2-TZVP TIGHTSCF CHELPG PMODEL
| 53>
| 54> %scf
| 55> MaxIter 1000
| 56> end
| 57>
| 58> * xyz 0 1
| 59>   C                    : 3.021370             9.219144             -8.876034
| 60>   O                    : 2.988232             10.333611            -8.053201
| 61>   H                    : 3.566255             11.030090            -8.396873
| 62>   H                    : 2.927108             8.298902             -8.306554
| 63>   H                    : 2.081663             9.364225             -9.548580
| 64>   H                    : 3.885532             9.146176             -9.495416
| 65>   C                      2.163176             6.492274             -4.981907
| 66>   O                      1.985793             5.101903             -4.804777
| 67>   H                      2.362999             4.914867             -3.969239
| 68>   H                      2.898402             6.911257             -4.360386
| 69>   H                      2.393466             6.722393             -6.010610
| 70>   H                      1.274072             6.999518             -4.632095
| 71> *
| 72>
| 73>                          ****END OF INPUT****
 Total Charge           Charge          ....    0
 Multiplicity           Mult            ....    1
 Number of Electrons    NEL             ....   36
Dispersion correction           -0.000879102
FINAL SINGLE POINT ENERGY      -231.462598898594
Dispersion correction           -0.000235639
FINAL SINGLE POINT ENERGY      -115.730086322103

CARTESIAN COORDINATES (ANGSTROEM)
---------------------------------
  C      3.021370    9.219144   -8.876034
  O      2.988232   10.333611   -8.053201
  H      3.566255   11.030090   -8.396873
  H      2.927108    8.298902   -8.306554
  H      2.081663    9.364225   -9.548580
  H      3.885532    9.146176   -9.495416
  C      2.163176    6.492274   -4.981907
  O      1.985793    5.101903   -4.804777
  H      2.362999    4.914867   -3.969239
  H      2.898402    6.911257   -4.360386
  H      2.393466    6.722393   -6.010610
  H      1.274072    6.999518   -4.632095

 Multiplicity           Mult            ....    1
 Number of Electrons    NEL             ....   18
 Basis Dimension        Dim             ....  172

ORBITAL ENERGIES
----------------

  NO   OCC          E(Eh)            E(eV)
   0   2.0000     -19.226961      -523.1922
   1   2.0000     -10.304567      -280.4015
   2   2.0000      -1.142663       -31.0934
   3   2.0000      -0.801809       -21.8183
   4   2.0000      -0.619866       -16.8674
   5   2.0000      -0.545435       -14.8420
   6   2.0000      -0.523510       -14.2454
   7   2.0000      -0.442904       -12.0520
   8   2.0000      -0.372626       -10.1397
   9   0.0000       0.086078         2.3423
  10   0.0000       0.117201         3.1892
  11   0.0000       0.149580         4.0703
  12   0.0000       0.167784         4.5656
  13   0.0000       0.194600         5.2953

MULLIKEN ATOMIC CHARGES
-----------------------
   0 C :   -0.000252
   1 O :    0.000009
   2 H :    0.000000
   3 H :    0.000059
   4 H :   -0.000003
   5 H :    0.000015
   6 C :   -0.169514
   7 O :   -0.466008
   8 H :    0.309579
   9 H :    0.106866
  10 H :    0.119561
  11 H :    0.099689
Sum of atomic charges:   -0.0000000

LOEWDIN ATOMIC CHARGES
----------------------
   0 C :   -0.000409
   1 O :   -0.000004
   2 H :   -0.000000
   3 H :   -0.001435
   4 H :   -0.000002
   5 H :   -0.000001
   6 C :   -0.376178
   7 O :   -0.064236
   8 H :    0.154501
   9 H :    0.087657
  10 H :    0.103934
  11 H :    0.096174

  Mayer bond orders larger than 0.1
B(  6-C ,  7-O ) :   1.0057 B(  6-C ,  9-H ) :   0.9843 B(  6-C , 10-H ) :   0.9746
B(  6-C , 11-H ) :   0.9782 B(  7-O ,  8-H ) :   0.9083

Dispersion correction           -0.000221768
FINAL SINGLE POINT ENERGY      -115.731905695900

DIPOLE MOMENT
-------------
                                X             Y             Z
Electronic contribution:     -0.21800      -1.80886       0.03857
Nuclear contribution   :      0.55748       2.24982       0.45243
                        -----------------------------------------
Total Dipole Moment    :      0.33948       0.44097       0.49100
                        -----------------------------------------
Magnitude (a.u.)       :      0.74214
Magnitude (Debye)      :      1.88638

Rotational constants in cm-1:     4.469156     0.842162     0.810994
Rotational constants in MHz : 133981.912984 25247.373651 24313.000636

                             ****ORCA TERMINATED NORMALLY****
TOTAL RUN TIME: 0 days 0 hours 0 minutes 57 seconds 254 msec
