                         Program Version 4.1.2  - RELEASE  -
|  1> #Run DFT-D3 single point of the dimer
|  2> ! wB97X-D3 def2-TZVP TIGHTSCF CHELPG PMODEL PAL8
|  3>
|  4> %base "9-5_DFT_AB"
|  5>
|  6> %scf
|  7> MaxIter 1000
|  8> end
|  9>
| 10> * xyz 0 1
| 11>   C                      5.326910             4.806322             -3.533113
| 12>   O                      6.034877             3.972360             -4.447765
| 13>   H                      6.237275             3.163824             -3.960999
| 14>   H                      6.014065             5.326131             -2.833834
| 15>   H                      4.817935             5.581777             -4.157801
| 16>   H                      4.623172             4.233674             -2.922331
| 17>   C                      7.155457             7.048348             -5.245436
| 18>   O                      8.111682             7.607375             -6.051942
| 19>   H                      8.181568             6.976840             -6.746608
| 20>   H                      7.198763             7.493300             -4.269922
| 21>   H                      6.164159             7.136600             -5.741470
| 22>   H                      7.250105             5.976703             -5.032908
| 23> *
| 24>
| 25> #Run DFT-D3 single point of the molecule with dimer basis set
| 26> $new_job
| 27> %base "9-5_DFT_A"
| 28> ! wB97X-D3 def2-TZVP TIGHTSCF CHELPG PMODEL
| 29>
| 30> %scf
| 31> MaxIter 1000
| 32> end
| 33>
| 34> * xyz 0 1
| 35>   C                      5.326910             4.806322             -3.533113
| 36>   O                      6.034877             3.972360             -4.447765
| 37>   H                      6.237275             3.163824             -3.960999
| 38>   H                      6.014065             5.326131             -2.833834
| 39>   H                      4.817935             5.581777             -4.157801
| 40>   H                      4.623172             4.233674             -2.922331
| 41>   C                    : 7.155457             7.048348             -5.245436
| 42>   O                    : 8.111682             7.607375             -6.051942
| 43>   H                    : 8.181568             6.976840             -6.746608
| 44>   H                    : 7.198763             7.493300             -4.269922
| 45>   H                    : 6.164159             7.136600             -5.741470
| 46>   H                    : 7.250105             5.976703             -5.032908
| 47> *
| 48>
| 49> #Run DFT-D3 single point of the particle with dimer basis set
| 50> $new_job
| 51> %base "9-5_DFT_B"
| 52> ! wB97X-D3 def2-TZVP TIGHTSCF CHELPG PMODEL
| 53>
| 54> %scf
| 55> MaxIter 1000
| 56> end
| 57>
| 58> * xyz 0 1
| 59>   C                    : 5.326910             4.806322             -3.533113
| 60>   O                    : 6.034877             3.972360             -4.447765
| 61>   H                    : 6.237275             3.163824             -3.960999
| 62>   H                    : 6.014065             5.326131             -2.833834
| 63>   H                    : 4.817935             5.581777             -4.157801
| 64>   H                    : 4.623172             4.233674             -2.922331
| 65>   C                      7.155457             7.048348             -5.245436
| 66>   O                      8.111682             7.607375             -6.051942
| 67>   H                      8.181568             6.976840             -6.746608
| 68>   H                      7.198763             7.493300             -4.269922
| 69>   H                      6.164159             7.136600             -5.741470
| 70>   H                      7.250105             5.976703             -5.032908
| 71> *
| 72>
| 73>                          ****END OF INPUT****
 Total Charge           Charge          ....    0
 Multiplicity           Mult            ....    1
 Number of Electrons    NEL             ....   36
Dispersion correction           -0.001965959
FINAL SINGLE POINT ENERGY      -231.469505011042
Dispersion correction           -0.000242129
FINAL SINGLE POINT ENERGY      -115.736095018814

CARTESIAN COORDINATES (ANGSTROEM)
---------------------------------
  C      5.326910    4.806322   -3.533113
  O      6.034877    3.972360   -4.447765
  H      6.237275    3.163824   -3.960999
  H      6.014065    5.326131   -2.833834
  H      4.817935    5.581777   -4.157801
  H      4.623172    4.233674   -2.922331
  C      7.155457    7.048348   -5.245436
  O      8.111682    7.607375   -6.051942
  H      8.181568    6.976840   -6.746608
  H      7.198763    7.493300   -4.269922
  H      6.164159    7.136600   -5.741470
  H      7.250105    5.976703   -5.032908

 Multiplicity           Mult            ....    1
 Number of Electrons    NEL             ....   18
 Basis Dimension        Dim             ....  172

ORBITAL ENERGIES
----------------

  NO   OCC          E(Eh)            E(eV)
   0   2.0000     -19.231627      -523.3192
   1   2.0000     -10.309018      -280.5226
   2   2.0000      -1.159941       -31.5636
   3   2.0000      -0.793690       -21.5974
   4   2.0000      -0.624457       -16.9923
   5   2.0000      -0.551908       -15.0182
   6   2.0000      -0.526583       -14.3290
   7   2.0000      -0.440060       -11.9747
   8   2.0000      -0.371506       -10.1092
   9   0.0000       0.082517         2.2454
  10   0.0000       0.118079         3.2131
  11   0.0000       0.153713         4.1828
  12   0.0000       0.173261         4.7147
  13   0.0000       0.185260         5.0412

MULLIKEN ATOMIC CHARGES
-----------------------
   0 C :   -0.003043
   1 O :    0.001865
   2 H :   -0.000047
   3 H :   -0.001012
   4 H :   -0.001441
   5 H :   -0.000231
   6 C :   -0.166420
   7 O :   -0.449634
   8 H :    0.312309
   9 H :    0.121026
  10 H :    0.094350
  11 H :    0.092278
Sum of atomic charges:   -0.0000000

LOEWDIN ATOMIC CHARGES
----------------------
   0 C :   -0.013311
   1 O :   -0.007170
   2 H :   -0.000476
   3 H :   -0.002112
   4 H :   -0.003361
   5 H :   -0.000150
   6 C :   -0.419072
   7 O :   -0.027933
   8 H :    0.164646
   9 H :    0.106410
  10 H :    0.099828
  11 H :    0.102703

  Mayer bond orders larger than 0.1
B(  6-C ,  7-O ) :   1.0090 B(  6-C ,  9-H ) :   0.9691 B(  6-C , 10-H ) :   0.9802
B(  6-C , 11-H ) :   0.9771 B(  7-O ,  8-H ) :   0.9056

Dispersion correction           -0.000208225
FINAL SINGLE POINT ENERGY      -115.731525691970

DIPOLE MOMENT
-------------
                                X             Y             Z
Electronic contribution:      1.37464       0.93900      -0.97776
Nuclear contribution   :     -1.64306      -1.54330       0.84200
                        -----------------------------------------
Total Dipole Moment    :     -0.26843      -0.60431      -0.13575
                        -----------------------------------------
Magnitude (a.u.)       :      0.67503
Magnitude (Debye)      :      1.71579

Rotational constants in cm-1:     4.325455     0.880199     0.846485
Rotational constants in MHz : 129673.886554 26387.708141 25376.987483

                             ****ORCA TERMINATED NORMALLY****
TOTAL RUN TIME: 0 days 0 hours 0 minutes 48 seconds 44 msec
