                         Program Version 4.1.2  - RELEASE  -
|  1> #Run DFT-D3 single point of the dimer
|  2> ! wB97X-D3 def2-TZVP TIGHTSCF CHELPG PMODEL PAL8
|  3>
|  4> %base "18-55_DFT_AB"
|  5>
|  6> %scf
|  7> MaxIter 1000
|  8> end
|  9>
| 10> * xyz 0 1
| 11>   C                      1.360282             -4.777872            -0.154041
| 12>   O                      0.112124             -4.454516            0.466890
| 13>   H                      0.255263             -3.645348            0.929075
| 14>   H                      1.579164             -4.006664            -0.829384
| 15>   H                      2.089112             -4.804114            0.602860
| 16>   H                      1.466500             -5.741228            -0.685839
| 17>   C                      1.842494             -5.490414            4.222264
| 18>   O                      0.779058             -4.891262            4.888618
| 19>   H                      0.293986             -5.565972            5.331256
| 20>   H                      2.573357             -4.701865            3.988026
| 21>   H                      2.324572             -6.211238            4.978611
| 22>   H                      1.640042             -6.048494            3.297003
| 23> *
| 24>
| 25> #Run DFT-D3 single point of the molecule with dimer basis set
| 26> $new_job
| 27> %base "18-55_DFT_A"
| 28> ! wB97X-D3 def2-TZVP TIGHTSCF CHELPG PMODEL
| 29>
| 30> %scf
| 31> MaxIter 1000
| 32> end
| 33>
| 34> * xyz 0 1
| 35>   C                      1.360282             -4.777872            -0.154041
| 36>   O                      0.112124             -4.454516            0.466890
| 37>   H                      0.255263             -3.645348            0.929075
| 38>   H                      1.579164             -4.006664            -0.829384
| 39>   H                      2.089112             -4.804114            0.602860
| 40>   H                      1.466500             -5.741228            -0.685839
| 41>   C                    : 1.842494             -5.490414            4.222264
| 42>   O                    : 0.779058             -4.891262            4.888618
| 43>   H                    : 0.293986             -5.565972            5.331256
| 44>   H                    : 2.573357             -4.701865            3.988026
| 45>   H                    : 2.324572             -6.211238            4.978611
| 46>   H                    : 1.640042             -6.048494            3.297003
| 47> *
| 48>
| 49> #Run DFT-D3 single point of the particle with dimer basis set
| 50> $new_job
| 51> %base "18-55_DFT_B"
| 52> ! wB97X-D3 def2-TZVP TIGHTSCF CHELPG PMODEL
| 53>
| 54> %scf
| 55> MaxIter 1000
| 56> end
| 57>
| 58> * xyz 0 1
| 59>   C                    : 1.360282             -4.777872            -0.154041
| 60>   O                    : 0.112124             -4.454516            0.466890
| 61>   H                    : 0.255263             -3.645348            0.929075
| 62>   H                    : 1.579164             -4.006664            -0.829384
| 63>   H                    : 2.089112             -4.804114            0.602860
| 64>   H                    : 1.466500             -5.741228            -0.685839
| 65>   C                      1.842494             -5.490414            4.222264
| 66>   O                      0.779058             -4.891262            4.888618
| 67>   H                      0.293986             -5.565972            5.331256
| 68>   H                      2.573357             -4.701865            3.988026
| 69>   H                      2.324572             -6.211238            4.978611
| 70>   H                      1.640042             -6.048494            3.297003
| 71> *
| 72>
| 73>                          ****END OF INPUT****
 Total Charge           Charge          ....    0
 Multiplicity           Mult            ....    1
 Number of Electrons    NEL             ....   36
Dispersion correction           -0.001244132
FINAL SINGLE POINT ENERGY      -231.462616847134
Dispersion correction           -0.000217386
FINAL SINGLE POINT ENERGY      -115.728665126483

CARTESIAN COORDINATES (ANGSTROEM)
---------------------------------
  C      1.360282   -4.777872   -0.154041
  O      0.112124   -4.454516    0.466890
  H      0.255263   -3.645348    0.929075
  H      1.579164   -4.006664   -0.829384
  H      2.089112   -4.804114    0.602860
  H      1.466500   -5.741228   -0.685839
  C      1.842494   -5.490414    4.222264
  O      0.779058   -4.891262    4.888618
  H      0.293986   -5.565972    5.331256
  H      2.573357   -4.701865    3.988026
  H      2.324572   -6.211238    4.978611
  H      1.640042   -6.048494    3.297003

 Multiplicity           Mult            ....    1
 Number of Electrons    NEL             ....   18
 Basis Dimension        Dim             ....  172

ORBITAL ENERGIES
----------------

  NO   OCC          E(Eh)            E(eV)
   0   2.0000     -19.229821      -523.2700
   1   2.0000     -10.318737      -280.7871
   2   2.0000      -1.148657       -31.2565
   3   2.0000      -0.791830       -21.5468
   4   2.0000      -0.616644       -16.7797
   5   2.0000      -0.542052       -14.7500
   6   2.0000      -0.530181       -14.4270
   7   2.0000      -0.430228       -11.7071
   8   2.0000      -0.372817       -10.1449
   9   0.0000       0.086567         2.3556
  10   0.0000       0.117552         3.1987
  11   0.0000       0.154981         4.2173
  12   0.0000       0.167604         4.5607
  13   0.0000       0.186493         5.0747

MULLIKEN ATOMIC CHARGES
-----------------------
   0 C :    0.000512
   1 O :    0.000137
   2 H :   -0.000050
   3 H :   -0.000027
   4 H :   -0.000830
   5 H :   -0.000166
   6 C :   -0.168248
   7 O :   -0.462742
   8 H :    0.314149
   9 H :    0.119617
  10 H :    0.095107
  11 H :    0.102540
Sum of atomic charges:    0.0000000

LOEWDIN ATOMIC CHARGES
----------------------
   0 C :   -0.000985
   1 O :   -0.000055
   2 H :   -0.000128
   3 H :   -0.000013
   4 H :   -0.000880
   5 H :   -0.000033
   6 C :   -0.409774
   7 O :   -0.051382
   8 H :    0.158835
   9 H :    0.109513
  10 H :    0.102915
  11 H :    0.091986

  Mayer bond orders larger than 0.1
B(  6-C ,  7-O ) :   1.0010 B(  6-C ,  9-H ) :   0.9747 B(  6-C , 10-H ) :   0.9882
B(  6-C , 11-H ) :   0.9586 B(  7-O ,  8-H ) :   0.9023

Dispersion correction           -0.000239286
FINAL SINGLE POINT ENERGY      -115.732785806345

DIPOLE MOMENT
-------------
                                X             Y             Z
Electronic contribution:     -1.45819       0.94337       0.70012
Nuclear contribution   :      1.54378      -1.58209      -0.66512
                        -----------------------------------------
Total Dipole Moment    :      0.08559      -0.63872       0.03501
                        -----------------------------------------
Magnitude (a.u.)       :      0.64538
Magnitude (Debye)      :      1.64043

Rotational constants in cm-1:     4.197801     0.851576     0.820052
Rotational constants in MHz : 125846.906076 25529.598222 24584.550561

                             ****ORCA TERMINATED NORMALLY****
TOTAL RUN TIME: 0 days 0 hours 0 minutes 53 seconds 580 msec
