                         Program Version 4.1.2  - RELEASE  -
|  1> #Run DFT-D3 single point of the dimer
|  2> ! wB97X-D3 def2-TZVP TIGHTSCF CHELPG PMODEL PAL8
|  3>
|  4> %base "15-54_DFT_AB"
|  5>
|  6> %scf
|  7> MaxIter 1000
|  8> end
|  9>
| 10> * xyz 0 1
| 11>   C                      6.149197             0.279348             -9.433511
| 12>   O                      5.689921             -0.889510            -10.169131
| 13>   H                      5.935280             -1.668389            -9.656727
| 14>   H                      7.211657             0.500550             -9.393534
| 15>   H                      5.712407             1.245952             -9.815995
| 16>   H                      5.875382             0.154037             -8.369263
| 17>   C                      5.769253             2.723060             -5.358341
| 18>   O                      4.814784             3.262569             -6.303090
| 19>   H                      4.560570             4.189452             -6.048641
| 20>   H                      5.512399             1.716891             -5.023752
| 21>   H                      6.764949             2.673232             -5.826764
| 22>   H                      5.846086             3.305604             -4.359895
| 23> *
| 24>
| 25> #Run DFT-D3 single point of the molecule with dimer basis set
| 26> $new_job
| 27> %base "15-54_DFT_A"
| 28> ! wB97X-D3 def2-TZVP TIGHTSCF CHELPG PMODEL
| 29>
| 30> %scf
| 31> MaxIter 1000
| 32> end
| 33>
| 34> * xyz 0 1
| 35>   C                      6.149197             0.279348             -9.433511
| 36>   O                      5.689921             -0.889510            -10.169131
| 37>   H                      5.935280             -1.668389            -9.656727
| 38>   H                      7.211657             0.500550             -9.393534
| 39>   H                      5.712407             1.245952             -9.815995
| 40>   H                      5.875382             0.154037             -8.369263
| 41>   C                    : 5.769253             2.723060             -5.358341
| 42>   O                    : 4.814784             3.262569             -6.303090
| 43>   H                    : 4.560570             4.189452             -6.048641
| 44>   H                    : 5.512399             1.716891             -5.023752
| 45>   H                    : 6.764949             2.673232             -5.826764
| 46>   H                    : 5.846086             3.305604             -4.359895
| 47> *
| 48>
| 49> #Run DFT-D3 single point of the particle with dimer basis set
| 50> $new_job
| 51> %base "15-54_DFT_B"
| 52> ! wB97X-D3 def2-TZVP TIGHTSCF CHELPG PMODEL
| 53>
| 54> %scf
| 55> MaxIter 1000
| 56> end
| 57>
| 58> * xyz 0 1
| 59>   C                    : 6.149197             0.279348             -9.433511
| 60>   O                    : 5.689921             -0.889510            -10.169131
| 61>   H                    : 5.935280             -1.668389            -9.656727
| 62>   H                    : 7.211657             0.500550             -9.393534
| 63>   H                    : 5.712407             1.245952             -9.815995
| 64>   H                    : 5.875382             0.154037             -8.369263
| 65>   C                      5.769253             2.723060             -5.358341
| 66>   O                      4.814784             3.262569             -6.303090
| 67>   H                      4.560570             4.189452             -6.048641
| 68>   H                      5.512399             1.716891             -5.023752
| 69>   H                      6.764949             2.673232             -5.826764
| 70>   H                      5.846086             3.305604             -4.359895
| 71> *
| 72>
| 73>                          ****END OF INPUT****
 Total Charge           Charge          ....    0
 Multiplicity           Mult            ....    1
 Number of Electrons    NEL             ....   36
Dispersion correction           -0.001038606
FINAL SINGLE POINT ENERGY      -231.461590410616
Dispersion correction           -0.000278538
FINAL SINGLE POINT ENERGY      -115.730559722495

CARTESIAN COORDINATES (ANGSTROEM)
---------------------------------
  C      6.149197    0.279348   -9.433511
  O      5.689921   -0.889510  -10.169131
  H      5.935280   -1.668389   -9.656727
  H      7.211657    0.500550   -9.393534
  H      5.712407    1.245952   -9.815995
  H      5.875382    0.154037   -8.369263
  C      5.769253    2.723060   -5.358341
  O      4.814784    3.262569   -6.303090
  H      4.560570    4.189452   -6.048641
  H      5.512399    1.716891   -5.023752
  H      6.764949    2.673232   -5.826764
  H      5.846086    3.305604   -4.359895

 Multiplicity           Mult            ....    1
 Number of Electrons    NEL             ....   18
 Basis Dimension        Dim             ....  172

ORBITAL ENERGIES
----------------

  NO   OCC          E(Eh)            E(eV)
   0   2.0000     -19.234456      -523.3962
   1   2.0000     -10.323564      -280.9185
   2   2.0000      -1.119140       -30.4533
   3   2.0000      -0.791205       -21.5298
   4   2.0000      -0.599605       -16.3161
   5   2.0000      -0.536209       -14.5910
   6   2.0000      -0.519521       -14.1369
   7   2.0000      -0.428427       -11.6581
   8   2.0000      -0.375018       -10.2048
   9   0.0000       0.090342         2.4583
  10   0.0000       0.111822         3.0428
  11   0.0000       0.144220         3.9244
  12   0.0000       0.167647         4.5619
  13   0.0000       0.188573         5.1313

MULLIKEN ATOMIC CHARGES
-----------------------
   0 C :   -0.000309
   1 O :    0.000001
   2 H :    0.000001
   3 H :   -0.000074
   4 H :   -0.000376
   5 H :    0.000465
   6 C :   -0.174689
   7 O :   -0.486176
   8 H :    0.322901
   9 H :    0.116499
  10 H :    0.115586
  11 H :    0.106171
Sum of atomic charges:   -0.0000000

LOEWDIN ATOMIC CHARGES
----------------------
   0 C :   -0.000311
   1 O :   -0.000005
   2 H :   -0.000001
   3 H :   -0.000021
   4 H :   -0.000193
   5 H :   -0.000101
   6 C :   -0.375588
   7 O :   -0.118088
   8 H :    0.187143
   9 H :    0.100106
  10 H :    0.099740
  11 H :    0.107318

  Mayer bond orders larger than 0.1
B(  6-C ,  7-O ) :   1.0007 B(  6-C ,  9-H ) :   0.9715 B(  6-C , 10-H ) :   0.9752
B(  6-C , 11-H ) :   0.9754 B(  7-O ,  8-H ) :   0.8910

Dispersion correction           -0.000291893
FINAL SINGLE POINT ENERGY      -115.730381297366

DIPOLE MOMENT
-------------
                                X             Y             Z
Electronic contribution:     -1.23921       0.55308      -1.34559
Nuclear contribution   :      1.45926      -0.19306       1.90613
                        -----------------------------------------
Total Dipole Moment    :      0.22005       0.36003       0.56054
                        -----------------------------------------
Magnitude (a.u.)       :      0.70160
Magnitude (Debye)      :      1.78332

Rotational constants in cm-1:     4.193776     0.784997     0.756643
Rotational constants in MHz : 125726.238144 23533.621577 22683.592394

                             ****ORCA TERMINATED NORMALLY****
TOTAL RUN TIME: 0 days 0 hours 0 minutes 50 seconds 359 msec
