                         Program Version 4.1.2  - RELEASE  -
|  1> #Run DFT-D3 single point of the dimer
|  2> ! wB97X-D3 def2-TZVP TIGHTSCF CHELPG PMODEL PAL8
|  3>
|  4> %base "16-74_DFT_AB"
|  5>
|  6> %scf
|  7> MaxIter 1000
|  8> end
|  9>
| 10> * xyz 0 1
| 11>   C                      1.882657             -5.473259            -4.311445
| 12>   O                      1.200089             -6.616802            -4.829966
| 13>   H                      0.588911             -6.281126            -5.540718
| 14>   H                      2.877696             -5.712606            -3.843402
| 15>   H                      2.170245             -4.752331            -5.142988
| 16>   H                      1.250145             -4.869591            -3.657311
| 17>   C                      -2.136062            -3.976692            -3.231994
| 18>   O                      -1.963163            -2.728974            -2.551263
| 19>   H                      -1.692615            -3.045034            -1.701151
| 20>   H                      -2.998761            -4.552751            -2.801274
| 21>   H                      -2.348486            -3.805273            -4.315481
| 22>   H                      -1.170440            -4.457272            -3.288040
| 23> *
| 24>
| 25> #Run DFT-D3 single point of the molecule with dimer basis set
| 26> $new_job
| 27> %base "16-74_DFT_A"
| 28> ! wB97X-D3 def2-TZVP TIGHTSCF CHELPG PMODEL
| 29>
| 30> %scf
| 31> MaxIter 1000
| 32> end
| 33>
| 34> * xyz 0 1
| 35>   C                      1.882657             -5.473259            -4.311445
| 36>   O                      1.200089             -6.616802            -4.829966
| 37>   H                      0.588911             -6.281126            -5.540718
| 38>   H                      2.877696             -5.712606            -3.843402
| 39>   H                      2.170245             -4.752331            -5.142988
| 40>   H                      1.250145             -4.869591            -3.657311
| 41>   C                    : -2.136062            -3.976692            -3.231994
| 42>   O                    : -1.963163            -2.728974            -2.551263
| 43>   H                    : -1.692615            -3.045034            -1.701151
| 44>   H                    : -2.998761            -4.552751            -2.801274
| 45>   H                    : -2.348486            -3.805273            -4.315481
| 46>   H                    : -1.170440            -4.457272            -3.288040
| 47> *
| 48>
| 49> #Run DFT-D3 single point of the particle with dimer basis set
| 50> $new_job
| 51> %base "16-74_DFT_B"
| 52> ! wB97X-D3 def2-TZVP TIGHTSCF CHELPG PMODEL
| 53>
| 54> %scf
| 55> MaxIter 1000
| 56> end
| 57>
| 58> * xyz 0 1
| 59>   C                    : 1.882657             -5.473259            -4.311445
| 60>   O                    : 1.200089             -6.616802            -4.829966
| 61>   H                    : 0.588911             -6.281126            -5.540718
| 62>   H                    : 2.877696             -5.712606            -3.843402
| 63>   H                    : 2.170245             -4.752331            -5.142988
| 64>   H                    : 1.250145             -4.869591            -3.657311
| 65>   C                      -2.136062            -3.976692            -3.231994
| 66>   O                      -1.963163            -2.728974            -2.551263
| 67>   H                      -1.692615            -3.045034            -1.701151
| 68>   H                      -2.998761            -4.552751            -2.801274
| 69>   H                      -2.348486            -3.805273            -4.315481
| 70>   H                      -1.170440            -4.457272            -3.288040
| 71> *
| 72>
| 73>                          ****END OF INPUT****
 Total Charge           Charge          ....    0
 Multiplicity           Mult            ....    1
 Number of Electrons    NEL             ....   36
Dispersion correction           -0.001256247
FINAL SINGLE POINT ENERGY      -231.462976327108
Dispersion correction           -0.000260539
FINAL SINGLE POINT ENERGY      -115.731343889858

CARTESIAN COORDINATES (ANGSTROEM)
---------------------------------
  C      1.882657   -5.473259   -4.311445
  O      1.200089   -6.616802   -4.829966
  H      0.588911   -6.281126   -5.540718
  H      2.877696   -5.712606   -3.843402
  H      2.170245   -4.752331   -5.142988
  H      1.250145   -4.869591   -3.657311
  C     -2.136062   -3.976692   -3.231994
  O     -1.963163   -2.728974   -2.551263
  H     -1.692615   -3.045034   -1.701151
  H     -2.998761   -4.552751   -2.801274
  H     -2.348486   -3.805273   -4.315481
  H     -1.170440   -4.457272   -3.288040

 Multiplicity           Mult            ....    1
 Number of Electrons    NEL             ....   18
 Basis Dimension        Dim             ....  172

ORBITAL ENERGIES
----------------

  NO   OCC          E(Eh)            E(eV)
   0   2.0000     -19.229971      -523.2741
   1   2.0000     -10.318470      -280.7798
   2   2.0000      -1.138908       -30.9913
   3   2.0000      -0.790743       -21.5172
   4   2.0000      -0.600625       -16.3438
   5   2.0000      -0.554190       -15.0803
   6   2.0000      -0.521027       -14.1779
   7   2.0000      -0.432901       -11.7798
   8   2.0000      -0.377769       -10.2796
   9   0.0000       0.082473         2.2442
  10   0.0000       0.120124         3.2687
  11   0.0000       0.147614         4.0168
  12   0.0000       0.173927         4.7328
  13   0.0000       0.187694         5.1074

MULLIKEN ATOMIC CHARGES
-----------------------
   0 C :   -0.003738
   1 O :    0.000096
   2 H :   -0.000078
   3 H :    0.000130
   4 H :    0.000093
   5 H :    0.005443
   6 C :   -0.188189
   7 O :   -0.463468
   8 H :    0.312128
   9 H :    0.113340
  10 H :    0.115486
  11 H :    0.108757
Sum of atomic charges:    0.0000000

LOEWDIN ATOMIC CHARGES
----------------------
   0 C :   -0.001941
   1 O :   -0.000092
   2 H :   -0.000219
   3 H :   -0.000010
   4 H :   -0.000018
   5 H :   -0.002487
   6 C :   -0.384316
   7 O :   -0.084784
   8 H :    0.161769
   9 H :    0.103155
  10 H :    0.112710
  11 H :    0.096233

  Mayer bond orders larger than 0.1
B(  6-C ,  7-O ) :   0.9954 B(  6-C ,  9-H ) :   0.9757 B(  6-C , 10-H ) :   0.9727
B(  6-C , 11-H ) :   0.9759 B(  7-O ,  8-H ) :   0.9065

Dispersion correction           -0.000226318
FINAL SINGLE POINT ENERGY      -115.730863425548

DIPOLE MOMENT
-------------
                                X             Y             Z
Electronic contribution:      0.16252       1.61712       0.82626
Nuclear contribution   :     -0.04897      -2.29064      -0.59672
                        -----------------------------------------
Total Dipole Moment    :      0.11355      -0.67352       0.22954
                        -----------------------------------------
Magnitude (a.u.)       :      0.72056
Magnitude (Debye)      :      1.83152

Rotational constants in cm-1:     4.139169     0.819019     0.800374
Rotational constants in MHz : 124089.172688 24553.573064 23994.607454

                             ****ORCA TERMINATED NORMALLY****
TOTAL RUN TIME: 0 days 0 hours 0 minutes 59 seconds 185 msec
