                         Program Version 4.1.2  - RELEASE  -
|  1> #Run DFT-D3 single point of the dimer
|  2> ! wB97X-D3 def2-TZVP TIGHTSCF CHELPG PMODEL PAL8
|  3>
|  4> %base "4-18_DFT_AB"
|  5>
|  6> %scf
|  7> MaxIter 1000
|  8> end
|  9>
| 10> * xyz 0 1
| 11>   C                      -3.440480            1.608124             -5.363870
| 12>   O                      -4.023051            1.698251             -6.686188
| 13>   H                      -4.350094            0.892071             -7.073146
| 14>   H                      -4.299878            1.217766             -4.707092
| 15>   H                      -2.598717            0.960056             -5.139841
| 16>   H                      -3.210669            2.597576             -4.898620
| 17>   C                      -3.083535            -0.036181            -1.632068
| 18>   O                      -2.170263            -0.152564            -2.684207
| 19>   H                      -2.682957            -0.716666            -3.265436
| 20>   H                      -4.043141            0.216827             -1.945819
| 21>   H                      -3.099565            -0.922506            -1.014812
| 22>   H                      -2.800930            0.780589             -0.955522
| 23> *
| 24>
| 25> #Run DFT-D3 single point of the molecule with dimer basis set
| 26> $new_job
| 27> %base "4-18_DFT_A"
| 28> ! wB97X-D3 def2-TZVP TIGHTSCF CHELPG PMODEL
| 29>
| 30> %scf
| 31> MaxIter 1000
| 32> end
| 33>
| 34> * xyz 0 1
| 35>   C                      -3.440480            1.608124             -5.363870
| 36>   O                      -4.023051            1.698251             -6.686188
| 37>   H                      -4.350094            0.892071             -7.073146
| 38>   H                      -4.299878            1.217766             -4.707092
| 39>   H                      -2.598717            0.960056             -5.139841
| 40>   H                      -3.210669            2.597576             -4.898620
| 41>   C                    : -3.083535            -0.036181            -1.632068
| 42>   O                    : -2.170263            -0.152564            -2.684207
| 43>   H                    : -2.682957            -0.716666            -3.265436
| 44>   H                    : -4.043141            0.216827             -1.945819
| 45>   H                    : -3.099565            -0.922506            -1.014812
| 46>   H                    : -2.800930            0.780589             -0.955522
| 47> *
| 48>
| 49> #Run DFT-D3 single point of the particle with dimer basis set
| 50> $new_job
| 51> %base "4-18_DFT_B"
| 52> ! wB97X-D3 def2-TZVP TIGHTSCF CHELPG PMODEL
| 53>
| 54> %scf
| 55> MaxIter 1000
| 56> end
| 57>
| 58> * xyz 0 1
| 59>   C                    : -3.440480            1.608124             -5.363870
| 60>   O                    : -4.023051            1.698251             -6.686188
| 61>   H                    : -4.350094            0.892071             -7.073146
| 62>   H                    : -4.299878            1.217766             -4.707092
| 63>   H                    : -2.598717            0.960056             -5.139841
| 64>   H                    : -3.210669            2.597576             -4.898620
| 65>   C                      -3.083535            -0.036181            -1.632068
| 66>   O                      -2.170263            -0.152564            -2.684207
| 67>   H                      -2.682957            -0.716666            -3.265436
| 68>   H                      -4.043141            0.216827             -1.945819
| 69>   H                      -3.099565            -0.922506            -1.014812
| 70>   H                      -2.800930            0.780589             -0.955522
| 71> *
| 72>
| 73>                          ****END OF INPUT****
 Total Charge           Charge          ....    0
 Multiplicity           Mult            ....    1
 Number of Electrons    NEL             ....   36
Dispersion correction           -0.001777027
FINAL SINGLE POINT ENERGY      -231.457654318411
Dispersion correction           -0.000299515
FINAL SINGLE POINT ENERGY      -115.724270888737

CARTESIAN COORDINATES (ANGSTROEM)
---------------------------------
  C     -3.440480    1.608124   -5.363870
  O     -4.023051    1.698251   -6.686188
  H     -4.350094    0.892071   -7.073146
  H     -4.299878    1.217766   -4.707092
  H     -2.598717    0.960056   -5.139841
  H     -3.210669    2.597576   -4.898620
  C     -3.083535   -0.036181   -1.632068
  O     -2.170263   -0.152564   -2.684207
  H     -2.682957   -0.716666   -3.265436
  H     -4.043141    0.216827   -1.945819
  H     -3.099565   -0.922506   -1.014812
  H     -2.800930    0.780589   -0.955522

 Multiplicity           Mult            ....    1
 Number of Electrons    NEL             ....   18
 Basis Dimension        Dim             ....  172

ORBITAL ENERGIES
----------------

  NO   OCC          E(Eh)            E(eV)
   0   2.0000     -19.234323      -523.3925
   1   2.0000     -10.304467      -280.3988
   2   2.0000      -1.149031       -31.2667
   3   2.0000      -0.797542       -21.7022
   4   2.0000      -0.615421       -16.7465
   5   2.0000      -0.553351       -15.0574
   6   2.0000      -0.527793       -14.3620
   7   2.0000      -0.440397       -11.9838
   8   2.0000      -0.377371       -10.2688
   9   0.0000       0.082732         2.2513
  10   0.0000       0.129166         3.5148
  11   0.0000       0.155315         4.2263
  12   0.0000       0.167591         4.5604
  13   0.0000       0.189178         5.1478

MULLIKEN ATOMIC CHARGES
-----------------------
   0 C :   -0.001802
   1 O :   -0.000101
   2 H :   -0.000018
   3 H :   -0.001112
   4 H :   -0.005801
   5 H :   -0.000924
   6 C :   -0.180814
   7 O :   -0.450348
   8 H :    0.316130
   9 H :    0.106790
  10 H :    0.105487
  11 H :    0.112512
Sum of atomic charges:    0.0000000

LOEWDIN ATOMIC CHARGES
----------------------
   0 C :   -0.008392
   1 O :   -0.000047
   2 H :   -0.000013
   3 H :   -0.001235
   4 H :   -0.007263
   5 H :   -0.000394
   6 C :   -0.398640
   7 O :   -0.047817
   8 H :    0.176331
   9 H :    0.083442
  10 H :    0.093755
  11 H :    0.110274

  Mayer bond orders larger than 0.1
B(  6-C ,  7-O ) :   1.0030 B(  6-C ,  9-H ) :   0.9790 B(  6-C , 10-H ) :   0.9792
B(  6-C , 11-H ) :   0.9773 B(  7-O ,  8-H ) :   0.9020

Dispersion correction           -0.000207451
FINAL SINGLE POINT ENERGY      -115.731984086643

DIPOLE MOMENT
-------------
                                X             Y             Z
Electronic contribution:      1.27379      -0.09925      -1.37329
Nuclear contribution   :     -1.94422      -0.19018       1.42819
                        -----------------------------------------
Total Dipole Moment    :     -0.67042      -0.28943       0.05490
                        -----------------------------------------
Magnitude (a.u.)       :      0.73229
Magnitude (Debye)      :      1.86134

Rotational constants in cm-1:     4.412419     0.856303     0.826464
Rotational constants in MHz : 132281.002617 25671.326707 24776.758048

                             ****ORCA TERMINATED NORMALLY****
TOTAL RUN TIME: 0 days 0 hours 1 minutes 34 seconds 246 msec
