                         Program Version 4.1.2  - RELEASE  -
|  1> #Run DFT-D3 single point of the dimer
|  2> ! wB97X-D3 def2-TZVP TIGHTSCF CHELPG PMODEL PAL8
|  3>
|  4> %base "17-84_DFT_AB"
|  5>
|  6> %scf
|  7> MaxIter 1000
|  8> end
|  9>
| 10> * xyz 0 1
| 11>   C                      -5.201214            2.513529             -9.631531
| 12>   O                      -4.515403            1.567229             -8.775223
| 13>   H                      -3.611690            1.885344             -8.810768
| 14>   H                      -5.769243            3.251244             -9.067049
| 15>   H                      -4.640554            2.954154             -10.383649
| 16>   H                      -6.017593            1.996925             -10.226665
| 17>   C                      -3.203362            6.192710             -9.145522
| 18>   O                      -3.831210            7.290211             -9.826184
| 19>   H                      -3.923112            7.162933             -10.773128
| 20>   H                      -3.149242            6.536447             -8.116004
| 21>   H                      -3.900862            5.323204             -9.227978
| 22>   H                      -2.193706            6.016158             -9.562401
| 23> *
| 24>
| 25> #Run DFT-D3 single point of the molecule with dimer basis set
| 26> $new_job
| 27> %base "17-84_DFT_A"
| 28> ! wB97X-D3 def2-TZVP TIGHTSCF CHELPG PMODEL
| 29>
| 30> %scf
| 31> MaxIter 1000
| 32> end
| 33>
| 34> * xyz 0 1
| 35>   C                      -5.201214            2.513529             -9.631531
| 36>   O                      -4.515403            1.567229             -8.775223
| 37>   H                      -3.611690            1.885344             -8.810768
| 38>   H                      -5.769243            3.251244             -9.067049
| 39>   H                      -4.640554            2.954154             -10.383649
| 40>   H                      -6.017593            1.996925             -10.226665
| 41>   C                    : -3.203362            6.192710             -9.145522
| 42>   O                    : -3.831210            7.290211             -9.826184
| 43>   H                    : -3.923112            7.162933             -10.773128
| 44>   H                    : -3.149242            6.536447             -8.116004
| 45>   H                    : -3.900862            5.323204             -9.227978
| 46>   H                    : -2.193706            6.016158             -9.562401
| 47> *
| 48>
| 49> #Run DFT-D3 single point of the particle with dimer basis set
| 50> $new_job
| 51> %base "17-84_DFT_B"
| 52> ! wB97X-D3 def2-TZVP TIGHTSCF CHELPG PMODEL
| 53>
| 54> %scf
| 55> MaxIter 1000
| 56> end
| 57>
| 58> * xyz 0 1
| 59>   C                    : -5.201214            2.513529             -9.631531
| 60>   O                    : -4.515403            1.567229             -8.775223
| 61>   H                    : -3.611690            1.885344             -8.810768
| 62>   H                    : -5.769243            3.251244             -9.067049
| 63>   H                    : -4.640554            2.954154             -10.383649
| 64>   H                    : -6.017593            1.996925             -10.226665
| 65>   C                      -3.203362            6.192710             -9.145522
| 66>   O                      -3.831210            7.290211             -9.826184
| 67>   H                      -3.923112            7.162933             -10.773128
| 68>   H                      -3.149242            6.536447             -8.116004
| 69>   H                      -3.900862            5.323204             -9.227978
| 70>   H                      -2.193706            6.016158             -9.562401
| 71> *
| 72>
| 73>                          ****END OF INPUT****
 Total Charge           Charge          ....    0
 Multiplicity           Mult            ....    1
 Number of Electrons    NEL             ....   36
Dispersion correction           -0.001315137
FINAL SINGLE POINT ENERGY      -231.463313797454
Dispersion correction           -0.000262466
FINAL SINGLE POINT ENERGY      -115.728769752913

CARTESIAN COORDINATES (ANGSTROEM)
---------------------------------
  C     -5.201214    2.513529   -9.631531
  O     -4.515403    1.567229   -8.775223
  H     -3.611690    1.885344   -8.810768
  H     -5.769243    3.251244   -9.067049
  H     -4.640554    2.954154  -10.383649
  H     -6.017593    1.996925  -10.226665
  C     -3.203362    6.192710   -9.145522
  O     -3.831210    7.290211   -9.826184
  H     -3.923112    7.162933  -10.773128
  H     -3.149242    6.536447   -8.116004
  H     -3.900862    5.323204   -9.227978
  H     -2.193706    6.016158   -9.562401

 Multiplicity           Mult            ....    1
 Number of Electrons    NEL             ....   18
 Basis Dimension        Dim             ....  172

ORBITAL ENERGIES
----------------

  NO   OCC          E(Eh)            E(eV)
   0   2.0000     -19.221889      -523.0542
   1   2.0000     -10.318277      -280.7746
   2   2.0000      -1.123234       -30.5648
   3   2.0000      -0.794413       -21.6171
   4   2.0000      -0.600771       -16.3478
   5   2.0000      -0.543340       -14.7850
   6   2.0000      -0.523835       -14.2543
   7   2.0000      -0.424836       -11.5604
   8   2.0000      -0.370761       -10.0889
   9   0.0000       0.081542         2.2189
  10   0.0000       0.117771         3.2047
  11   0.0000       0.155405         4.2288
  12   0.0000       0.167829         4.5669
  13   0.0000       0.188137         5.1195

MULLIKEN ATOMIC CHARGES
-----------------------
   0 C :   -0.001709
   1 O :    0.000212
   2 H :   -0.000090
   3 H :    0.000442
   4 H :   -0.000045
   5 H :   -0.000125
   6 C :   -0.143320
   7 O :   -0.498879
   8 H :    0.311999
   9 H :    0.123743
  10 H :    0.103238
  11 H :    0.104535
Sum of atomic charges:   -0.0000000

LOEWDIN ATOMIC CHARGES
----------------------
   0 C :   -0.004914
   1 O :   -0.000007
   2 H :   -0.000165
   3 H :   -0.001122
   4 H :   -0.001398
   5 H :   -0.000051
   6 C :   -0.362830
   7 O :   -0.102441
   8 H :    0.160097
   9 H :    0.110022
  10 H :    0.104392
  11 H :    0.098416

  Mayer bond orders larger than 0.1
B(  6-C ,  7-O ) :   0.9804 B(  6-C ,  9-H ) :   0.9700 B(  6-C , 10-H ) :   0.9817
B(  6-C , 11-H ) :   0.9728 B(  7-O ,  8-H ) :   0.8984

Dispersion correction           -0.000248306
FINAL SINGLE POINT ENERGY      -115.734179229058

DIPOLE MOMENT
-------------
                                X             Y             Z
Electronic contribution:     -0.67632       1.30007      -0.68389
Nuclear contribution   :      0.88207      -1.82876       0.37086
                        -----------------------------------------
Total Dipole Moment    :      0.20575      -0.52869      -0.31303
                        -----------------------------------------
Magnitude (a.u.)       :      0.64794
Magnitude (Debye)      :      1.64694

Rotational constants in cm-1:     4.137755     0.813638     0.792874
Rotational constants in MHz : 124046.779181 24392.239060 23769.751116

                             ****ORCA TERMINATED NORMALLY****
TOTAL RUN TIME: 0 days 0 hours 1 minutes 10 seconds 344 msec
