                         Program Version 4.1.2  - RELEASE  -
|  1> #Run DFT-D3 single point of the dimer
|  2> ! wB97X-D3 def2-TZVP TIGHTSCF CHELPG PMODEL PAL8
|  3>
|  4> %base "18-33_DFT_AB"
|  5>
|  6> %scf
|  7> MaxIter 1000
|  8> end
|  9>
| 10> * xyz 0 1
| 11>   C                      5.188788             2.614549             -0.430988
| 12>   O                      4.272714             3.629414             -0.212891
| 13>   H                      4.735754             4.461235             -0.188900
| 14>   H                      5.899015             2.492255             0.391204
| 15>   H                      4.718363             1.670627             -0.695147
| 16>   H                      5.822392             2.953750             -1.309417
| 17>   C                      3.972388             7.500461             1.155394
| 18>   O                      3.101798             7.379041             0.041502
| 19>   H                      3.500956             6.762614             -0.586978
| 20>   H                      3.788559             6.744071             1.904720
| 21>   H                      4.981357             7.331220             0.888054
| 22>   H                      3.961077             8.467816             1.742621
| 23> *
| 24>
| 25> #Run DFT-D3 single point of the molecule with dimer basis set
| 26> $new_job
| 27> %base "18-33_DFT_A"
| 28> ! wB97X-D3 def2-TZVP TIGHTSCF CHELPG PMODEL
| 29>
| 30> %scf
| 31> MaxIter 1000
| 32> end
| 33>
| 34> * xyz 0 1
| 35>   C                      5.188788             2.614549             -0.430988
| 36>   O                      4.272714             3.629414             -0.212891
| 37>   H                      4.735754             4.461235             -0.188900
| 38>   H                      5.899015             2.492255             0.391204
| 39>   H                      4.718363             1.670627             -0.695147
| 40>   H                      5.822392             2.953750             -1.309417
| 41>   C                    : 3.972388             7.500461             1.155394
| 42>   O                    : 3.101798             7.379041             0.041502
| 43>   H                    : 3.500956             6.762614             -0.586978
| 44>   H                    : 3.788559             6.744071             1.904720
| 45>   H                    : 4.981357             7.331220             0.888054
| 46>   H                    : 3.961077             8.467816             1.742621
| 47> *
| 48>
| 49> #Run DFT-D3 single point of the particle with dimer basis set
| 50> $new_job
| 51> %base "18-33_DFT_B"
| 52> ! wB97X-D3 def2-TZVP TIGHTSCF CHELPG PMODEL
| 53>
| 54> %scf
| 55> MaxIter 1000
| 56> end
| 57>
| 58> * xyz 0 1
| 59>   C                    : 5.188788             2.614549             -0.430988
| 60>   O                    : 4.272714             3.629414             -0.212891
| 61>   H                    : 4.735754             4.461235             -0.188900
| 62>   H                    : 5.899015             2.492255             0.391204
| 63>   H                    : 4.718363             1.670627             -0.695147
| 64>   H                    : 5.822392             2.953750             -1.309417
| 65>   C                      3.972388             7.500461             1.155394
| 66>   O                      3.101798             7.379041             0.041502
| 67>   H                      3.500956             6.762614             -0.586978
| 68>   H                      3.788559             6.744071             1.904720
| 69>   H                      4.981357             7.331220             0.888054
| 70>   H                      3.961077             8.467816             1.742621
| 71> *
| 72>
| 73>                          ****END OF INPUT****
 Total Charge           Charge          ....    0
 Multiplicity           Mult            ....    1
 Number of Electrons    NEL             ....   36
Dispersion correction           -0.001326993
FINAL SINGLE POINT ENERGY      -231.463140820003
Dispersion correction           -0.000220553
FINAL SINGLE POINT ENERGY      -115.733444998815

CARTESIAN COORDINATES (ANGSTROEM)
---------------------------------
  C      5.188788    2.614549   -0.430988
  O      4.272714    3.629414   -0.212891
  H      4.735754    4.461235   -0.188900
  H      5.899015    2.492255    0.391204
  H      4.718363    1.670627   -0.695147
  H      5.822392    2.953750   -1.309417
  C      3.972388    7.500461    1.155394
  O      3.101798    7.379041    0.041502
  H      3.500956    6.762614   -0.586978
  H      3.788559    6.744071    1.904720
  H      4.981357    7.331220    0.888054
  H      3.961077    8.467816    1.742621

 Multiplicity           Mult            ....    1
 Number of Electrons    NEL             ....   18
 Basis Dimension        Dim             ....  172

ORBITAL ENERGIES
----------------

  NO   OCC          E(Eh)            E(eV)
   0   2.0000     -19.233274      -523.3640
   1   2.0000     -10.312321      -280.6125
   2   2.0000      -1.134507       -30.8715
   3   2.0000      -0.798752       -21.7351
   4   2.0000      -0.615346       -16.7444
   5   2.0000      -0.535856       -14.5814
   6   2.0000      -0.528530       -14.3820
   7   2.0000      -0.433950       -11.8084
   8   2.0000      -0.373432       -10.1616
   9   0.0000       0.074683         2.0322
  10   0.0000       0.115121         3.1326
  11   0.0000       0.147024         4.0007
  12   0.0000       0.187197         5.0939
  13   0.0000       0.190273         5.1776

MULLIKEN ATOMIC CHARGES
-----------------------
   0 C :    0.000037
   1 O :   -0.000076
   2 H :   -0.001464
   3 H :    0.000005
   4 H :    0.000010
   5 H :   -0.000015
   6 C :   -0.180960
   7 O :   -0.474547
   8 H :    0.319211
   9 H :    0.105771
  10 H :    0.110331
  11 H :    0.121697
Sum of atomic charges:   -0.0000000

LOEWDIN ATOMIC CHARGES
----------------------
   0 C :   -0.000038
   1 O :   -0.000519
   2 H :   -0.002049
   3 H :   -0.000002
   4 H :   -0.000002
   5 H :   -0.000001
   6 C :   -0.387975
   7 O :   -0.080296
   8 H :    0.174773
   9 H :    0.092602
  10 H :    0.088302
  11 H :    0.115205

  Mayer bond orders larger than 0.1
B(  6-C ,  7-O ) :   0.9988 B(  6-C ,  9-H ) :   0.9773 B(  6-C , 10-H ) :   0.9840
B(  6-C , 11-H ) :   0.9721 B(  7-O ,  8-H ) :   0.8978

Dispersion correction           -0.000254491
FINAL SINGLE POINT ENERGY      -115.730438554542

DIPOLE MOMENT
-------------
                                X             Y             Z
Electronic contribution:     -1.27237      -0.01186      -1.48666
Nuclear contribution   :      1.90549      -0.34397       1.52718
                        -----------------------------------------
Total Dipole Moment    :      0.63312      -0.35583       0.04051
                        -----------------------------------------
Magnitude (a.u.)       :      0.72739
Magnitude (Debye)      :      1.84887

Rotational constants in cm-1:     4.509878     0.815096     0.782392
Rotational constants in MHz : 135202.745422 24435.966552 23455.529700

                             ****ORCA TERMINATED NORMALLY****
TOTAL RUN TIME: 0 days 0 hours 1 minutes 1 seconds 440 msec
