                         Program Version 4.1.2  - RELEASE  -
|  1> #Run DFT-D3 single point of the dimer
|  2> ! wB97X-D3 def2-TZVP TIGHTSCF CHELPG PMODEL PAL8
|  3>
|  4> %base "22-94_DFT_AB"
|  5>
|  6> %scf
|  7> MaxIter 1000
|  8> end
|  9>
| 10> * xyz 0 1
| 11>   C                      8.152796             8.556054             -5.321419
| 12>   O                      6.909219             9.044673             -4.812207
| 13>   H                      6.285718             8.702034             -5.470259
| 14>   H                      8.064256             8.349003             -6.365875
| 15>   H                      9.010342             9.257000             -5.240811
| 16>   H                      8.377186             7.606242             -4.788367
| 17>   C                      5.841575             5.538677             -8.971014
| 18>   O                      5.937929             5.637680             -10.311734
| 19>   H                      6.324297             4.832202             -10.653868
| 20>   H                      5.247490             6.394668             -8.527192
| 21>   H                      5.280921             4.660592             -8.722857
| 22>   H                      6.775231             5.503065             -8.381655
| 23> *
| 24>
| 25> #Run DFT-D3 single point of the molecule with dimer basis set
| 26> $new_job
| 27> %base "22-94_DFT_A"
| 28> ! wB97X-D3 def2-TZVP TIGHTSCF CHELPG PMODEL
| 29>
| 30> %scf
| 31> MaxIter 1000
| 32> end
| 33>
| 34> * xyz 0 1
| 35>   C                      8.152796             8.556054             -5.321419
| 36>   O                      6.909219             9.044673             -4.812207
| 37>   H                      6.285718             8.702034             -5.470259
| 38>   H                      8.064256             8.349003             -6.365875
| 39>   H                      9.010342             9.257000             -5.240811
| 40>   H                      8.377186             7.606242             -4.788367
| 41>   C                    : 5.841575             5.538677             -8.971014
| 42>   O                    : 5.937929             5.637680             -10.311734
| 43>   H                    : 6.324297             4.832202             -10.653868
| 44>   H                    : 5.247490             6.394668             -8.527192
| 45>   H                    : 5.280921             4.660592             -8.722857
| 46>   H                    : 6.775231             5.503065             -8.381655
| 47> *
| 48>
| 49> #Run DFT-D3 single point of the particle with dimer basis set
| 50> $new_job
| 51> %base "22-94_DFT_B"
| 52> ! wB97X-D3 def2-TZVP TIGHTSCF CHELPG PMODEL
| 53>
| 54> %scf
| 55> MaxIter 1000
| 56> end
| 57>
| 58> * xyz 0 1
| 59>   C                    : 8.152796             8.556054             -5.321419
| 60>   O                    : 6.909219             9.044673             -4.812207
| 61>   H                    : 6.285718             8.702034             -5.470259
| 62>   H                    : 8.064256             8.349003             -6.365875
| 63>   H                    : 9.010342             9.257000             -5.240811
| 64>   H                    : 8.377186             7.606242             -4.788367
| 65>   C                      5.841575             5.538677             -8.971014
| 66>   O                      5.937929             5.637680             -10.311734
| 67>   H                      6.324297             4.832202             -10.653868
| 68>   H                      5.247490             6.394668             -8.527192
| 69>   H                      5.280921             4.660592             -8.722857
| 70>   H                      6.775231             5.503065             -8.381655
| 71> *
| 72>
| 73>                          ****END OF INPUT****
 Total Charge           Charge          ....    0
 Multiplicity           Mult            ....    1
 Number of Electrons    NEL             ....   36
Dispersion correction           -0.000756230
FINAL SINGLE POINT ENERGY      -231.463621459142
Dispersion correction           -0.000234502
FINAL SINGLE POINT ENERGY      -115.731794078675

CARTESIAN COORDINATES (ANGSTROEM)
---------------------------------
  C      8.152796    8.556054   -5.321419
  O      6.909219    9.044673   -4.812207
  H      6.285718    8.702034   -5.470259
  H      8.064256    8.349003   -6.365875
  H      9.010342    9.257000   -5.240811
  H      8.377186    7.606242   -4.788367
  C      5.841575    5.538677   -8.971014
  O      5.937929    5.637680  -10.311734
  H      6.324297    4.832202  -10.653868
  H      5.247490    6.394668   -8.527192
  H      5.280921    4.660592   -8.722857
  H      6.775231    5.503065   -8.381655

 Multiplicity           Mult            ....    1
 Number of Electrons    NEL             ....   18
 Basis Dimension        Dim             ....  172

ORBITAL ENERGIES
----------------

  NO   OCC          E(Eh)            E(eV)
   0   2.0000     -19.232049      -523.3306
   1   2.0000     -10.309193      -280.5274
   2   2.0000      -1.160226       -31.5714
   3   2.0000      -0.792689       -21.5702
   4   2.0000      -0.627015       -17.0619
   5   2.0000      -0.550196       -14.9716
   6   2.0000      -0.533843       -14.5266
   7   2.0000      -0.424198       -11.5430
   8   2.0000      -0.371611       -10.1120
   9   0.0000       0.084869         2.3094
  10   0.0000       0.116947         3.1823
  11   0.0000       0.147619         4.0169
  12   0.0000       0.166971         4.5435
  13   0.0000       0.194056         5.2805

MULLIKEN ATOMIC CHARGES
-----------------------
   0 C :    0.000026
   1 O :    0.000005
   2 H :   -0.000083
   3 H :   -0.000095
   4 H :   -0.000005
   5 H :   -0.000016
   6 C :   -0.160544
   7 O :   -0.455245
   8 H :    0.319286
   9 H :    0.110752
  10 H :    0.096920
  11 H :    0.088998
Sum of atomic charges:    0.0000000

LOEWDIN ATOMIC CHARGES
----------------------
   0 C :   -0.000116
   1 O :   -0.000004
   2 H :   -0.000073
   3 H :   -0.000157
   4 H :   -0.000001
   5 H :   -0.000012
   6 C :   -0.446277
   7 O :   -0.022042
   8 H :    0.174702
   9 H :    0.115549
  10 H :    0.087452
  11 H :    0.090979

  Mayer bond orders larger than 0.1
B(  6-C ,  7-O ) :   1.0112 B(  6-C ,  9-H ) :   0.9712 B(  6-C , 10-H ) :   0.9876
B(  6-C , 11-H ) :   0.9680 B(  7-O ,  8-H ) :   0.8935

Dispersion correction           -0.000225161
FINAL SINGLE POINT ENERGY      -115.731520716857

DIPOLE MOMENT
-------------
                                X             Y             Z
Electronic contribution:      0.16242       0.24669      -1.92544
Nuclear contribution   :      0.03462      -0.81114       2.17318
                        -----------------------------------------
Total Dipole Moment    :      0.19704      -0.56445       0.24774
                        -----------------------------------------
Magnitude (a.u.)       :      0.64715
Magnitude (Debye)      :      1.64493

Rotational constants in cm-1:     4.388107     0.887228     0.852618
Rotational constants in MHz : 131552.144579 26598.438271 25560.848355

                             ****ORCA TERMINATED NORMALLY****
TOTAL RUN TIME: 0 days 0 hours 0 minutes 51 seconds 750 msec
