                         Program Version 4.1.2  - RELEASE  -
|  1> #Run DFT-D3 single point of the dimer
|  2> ! wB97X-D3 def2-TZVP TIGHTSCF CHELPG PMODEL PAL8
|  3>
|  4> %base "4-140_DFT_AB"
|  5>
|  6> %scf
|  7> MaxIter 1000
|  8> end
|  9>
| 10> * xyz 0 1
| 11>   C                      1.273106             -1.090796            4.502360
| 12>   O                      2.124407             -0.962128            3.463124
| 13>   H                      1.972989             -1.685681            2.887685
| 14>   H                      0.415376             -1.764596            4.340729
| 15>   H                      1.825352             -1.582029            5.301088
| 16>   H                      0.854606             -0.187528            4.906061
| 17>   C                      -1.810356            0.406828             3.525314
| 18>   O                      -2.676276            -0.656911            3.167925
| 19>   H                      -3.289231            -0.286816            2.498564
| 20>   H                      -2.313226            1.180830             4.158564
| 21>   H                      -1.006154            -0.012581            4.100338
| 22>   H                      -1.447102            0.834586             2.550073
| 23> *
| 24>
| 25> #Run DFT-D3 single point of the molecule with dimer basis set
| 26> $new_job
| 27> %base "4-140_DFT_A"
| 28> ! wB97X-D3 def2-TZVP TIGHTSCF CHELPG PMODEL
| 29>
| 30> %scf
| 31> MaxIter 1000
| 32> end
| 33>
| 34> * xyz 0 1
| 35>   C                      1.273106             -1.090796            4.502360
| 36>   O                      2.124407             -0.962128            3.463124
| 37>   H                      1.972989             -1.685681            2.887685
| 38>   H                      0.415376             -1.764596            4.340729
| 39>   H                      1.825352             -1.582029            5.301088
| 40>   H                      0.854606             -0.187528            4.906061
| 41>   C                    : -1.810356            0.406828             3.525314
| 42>   O                    : -2.676276            -0.656911            3.167925
| 43>   H                    : -3.289231            -0.286816            2.498564
| 44>   H                    : -2.313226            1.180830             4.158564
| 45>   H                    : -1.006154            -0.012581            4.100338
| 46>   H                    : -1.447102            0.834586             2.550073
| 47> *
| 48>
| 49> #Run DFT-D3 single point of the particle with dimer basis set
| 50> $new_job
| 51> %base "4-140_DFT_B"
| 52> ! wB97X-D3 def2-TZVP TIGHTSCF CHELPG PMODEL
| 53>
| 54> %scf
| 55> MaxIter 1000
| 56> end
| 57>
| 58> * xyz 0 1
| 59>   C                    : 1.273106             -1.090796            4.502360
| 60>   O                    : 2.124407             -0.962128            3.463124
| 61>   H                    : 1.972989             -1.685681            2.887685
| 62>   H                    : 0.415376             -1.764596            4.340729
| 63>   H                    : 1.825352             -1.582029            5.301088
| 64>   H                    : 0.854606             -0.187528            4.906061
| 65>   C                      -1.810356            0.406828             3.525314
| 66>   O                      -2.676276            -0.656911            3.167925
| 67>   H                      -3.289231            -0.286816            2.498564
| 68>   H                      -2.313226            1.180830             4.158564
| 69>   H                      -1.006154            -0.012581            4.100338
| 70>   H                      -1.447102            0.834586             2.550073
| 71> *
| 72>
| 73>                          ****END OF INPUT****
 Total Charge           Charge          ....    0
 Multiplicity           Mult            ....    1
 Number of Electrons    NEL             ....   36
Dispersion correction           -0.001609954
FINAL SINGLE POINT ENERGY      -231.463060642529
Dispersion correction           -0.000216490
FINAL SINGLE POINT ENERGY      -115.729289378999

CARTESIAN COORDINATES (ANGSTROEM)
---------------------------------
  C      1.273106   -1.090796    4.502360
  O      2.124407   -0.962128    3.463124
  H      1.972989   -1.685681    2.887685
  H      0.415376   -1.764596    4.340729
  H      1.825352   -1.582029    5.301088
  H      0.854606   -0.187528    4.906061
  C     -1.810356    0.406828    3.525314
  O     -2.676276   -0.656911    3.167925
  H     -3.289231   -0.286816    2.498564
  H     -2.313226    1.180830    4.158564
  H     -1.006154   -0.012581    4.100338
  H     -1.447102    0.834586    2.550073

 Multiplicity           Mult            ....    1
 Number of Electrons    NEL             ....   18
 Basis Dimension        Dim             ....  172

ORBITAL ENERGIES
----------------

  NO   OCC          E(Eh)            E(eV)
   0   2.0000     -19.230005      -523.2751
   1   2.0000     -10.317214      -280.7457
   2   2.0000      -1.132470       -30.8161
   3   2.0000      -0.788766       -21.4634
   4   2.0000      -0.603576       -16.4241
   5   2.0000      -0.542639       -14.7659
   6   2.0000      -0.527232       -14.3467
   7   2.0000      -0.433981       -11.8092
   8   2.0000      -0.370968       -10.0946
   9   0.0000       0.090189         2.4542
  10   0.0000       0.113280         3.0825
  11   0.0000       0.157534         4.2867
  12   0.0000       0.170059         4.6275
  13   0.0000       0.193555         5.2669

MULLIKEN ATOMIC CHARGES
-----------------------
   0 C :   -0.002684
   1 O :    0.000371
   2 H :    0.000025
   3 H :    0.002271
   4 H :    0.000289
   5 H :   -0.000372
   6 C :   -0.158554
   7 O :   -0.471734
   8 H :    0.314059
   9 H :    0.098697
  10 H :    0.123071
  11 H :    0.094561
Sum of atomic charges:    0.0000000

LOEWDIN ATOMIC CHARGES
----------------------
   0 C :   -0.014325
   1 O :   -0.000045
   2 H :   -0.000034
   3 H :   -0.002715
   4 H :   -0.000091
   5 H :   -0.007323
   6 C :   -0.378252
   7 O :   -0.091005
   8 H :    0.179756
   9 H :    0.097925
  10 H :    0.113393
  11 H :    0.102716

  Mayer bond orders larger than 0.1
B(  6-C ,  7-O ) :   1.0119 B(  6-C ,  9-H ) :   0.9669 B(  6-C , 10-H ) :   0.9752
B(  6-C , 11-H ) :   0.9884 B(  7-O ,  8-H ) :   0.8990

Dispersion correction           -0.000229871
FINAL SINGLE POINT ENERGY      -115.734051206233

DIPOLE MOMENT
-------------
                                X             Y             Z
Electronic contribution:     -0.98173      -1.43493      -0.28617
Nuclear contribution   :      0.94869       2.05804       0.01645
                        -----------------------------------------
Total Dipole Moment    :     -0.03303       0.62311      -0.26972
                        -----------------------------------------
Magnitude (a.u.)       :      0.67979
Magnitude (Debye)      :      1.72788

Rotational constants in cm-1:     4.073499     0.835976     0.806259
Rotational constants in MHz : 122120.439556 25061.935910 24171.033169

                             ****ORCA TERMINATED NORMALLY****
TOTAL RUN TIME: 0 days 0 hours 1 minutes 29 seconds 539 msec
