                         Program Version 4.1.2  - RELEASE  -
|  1> #Run DFT-D3 single point of the dimer
|  2> ! wB97X-D3 def2-TZVP TIGHTSCF CHELPG PMODEL PAL8
|  3>
|  4> %base "4-30_DFT_AB"
|  5>
|  6> %scf
|  7> MaxIter 1000
|  8> end
|  9>
| 10> * xyz 0 1
| 11>   C                      -5.192736            -2.225288            6.637700
| 12>   O                      -5.408181            -1.507434            5.386835
| 13>   H                      -4.517370            -1.420161            5.041826
| 14>   H                      -4.838058            -1.544956            7.408872
| 15>   H                      -6.004383            -2.688830            7.117625
| 16>   H                      -4.338427            -2.918640            6.592779
| 17>   C                      -8.175842            -3.925012            5.155027
| 18>   O                      -7.963484            -2.664874            4.403574
| 19>   H                      -7.248685            -2.136970            4.827691
| 20>   H                      -7.292239            -4.650319            5.020489
| 21>   H                      -8.396435            -3.654326            6.204722
| 22>   H                      -9.016223            -4.435247            4.737781
| 23> *
| 24>
| 25> #Run DFT-D3 single point of the molecule with dimer basis set
| 26> $new_job
| 27> %base "4-30_DFT_A"
| 28> ! wB97X-D3 def2-TZVP TIGHTSCF CHELPG PMODEL
| 29>
| 30> %scf
| 31> MaxIter 1000
| 32> end
| 33>
| 34> * xyz 0 1
| 35>   C                      -5.192736            -2.225288            6.637700
| 36>   O                      -5.408181            -1.507434            5.386835
| 37>   H                      -4.517370            -1.420161            5.041826
| 38>   H                      -4.838058            -1.544956            7.408872
| 39>   H                      -6.004383            -2.688830            7.117625
| 40>   H                      -4.338427            -2.918640            6.592779
| 41>   C                    : -8.175842            -3.925012            5.155027
| 42>   O                    : -7.963484            -2.664874            4.403574
| 43>   H                    : -7.248685            -2.136970            4.827691
| 44>   H                    : -7.292239            -4.650319            5.020489
| 45>   H                    : -8.396435            -3.654326            6.204722
| 46>   H                    : -9.016223            -4.435247            4.737781
| 47> *
| 48>
| 49> #Run DFT-D3 single point of the particle with dimer basis set
| 50> $new_job
| 51> %base "4-30_DFT_B"
| 52> ! wB97X-D3 def2-TZVP TIGHTSCF CHELPG PMODEL
| 53>
| 54> %scf
| 55> MaxIter 1000
| 56> end
| 57>
| 58> * xyz 0 1
| 59>   C                    : -5.192736            -2.225288            6.637700
| 60>   O                    : -5.408181            -1.507434            5.386835
| 61>   H                    : -4.517370            -1.420161            5.041826
| 62>   H                    : -4.838058            -1.544956            7.408872
| 63>   H                    : -6.004383            -2.688830            7.117625
| 64>   H                    : -4.338427            -2.918640            6.592779
| 65>   C                      -8.175842            -3.925012            5.155027
| 66>   O                      -7.963484            -2.664874            4.403574
| 67>   H                      -7.248685            -2.136970            4.827691
| 68>   H                      -7.292239            -4.650319            5.020489
| 69>   H                      -8.396435            -3.654326            6.204722
| 70>   H                      -9.016223            -4.435247            4.737781
| 71> *
| 72>
| 73>                          ****END OF INPUT****
 Total Charge           Charge          ....    0
 Multiplicity           Mult            ....    1
 Number of Electrons    NEL             ....   36
Dispersion correction           -0.002091038
FINAL SINGLE POINT ENERGY      -231.464460399576
Dispersion correction           -0.000252548
FINAL SINGLE POINT ENERGY      -115.727221898933

CARTESIAN COORDINATES (ANGSTROEM)
---------------------------------
  C     -5.192736   -2.225288    6.637700
  O     -5.408181   -1.507434    5.386835
  H     -4.517370   -1.420161    5.041826
  H     -4.838058   -1.544956    7.408872
  H     -6.004383   -2.688830    7.117625
  H     -4.338427   -2.918640    6.592779
  C     -8.175842   -3.925012    5.155027
  O     -7.963484   -2.664874    4.403574
  H     -7.248685   -2.136970    4.827691
  H     -7.292239   -4.650319    5.020489
  H     -8.396435   -3.654326    6.204722
  H     -9.016223   -4.435247    4.737781

 Multiplicity           Mult            ....    1
 Number of Electrons    NEL             ....   18
 Basis Dimension        Dim             ....  172

ORBITAL ENERGIES
----------------

  NO   OCC          E(Eh)            E(eV)
   0   2.0000     -19.230151      -523.2790
   1   2.0000     -10.324387      -280.9408
   2   2.0000      -1.109879       -30.2013
   3   2.0000      -0.794231       -21.6121
   4   2.0000      -0.589642       -16.0450
   5   2.0000      -0.538010       -14.6400
   6   2.0000      -0.521026       -14.1778
   7   2.0000      -0.430500       -11.7145
   8   2.0000      -0.374414       -10.1883
   9   0.0000       0.069587         1.8936
  10   0.0000       0.136922         3.7258
  11   0.0000       0.137443         3.7400
  12   0.0000       0.164602         4.4791
  13   0.0000       0.185492         5.0475

MULLIKEN ATOMIC CHARGES
-----------------------
   0 C :   -0.004041
   1 O :   -0.002313
   2 H :   -0.000253
   3 H :    0.000097
   4 H :    0.000679
   5 H :   -0.000118
   6 C :   -0.175972
   7 O :   -0.489612
   8 H :    0.314438
   9 H :    0.107518
  10 H :    0.114838
  11 H :    0.134740
Sum of atomic charges:   -0.0000000

LOEWDIN ATOMIC CHARGES
----------------------
   0 C :   -0.007973
   1 O :   -0.016501
   2 H :   -0.000864
   3 H :   -0.000099
   4 H :   -0.002163
   5 H :   -0.000137
   6 C :   -0.339143
   7 O :   -0.129060
   8 H :    0.183906
   9 H :    0.108169
  10 H :    0.101859
  11 H :    0.102006

  Mayer bond orders larger than 0.1
B(  6-C ,  7-O ) :   0.9832 B(  6-C ,  9-H ) :   0.9688 B(  6-C , 10-H ) :   0.9768
B(  6-C , 11-H ) :   0.9725 B(  7-O ,  8-H ) :   0.9036

Dispersion correction           -0.000281672
FINAL SINGLE POINT ENERGY      -115.730852481259

DIPOLE MOMENT
-------------
                                X             Y             Z
Electronic contribution:      0.09523       1.45498      -0.96400
Nuclear contribution   :      0.21823      -1.67716       1.54230
                        -----------------------------------------
Total Dipole Moment    :      0.31346      -0.22217       0.57830
                        -----------------------------------------
Magnitude (a.u.)       :      0.69430
Magnitude (Debye)      :      1.76477

Rotational constants in cm-1:     4.122758     0.762076     0.745884
Rotational constants in MHz : 123597.160957 22846.460201 22361.052840

                             ****ORCA TERMINATED NORMALLY****
TOTAL RUN TIME: 0 days 0 hours 1 minutes 35 seconds 391 msec
