                         Program Version 4.1.2  - RELEASE  -
|  1> #Run DFT-D3 single point of the dimer
|  2> ! wB97X-D3 def2-TZVP TIGHTSCF CHELPG PMODEL PAL8
|  3>
|  4> %base "15-194_DFT_AB"
|  5>
|  6> %scf
|  7> MaxIter 1000
|  8> end
|  9>
| 10> * xyz 0 1
| 11>   C                      10.860286            -5.282682            -5.811758
| 12>   O                      12.082115            -5.966277            -5.602407
| 13>   H                      12.361763            -6.338035            -6.449908
| 14>   H                      10.445701            -4.972029            -4.799911
| 15>   H                      10.944732            -4.482547            -6.595003
| 16>   H                      10.141677            -5.984801            -6.157158
| 17>   C                      11.016952            -6.210058            -1.989052
| 18>   O                      11.642569            -5.285475            -2.817246
| 19>   H                      11.947440            -5.753956            -3.570243
| 20>   H                      11.718283            -6.787300            -1.303845
| 21>   H                      10.276201            -5.659218            -1.306613
| 22>   H                      10.467426            -6.949636            -2.626130
| 23> *
| 24>
| 25> #Run DFT-D3 single point of the molecule with dimer basis set
| 26> $new_job
| 27> %base "15-194_DFT_A"
| 28> ! wB97X-D3 def2-TZVP TIGHTSCF CHELPG PMODEL
| 29>
| 30> %scf
| 31> MaxIter 1000
| 32> end
| 33>
| 34> * xyz 0 1
| 35>   C                      10.860286            -5.282682            -5.811758
| 36>   O                      12.082115            -5.966277            -5.602407
| 37>   H                      12.361763            -6.338035            -6.449908
| 38>   H                      10.445701            -4.972029            -4.799911
| 39>   H                      10.944732            -4.482547            -6.595003
| 40>   H                      10.141677            -5.984801            -6.157158
| 41>   C                    : 11.016952            -6.210058            -1.989052
| 42>   O                    : 11.642569            -5.285475            -2.817246
| 43>   H                    : 11.947440            -5.753956            -3.570243
| 44>   H                    : 11.718283            -6.787300            -1.303845
| 45>   H                    : 10.276201            -5.659218            -1.306613
| 46>   H                    : 10.467426            -6.949636            -2.626130
| 47> *
| 48>
| 49> #Run DFT-D3 single point of the particle with dimer basis set
| 50> $new_job
| 51> %base "15-194_DFT_B"
| 52> ! wB97X-D3 def2-TZVP TIGHTSCF CHELPG PMODEL
| 53>
| 54> %scf
| 55> MaxIter 1000
| 56> end
| 57>
| 58> * xyz 0 1
| 59>   C                    : 10.860286            -5.282682            -5.811758
| 60>   O                    : 12.082115            -5.966277            -5.602407
| 61>   H                    : 12.361763            -6.338035            -6.449908
| 62>   H                    : 10.445701            -4.972029            -4.799911
| 63>   H                    : 10.944732            -4.482547            -6.595003
| 64>   H                    : 10.141677            -5.984801            -6.157158
| 65>   C                      11.016952            -6.210058            -1.989052
| 66>   O                      11.642569            -5.285475            -2.817246
| 67>   H                      11.947440            -5.753956            -3.570243
| 68>   H                      11.718283            -6.787300            -1.303845
| 69>   H                      10.276201            -5.659218            -1.306613
| 70>   H                      10.467426            -6.949636            -2.626130
| 71> *
| 72>
| 73>                          ****END OF INPUT****
 Total Charge           Charge          ....    0
 Multiplicity           Mult            ....    1
 Number of Electrons    NEL             ....   36
Dispersion correction           -0.001887253
FINAL SINGLE POINT ENERGY      -231.471686095689
Dispersion correction           -0.000234790
FINAL SINGLE POINT ENERGY      -115.732261697130

CARTESIAN COORDINATES (ANGSTROEM)
---------------------------------
  C     10.860286   -5.282682   -5.811758
  O     12.082115   -5.966277   -5.602407
  H     12.361763   -6.338035   -6.449908
  H     10.445701   -4.972029   -4.799911
  H     10.944732   -4.482547   -6.595003
  H     10.141677   -5.984801   -6.157158
  C     11.016952   -6.210058   -1.989052
  O     11.642569   -5.285475   -2.817246
  H     11.947440   -5.753956   -3.570243
  H     11.718283   -6.787300   -1.303845
  H     10.276201   -5.659218   -1.306613
  H     10.467426   -6.949636   -2.626130

 Multiplicity           Mult            ....    1
 Number of Electrons    NEL             ....   18
 Basis Dimension        Dim             ....  172

ORBITAL ENERGIES
----------------

  NO   OCC          E(Eh)            E(eV)
   0   2.0000     -19.232886      -523.3534
   1   2.0000     -10.325809      -280.9795
   2   2.0000      -1.152349       -31.3570
   3   2.0000      -0.787721       -21.4350
   4   2.0000      -0.618734       -16.8366
   5   2.0000      -0.540305       -14.7025
   6   2.0000      -0.528178       -14.3725
   7   2.0000      -0.432739       -11.7754
   8   2.0000      -0.373730       -10.1697
   9   0.0000       0.075576         2.0565
  10   0.0000       0.134029         3.6471
  11   0.0000       0.151144         4.1129
  12   0.0000       0.170865         4.6495
  13   0.0000       0.185315         5.0427

MULLIKEN ATOMIC CHARGES
-----------------------
   0 C :   -0.007620
   1 O :   -0.000191
   2 H :   -0.000052
   3 H :   -0.008384
   4 H :   -0.000403
   5 H :    0.001190
   6 C :   -0.165453
   7 O :   -0.445022
   8 H :    0.311906
   9 H :    0.098466
  10 H :    0.116684
  11 H :    0.098878
Sum of atomic charges:    0.0000000

LOEWDIN ATOMIC CHARGES
----------------------
   0 C :   -0.014818
   1 O :   -0.013336
   2 H :   -0.000475
   3 H :   -0.016481
   4 H :   -0.000191
   5 H :   -0.000161
   6 C :   -0.414399
   7 O :   -0.020103
   8 H :    0.166835
   9 H :    0.098568
  10 H :    0.116246
  11 H :    0.098315

  Mayer bond orders larger than 0.1
B(  6-C ,  7-O ) :   0.9992 B(  6-C ,  9-H ) :   0.9695 B(  6-C , 10-H ) :   0.9733
B(  6-C , 11-H ) :   0.9814 B(  7-O ,  8-H ) :   0.9052

Dispersion correction           -0.000245195
FINAL SINGLE POINT ENERGY      -115.733145833038

DIPOLE MOMENT
-------------
                                X             Y             Z
Electronic contribution:      0.84423       1.34518      -1.02367
Nuclear contribution   :     -0.88769      -1.97961       0.84850
                        -----------------------------------------
Total Dipole Moment    :     -0.04346      -0.63443      -0.17517
                        -----------------------------------------
Magnitude (a.u.)       :      0.65960
Magnitude (Debye)      :      1.67656

Rotational constants in cm-1:     4.079529     0.849571     0.816320
Rotational constants in MHz : 122301.208102 25469.501170 24472.653863

                             ****ORCA TERMINATED NORMALLY****
TOTAL RUN TIME: 0 days 0 hours 1 minutes 8 seconds 138 msec
