                         Program Version 4.1.2  - RELEASE  -
|  1> #Run DFT-D3 single point of the dimer
|  2> ! wB97X-D3 def2-TZVP TIGHTSCF CHELPG PMODEL PAL8
|  3>
|  4> %base "6-19_DFT_AB"
|  5>
|  6> %scf
|  7> MaxIter 1000
|  8> end
|  9>
| 10> * xyz 0 1
| 11>   C                      -0.715228            1.050743             2.453242
| 12>   O                      -1.854007            0.340821             2.144338
| 13>   H                      -2.633239            0.803480             2.639829
| 14>   H                      -0.871798            2.130612             2.284487
| 15>   H                      -0.449429            0.971583             3.539397
| 16>   H                      0.102194             0.804007             1.757111
| 17>   C                      -1.657348            -2.605589            3.107495
| 18>   O                      -1.433084            -3.963794            3.336402
| 19>   H                      -1.822367            -4.471035            2.634541
| 20>   H                      -1.025186            -1.978984            3.793105
| 21>   H                      -1.370348            -2.277809            2.137469
| 22>   H                      -2.655147            -2.318401            3.325334
| 23> *
| 24>
| 25> #Run DFT-D3 single point of the molecule with dimer basis set
| 26> $new_job
| 27> %base "6-19_DFT_A"
| 28> ! wB97X-D3 def2-TZVP TIGHTSCF CHELPG PMODEL
| 29>
| 30> %scf
| 31> MaxIter 1000
| 32> end
| 33>
| 34> * xyz 0 1
| 35>   C                      -0.715228            1.050743             2.453242
| 36>   O                      -1.854007            0.340821             2.144338
| 37>   H                      -2.633239            0.803480             2.639829
| 38>   H                      -0.871798            2.130612             2.284487
| 39>   H                      -0.449429            0.971583             3.539397
| 40>   H                      0.102194             0.804007             1.757111
| 41>   C                    : -1.657348            -2.605589            3.107495
| 42>   O                    : -1.433084            -3.963794            3.336402
| 43>   H                    : -1.822367            -4.471035            2.634541
| 44>   H                    : -1.025186            -1.978984            3.793105
| 45>   H                    : -1.370348            -2.277809            2.137469
| 46>   H                    : -2.655147            -2.318401            3.325334
| 47> *
| 48>
| 49> #Run DFT-D3 single point of the particle with dimer basis set
| 50> $new_job
| 51> %base "6-19_DFT_B"
| 52> ! wB97X-D3 def2-TZVP TIGHTSCF CHELPG PMODEL
| 53>
| 54> %scf
| 55> MaxIter 1000
| 56> end
| 57>
| 58> * xyz 0 1
| 59>   C                    : -0.715228            1.050743             2.453242
| 60>   O                    : -1.854007            0.340821             2.144338
| 61>   H                    : -2.633239            0.803480             2.639829
| 62>   H                    : -0.871798            2.130612             2.284487
| 63>   H                    : -0.449429            0.971583             3.539397
| 64>   H                    : 0.102194             0.804007             1.757111
| 65>   C                      -1.657348            -2.605589            3.107495
| 66>   O                      -1.433084            -3.963794            3.336402
| 67>   H                      -1.822367            -4.471035            2.634541
| 68>   H                      -1.025186            -1.978984            3.793105
| 69>   H                      -1.370348            -2.277809            2.137469
| 70>   H                      -2.655147            -2.318401            3.325334
| 71> *
| 72>
| 73>                          ****END OF INPUT****
 Total Charge           Charge          ....    0
 Multiplicity           Mult            ....    1
 Number of Electrons    NEL             ....   36
Dispersion correction           -0.001912064
FINAL SINGLE POINT ENERGY      -231.465828106728
Dispersion correction           -0.000228270
FINAL SINGLE POINT ENERGY      -115.729478064755

CARTESIAN COORDINATES (ANGSTROEM)
---------------------------------
  C     -0.715228    1.050743    2.453242
  O     -1.854007    0.340821    2.144338
  H     -2.633239    0.803480    2.639829
  H     -0.871798    2.130612    2.284487
  H     -0.449429    0.971583    3.539397
  H      0.102194    0.804007    1.757111
  C     -1.657348   -2.605589    3.107495
  O     -1.433084   -3.963794    3.336402
  H     -1.822367   -4.471035    2.634541
  H     -1.025186   -1.978984    3.793105
  H     -1.370348   -2.277809    2.137469
  H     -2.655147   -2.318401    3.325334

 Multiplicity           Mult            ....    1
 Number of Electrons    NEL             ....   18
 Basis Dimension        Dim             ....  172

ORBITAL ENERGIES
----------------

  NO   OCC          E(Eh)            E(eV)
   0   2.0000     -19.229257      -523.2547
   1   2.0000     -10.307668      -280.4859
   2   2.0000      -1.143082       -31.1048
   3   2.0000      -0.800123       -21.7725
   4   2.0000      -0.617239       -16.7959
   5   2.0000      -0.551685       -15.0121
   6   2.0000      -0.525952       -14.3119
   7   2.0000      -0.427129       -11.6228
   8   2.0000      -0.376382       -10.2419
   9   0.0000       0.080523         2.1912
  10   0.0000       0.120006         3.2655
  11   0.0000       0.154132         4.1941
  12   0.0000       0.165854         4.5131
  13   0.0000       0.175873         4.7857

MULLIKEN ATOMIC CHARGES
-----------------------
   0 C :   -0.001931
   1 O :    0.000208
   2 H :   -0.000123
   3 H :   -0.000083
   4 H :   -0.000049
   5 H :    0.000146
   6 C :   -0.147583
   7 O :   -0.472611
   8 H :    0.314547
   9 H :    0.110965
  10 H :    0.097349
  11 H :    0.099165
Sum of atomic charges:   -0.0000000

LOEWDIN ATOMIC CHARGES
----------------------
   0 C :   -0.003382
   1 O :   -0.004607
   2 H :   -0.000441
   3 H :   -0.000039
   4 H :   -0.000651
   5 H :   -0.000196
   6 C :   -0.393230
   7 O :   -0.055298
   8 H :    0.163588
   9 H :    0.116863
  10 H :    0.089329
  11 H :    0.088064

  Mayer bond orders larger than 0.1
B(  6-C ,  7-O ) :   1.0075 B(  6-C ,  9-H ) :   0.9736 B(  6-C , 10-H ) :   0.9800
B(  6-C , 11-H ) :   0.9755 B(  7-O ,  8-H ) :   0.8992

Dispersion correction           -0.000236371
FINAL SINGLE POINT ENERGY      -115.734325978916

DIPOLE MOMENT
-------------
                                X             Y             Z
Electronic contribution:      0.28431      -1.81497       0.32134
Nuclear contribution   :     -0.61827       2.02355      -0.86946
                        -----------------------------------------
Total Dipole Moment    :     -0.33396       0.20858      -0.54811
                        -----------------------------------------
Magnitude (a.u.)       :      0.67488
Magnitude (Debye)      :      1.71541

Rotational constants in cm-1:     4.488913     0.842853     0.815796
Rotational constants in MHz : 134574.213657 25268.106084 24456.958114

                             ****ORCA TERMINATED NORMALLY****
TOTAL RUN TIME: 0 days 0 hours 1 minutes 7 seconds 266 msec
