                         Program Version 4.1.2  - RELEASE  -
|  1> #Run DFT-D3 single point of the dimer
|  2> ! wB97X-D3 def2-TZVP TIGHTSCF CHELPG PMODEL PAL8
|  3>
|  4> %base "8-110_DFT_AB"
|  5>
|  6> %scf
|  7> MaxIter 1000
|  8> end
|  9>
| 10> * xyz 0 1
| 11>   C                      6.607193             -4.525845            4.377470
| 12>   O                      6.373419             -5.532670            3.540175
| 13>   H                      5.453092             -5.878373            3.648403
| 14>   H                      6.456532             -4.812050            5.465561
| 15>   H                      7.700353             -4.239288            4.432152
| 16>   H                      6.134564             -3.540531            4.143520
| 17>   C                      9.769262             -7.615812            2.790514
| 18>   O                      9.008216             -7.107357            3.842723
| 19>   H                      8.368611             -6.424583            3.579696
| 20>   H                      10.096084            -6.844270            2.058707
| 21>   H                      10.680623            -8.247981            3.015261
| 22>   H                      9.048074             -8.278139            2.241576
| 23> *
| 24>
| 25> #Run DFT-D3 single point of the molecule with dimer basis set
| 26> $new_job
| 27> %base "8-110_DFT_A"
| 28> ! wB97X-D3 def2-TZVP TIGHTSCF CHELPG PMODEL
| 29>
| 30> %scf
| 31> MaxIter 1000
| 32> end
| 33>
| 34> * xyz 0 1
| 35>   C                      6.607193             -4.525845            4.377470
| 36>   O                      6.373419             -5.532670            3.540175
| 37>   H                      5.453092             -5.878373            3.648403
| 38>   H                      6.456532             -4.812050            5.465561
| 39>   H                      7.700353             -4.239288            4.432152
| 40>   H                      6.134564             -3.540531            4.143520
| 41>   C                    : 9.769262             -7.615812            2.790514
| 42>   O                    : 9.008216             -7.107357            3.842723
| 43>   H                    : 8.368611             -6.424583            3.579696
| 44>   H                    : 10.096084            -6.844270            2.058707
| 45>   H                    : 10.680623            -8.247981            3.015261
| 46>   H                    : 9.048074             -8.278139            2.241576
| 47> *
| 48>
| 49> #Run DFT-D3 single point of the particle with dimer basis set
| 50> $new_job
| 51> %base "8-110_DFT_B"
| 52> ! wB97X-D3 def2-TZVP TIGHTSCF CHELPG PMODEL
| 53>
| 54> %scf
| 55> MaxIter 1000
| 56> end
| 57>
| 58> * xyz 0 1
| 59>   C                    : 6.607193             -4.525845            4.377470
| 60>   O                    : 6.373419             -5.532670            3.540175
| 61>   H                    : 5.453092             -5.878373            3.648403
| 62>   H                    : 6.456532             -4.812050            5.465561
| 63>   H                    : 7.700353             -4.239288            4.432152
| 64>   H                    : 6.134564             -3.540531            4.143520
| 65>   C                      9.769262             -7.615812            2.790514
| 66>   O                      9.008216             -7.107357            3.842723
| 67>   H                      8.368611             -6.424583            3.579696
| 68>   H                      10.096084            -6.844270            2.058707
| 69>   H                      10.680623            -8.247981            3.015261
| 70>   H                      9.048074             -8.278139            2.241576
| 71> *
| 72>
| 73>                          ****END OF INPUT****
 Total Charge           Charge          ....    0
 Multiplicity           Mult            ....    1
 Number of Electrons    NEL             ....   36
Dispersion correction           -0.001593831
FINAL SINGLE POINT ENERGY      -231.460997034820
Dispersion correction           -0.000250666
FINAL SINGLE POINT ENERGY      -115.727430342336

CARTESIAN COORDINATES (ANGSTROEM)
---------------------------------
  C      6.607193   -4.525845    4.377470
  O      6.373419   -5.532670    3.540175
  H      5.453092   -5.878373    3.648403
  H      6.456532   -4.812050    5.465561
  H      7.700353   -4.239288    4.432152
  H      6.134564   -3.540531    4.143520
  C      9.769262   -7.615812    2.790514
  O      9.008216   -7.107357    3.842723
  H      8.368611   -6.424583    3.579696
  H     10.096084   -6.844270    2.058707
  H     10.680623   -8.247981    3.015261
  H      9.048074   -8.278139    2.241576

 Multiplicity           Mult            ....    1
 Number of Electrons    NEL             ....   18
 Basis Dimension        Dim             ....  172

ORBITAL ENERGIES
----------------

  NO   OCC          E(Eh)            E(eV)
   0   2.0000     -19.229888      -523.2719
   1   2.0000     -10.321830      -280.8713
   2   2.0000      -1.137423       -30.9509
   3   2.0000      -0.790690       -21.5158
   4   2.0000      -0.614410       -16.7190
   5   2.0000      -0.538112       -14.6428
   6   2.0000      -0.531588       -14.4652
   7   2.0000      -0.422082       -11.4854
   8   2.0000      -0.366003        -9.9595
   9   0.0000       0.072170         1.9639
  10   0.0000       0.129961         3.5364
  11   0.0000       0.152077         4.1382
  12   0.0000       0.159887         4.3507
  13   0.0000       0.193102         5.2546

MULLIKEN ATOMIC CHARGES
-----------------------
   0 C :    0.001695
   1 O :   -0.000906
   2 H :   -0.000252
   3 H :   -0.000179
   4 H :   -0.003362
   5 H :    0.000106
   6 C :   -0.170206
   7 O :   -0.477551
   8 H :    0.320970
   9 H :    0.102857
  10 H :    0.126916
  11 H :    0.099911
Sum of atomic charges:   -0.0000000

LOEWDIN ATOMIC CHARGES
----------------------
   0 C :   -0.005759
   1 O :   -0.009388
   2 H :   -0.000556
   3 H :   -0.000139
   4 H :   -0.002422
   5 H :   -0.000039
   6 C :   -0.410881
   7 O :   -0.066240
   8 H :    0.184894
   9 H :    0.095632
  10 H :    0.115918
  11 H :    0.098980

  Mayer bond orders larger than 0.1
B(  6-C ,  7-O ) :   0.9879 B(  6-C ,  9-H ) :   0.9751 B(  6-C , 10-H ) :   0.9624
B(  6-C , 11-H ) :   0.9893 B(  7-O ,  8-H ) :   0.8909

Dispersion correction           -0.000253900
FINAL SINGLE POINT ENERGY      -115.727639408592

DIPOLE MOMENT
-------------
                                X             Y             Z
Electronic contribution:     -0.79893       0.64648       1.59672
Nuclear contribution   :      0.69610      -0.40121      -2.18251
                        -----------------------------------------
Total Dipole Moment    :     -0.10283       0.24527      -0.58579
                        -----------------------------------------
Magnitude (a.u.)       :      0.64334
Magnitude (Debye)      :      1.63523

Rotational constants in cm-1:     4.300758     0.829547     0.800799
Rotational constants in MHz : 128933.493035 24869.202828 24007.343274

                             ****ORCA TERMINATED NORMALLY****
TOTAL RUN TIME: 0 days 0 hours 0 minutes 45 seconds 401 msec
