                         Program Version 4.1.2  - RELEASE  -
|  1> #Run DFT-D3 single point of the dimer
|  2> ! wB97X-D3 def2-TZVP TIGHTSCF CHELPG PMODEL PAL8
|  3>
|  4> %base "11-110_DFT_AB"
|  5>
|  6> %scf
|  7> MaxIter 1000
|  8> end
|  9>
| 10> * xyz 0 1
| 11>   C                      -4.783363            4.112619             -2.570429
| 12>   O                      -6.170966            4.051347             -2.271669
| 13>   H                      -6.396381            3.112215             -2.297182
| 14>   H                      -4.677063            4.150604             -3.633048
| 15>   H                      -4.392991            5.100541             -2.206898
| 16>   H                      -4.210136            3.298748             -2.150329
| 17>   C                      -3.148170            5.526536             0.250592
| 18>   O                      -4.122243            6.461500             0.653780
| 19>   H                      -4.972779            6.142392             0.328687
| 20>   H                      -2.964292            5.774731             -0.804132
| 21>   H                      -2.171916            5.713092             0.804986
| 22>   H                      -3.408570            4.525718             0.398298
| 23> *
| 24>
| 25> #Run DFT-D3 single point of the molecule with dimer basis set
| 26> $new_job
| 27> %base "11-110_DFT_A"
| 28> ! wB97X-D3 def2-TZVP TIGHTSCF CHELPG PMODEL
| 29>
| 30> %scf
| 31> MaxIter 1000
| 32> end
| 33>
| 34> * xyz 0 1
| 35>   C                      -4.783363            4.112619             -2.570429
| 36>   O                      -6.170966            4.051347             -2.271669
| 37>   H                      -6.396381            3.112215             -2.297182
| 38>   H                      -4.677063            4.150604             -3.633048
| 39>   H                      -4.392991            5.100541             -2.206898
| 40>   H                      -4.210136            3.298748             -2.150329
| 41>   C                    : -3.148170            5.526536             0.250592
| 42>   O                    : -4.122243            6.461500             0.653780
| 43>   H                    : -4.972779            6.142392             0.328687
| 44>   H                    : -2.964292            5.774731             -0.804132
| 45>   H                    : -2.171916            5.713092             0.804986
| 46>   H                    : -3.408570            4.525718             0.398298
| 47> *
| 48>
| 49> #Run DFT-D3 single point of the particle with dimer basis set
| 50> $new_job
| 51> %base "11-110_DFT_B"
| 52> ! wB97X-D3 def2-TZVP TIGHTSCF CHELPG PMODEL
| 53>
| 54> %scf
| 55> MaxIter 1000
| 56> end
| 57>
| 58> * xyz 0 1
| 59>   C                    : -4.783363            4.112619             -2.570429
| 60>   O                    : -6.170966            4.051347             -2.271669
| 61>   H                    : -6.396381            3.112215             -2.297182
| 62>   H                    : -4.677063            4.150604             -3.633048
| 63>   H                    : -4.392991            5.100541             -2.206898
| 64>   H                    : -4.210136            3.298748             -2.150329
| 65>   C                      -3.148170            5.526536             0.250592
| 66>   O                      -4.122243            6.461500             0.653780
| 67>   H                      -4.972779            6.142392             0.328687
| 68>   H                      -2.964292            5.774731             -0.804132
| 69>   H                      -2.171916            5.713092             0.804986
| 70>   H                      -3.408570            4.525718             0.398298
| 71> *
| 72>
| 73>                          ****END OF INPUT****
 Total Charge           Charge          ....    0
 Multiplicity           Mult            ....    1
 Number of Electrons    NEL             ....   36
Dispersion correction           -0.001900311
FINAL SINGLE POINT ENERGY      -231.467659603756
Dispersion correction           -0.000231413
FINAL SINGLE POINT ENERGY      -115.734699819858

CARTESIAN COORDINATES (ANGSTROEM)
---------------------------------
  C     -4.783363    4.112619   -2.570429
  O     -6.170966    4.051347   -2.271669
  H     -6.396381    3.112215   -2.297182
  H     -4.677063    4.150604   -3.633048
  H     -4.392991    5.100541   -2.206898
  H     -4.210136    3.298748   -2.150329
  C     -3.148170    5.526536    0.250592
  O     -4.122243    6.461500    0.653780
  H     -4.972779    6.142392    0.328687
  H     -2.964292    5.774731   -0.804132
  H     -2.171916    5.713092    0.804986
  H     -3.408570    4.525718    0.398298

 Multiplicity           Mult            ....    1
 Number of Electrons    NEL             ....   18
 Basis Dimension        Dim             ....  172

ORBITAL ENERGIES
----------------

  NO   OCC          E(Eh)            E(eV)
   0   2.0000     -19.228519      -523.2346
   1   2.0000     -10.311680      -280.5951
   2   2.0000      -1.136856       -30.9354
   3   2.0000      -0.793435       -21.5905
   4   2.0000      -0.611773       -16.6472
   5   2.0000      -0.548716       -14.9313
   6   2.0000      -0.522652       -14.2221
   7   2.0000      -0.432756       -11.7759
   8   2.0000      -0.370713       -10.0876
   9   0.0000       0.076247         2.0748
  10   0.0000       0.126506         3.4424
  11   0.0000       0.149196         4.0598
  12   0.0000       0.164421         4.4741
  13   0.0000       0.187047         5.0898

MULLIKEN ATOMIC CHARGES
-----------------------
   0 C :   -0.003255
   1 O :   -0.000146
   2 H :   -0.000031
   3 H :    0.000329
   4 H :    0.004437
   5 H :   -0.001245
   6 C :   -0.172938
   7 O :   -0.473873
   8 H :    0.314126
   9 H :    0.101497
  10 H :    0.119299
  11 H :    0.111799
Sum of atomic charges:   -0.0000000

LOEWDIN ATOMIC CHARGES
----------------------
   0 C :   -0.007836
   1 O :   -0.000142
   2 H :   -0.000010
   3 H :   -0.000027
   4 H :   -0.008247
   5 H :   -0.001149
   6 C :   -0.381170
   7 O :   -0.077781
   8 H :    0.171263
   9 H :    0.103401
  10 H :    0.117368
  11 H :    0.084331

  Mayer bond orders larger than 0.1
B(  6-C ,  7-O ) :   0.9962 B(  6-C ,  9-H ) :   0.9880 B(  6-C , 10-H ) :   0.9711
B(  6-C , 11-H ) :   0.9728 B(  7-O ,  8-H ) :   0.8993

Dispersion correction           -0.000224914
FINAL SINGLE POINT ENERGY      -115.731758171993

DIPOLE MOMENT
-------------
                                X             Y             Z
Electronic contribution:     -1.21820       1.12384       0.62623
Nuclear contribution   :      1.05990      -1.70418      -0.97752
                        -----------------------------------------
Total Dipole Moment    :     -0.15830      -0.58034      -0.35129
                        -----------------------------------------
Magnitude (a.u.)       :      0.69660
Magnitude (Debye)      :      1.77063

Rotational constants in cm-1:     4.250579     0.840642     0.811167
Rotational constants in MHz : 127429.148061 25201.815020 24318.184337

                             ****ORCA TERMINATED NORMALLY****
TOTAL RUN TIME: 0 days 0 hours 1 minutes 8 seconds 760 msec
