                         Program Version 4.1.2  - RELEASE  -
|  1> #Run DFT-D3 single point of the dimer
|  2> ! wB97X-D3 def2-TZVP TIGHTSCF CHELPG PMODEL PAL8
|  3>
|  4> %base "5-186_DFT_AB"
|  5>
|  6> %scf
|  7> MaxIter 1000
|  8> end
|  9>
| 10> * xyz 0 1
| 11>   C                      6.841558             -4.279358            3.593163
| 12>   O                      6.967058             -5.324514            2.727259
| 13>   H                      6.968686             -6.154978            3.242085
| 14>   H                      6.939423             -3.275139            3.211090
| 15>   H                      5.826904             -4.372985            4.033386
| 16>   H                      7.520350             -4.294207            4.443900
| 17>   C                      6.084113             -8.611953            1.806768
| 18>   O                      7.327695             -8.626183            2.447015
| 19>   H                      7.478803             -8.353929            3.386143
| 20>   H                      5.727032             -7.640368            1.558098
| 21>   H                      5.902592             -9.304816            1.042302
| 22>   H                      5.355908             -8.998010            2.538191
| 23> *
| 24>
| 25> #Run DFT-D3 single point of the molecule with dimer basis set
| 26> $new_job
| 27> %base "5-186_DFT_A"
| 28> ! wB97X-D3 def2-TZVP TIGHTSCF CHELPG PMODEL
| 29>
| 30> %scf
| 31> MaxIter 1000
| 32> end
| 33>
| 34> * xyz 0 1
| 35>   C                      6.841558             -4.279358            3.593163
| 36>   O                      6.967058             -5.324514            2.727259
| 37>   H                      6.968686             -6.154978            3.242085
| 38>   H                      6.939423             -3.275139            3.211090
| 39>   H                      5.826904             -4.372985            4.033386
| 40>   H                      7.520350             -4.294207            4.443900
| 41>   C                    : 6.084113             -8.611953            1.806768
| 42>   O                    : 7.327695             -8.626183            2.447015
| 43>   H                    : 7.478803             -8.353929            3.386143
| 44>   H                    : 5.727032             -7.640368            1.558098
| 45>   H                    : 5.902592             -9.304816            1.042302
| 46>   H                    : 5.355908             -8.998010            2.538191
| 47> *
| 48>
| 49> #Run DFT-D3 single point of the particle with dimer basis set
| 50> $new_job
| 51> %base "5-186_DFT_B"
| 52> ! wB97X-D3 def2-TZVP TIGHTSCF CHELPG PMODEL
| 53>
| 54> %scf
| 55> MaxIter 1000
| 56> end
| 57>
| 58> * xyz 0 1
| 59>   C                    : 6.841558             -4.279358            3.593163
| 60>   O                    : 6.967058             -5.324514            2.727259
| 61>   H                    : 6.968686             -6.154978            3.242085
| 62>   H                    : 6.939423             -3.275139            3.211090
| 63>   H                    : 5.826904             -4.372985            4.033386
| 64>   H                    : 7.520350             -4.294207            4.443900
| 65>   C                      6.084113             -8.611953            1.806768
| 66>   O                      7.327695             -8.626183            2.447015
| 67>   H                      7.478803             -8.353929            3.386143
| 68>   H                      5.727032             -7.640368            1.558098
| 69>   H                      5.902592             -9.304816            1.042302
| 70>   H                      5.355908             -8.998010            2.538191
| 71> *
| 72>
| 73>                          ****END OF INPUT****
 Total Charge           Charge          ....    0
 Multiplicity           Mult            ....    1
 Number of Electrons    NEL             ....   36
Dispersion correction           -0.001682876
FINAL SINGLE POINT ENERGY      -231.448591023482
Dispersion correction           -0.000218884
FINAL SINGLE POINT ENERGY      -115.729997296817

CARTESIAN COORDINATES (ANGSTROEM)
---------------------------------
  C      6.841558   -4.279358    3.593163
  O      6.967058   -5.324514    2.727259
  H      6.968686   -6.154978    3.242085
  H      6.939423   -3.275139    3.211090
  H      5.826904   -4.372985    4.033386
  H      7.520350   -4.294207    4.443900
  C      6.084113   -8.611953    1.806768
  O      7.327695   -8.626183    2.447015
  H      7.478803   -8.353929    3.386143
  H      5.727032   -7.640368    1.558098
  H      5.902592   -9.304816    1.042302
  H      5.355908   -8.998010    2.538191

 Multiplicity           Mult            ....    1
 Number of Electrons    NEL             ....   18
 Basis Dimension        Dim             ....  172

ORBITAL ENERGIES
----------------

  NO   OCC          E(Eh)            E(eV)
   0   2.0000     -19.225684      -523.1574
   1   2.0000     -10.307613      -280.4844
   2   2.0000      -1.124951       -30.6115
   3   2.0000      -0.806695       -21.9513
   4   2.0000      -0.617726       -16.8092
   5   2.0000      -0.551863       -15.0170
   6   2.0000      -0.528705       -14.3868
   7   2.0000      -0.404954       -11.0194
   8   2.0000      -0.370200       -10.0737
   9   0.0000       0.080727         2.1967
  10   0.0000       0.118701         3.2300
  11   0.0000       0.147708         4.0193
  12   0.0000       0.181136         4.9290
  13   0.0000       0.193849         5.2749

MULLIKEN ATOMIC CHARGES
-----------------------
   0 C :    0.001721
   1 O :    0.002373
   2 H :   -0.015010
   3 H :    0.000032
   4 H :   -0.000056
   5 H :   -0.000152
   6 C :   -0.138497
   7 O :   -0.517924
   8 H :    0.338464
   9 H :    0.102651
  10 H :    0.129856
  11 H :    0.096543
Sum of atomic charges:    0.0000000

LOEWDIN ATOMIC CHARGES
----------------------
   0 C :   -0.000166
   1 O :   -0.002399
   2 H :   -0.010811
   3 H :   -0.000004
   4 H :   -0.000008
   5 H :   -0.000006
   6 C :   -0.385104
   7 O :   -0.081217
   8 H :    0.189020
   9 H :    0.089415
  10 H :    0.100059
  11 H :    0.101223

  Mayer bond orders larger than 0.1
B(  6-C ,  7-O ) :   0.9820 B(  6-C ,  9-H ) :   0.9773 B(  6-C , 10-H ) :   0.9679
B(  6-C , 11-H ) :   0.9936 B(  7-O ,  8-H ) :   0.8706

Dispersion correction           -0.000265041
FINAL SINGLE POINT ENERGY      -115.719496165774

DIPOLE MOMENT
-------------
                                X             Y             Z
Electronic contribution:      1.76551       0.00062       0.50137
Nuclear contribution   :     -2.21617       0.15007      -0.13130
                        -----------------------------------------
Total Dipole Moment    :     -0.45066       0.15069       0.37006
                        -----------------------------------------
Magnitude (a.u.)       :      0.60229
Magnitude (Debye)      :      1.53089

Rotational constants in cm-1:     4.804356     0.814811     0.799665
Rotational constants in MHz : 144030.970369 24427.427939 23973.355691

                             ****ORCA TERMINATED NORMALLY****
TOTAL RUN TIME: 0 days 0 hours 0 minutes 59 seconds 739 msec
