                         Program Version 4.1.2  - RELEASE  -
|  1> #Run DFT-D3 single point of the dimer
|  2> ! wB97X-D3 def2-TZVP TIGHTSCF  CHELPG PAL8
|  3>
|  4> %base "138_charges"
|  5>
|  6> %scf
|  7> MaxIter 1000
|  8> end
|  9> %output
| 10>   Print[ P_Mayer ] 1
| 11>   Print[ P_NatPop ] 1
| 12>   Print[ P_Hirshfeld ] 1
| 13>   Print[ P_Mulliken ] 1
| 14>   Print [ P_Loewdin ] 1
| 15> end
| 16>
| 17> * xyz 0 1
| 18>   C                      -4.414085            -5.682090            10.708228
| 19>   O                      -4.185422            -6.842183            11.478071
| 20>   H                      -3.353741            -6.760555            12.002385
| 21>   H                      -5.416362            -5.798118            10.255000
| 22>   H                      -4.336928            -4.726463            11.191501
| 23>   H                      -3.632001            -5.546056            9.935420
| 24> *
| 25>
| 26>                          ****END OF INPUT****

CARTESIAN COORDINATES (ANGSTROEM)
---------------------------------
  C     -4.414085   -5.682090   10.708228
  O     -4.185422   -6.842183   11.478071
  H     -3.353741   -6.760555   12.002385
  H     -5.416362   -5.798118   10.255000
  H     -4.336928   -4.726463   11.191501
  H     -3.632001   -5.546056    9.935420

 Total Charge           Charge          ....    0
 Multiplicity           Mult            ....    1
 Number of Electrons    NEL             ....   18
 Basis Dimension        Dim             ....   86

ORBITAL ENERGIES
----------------

  NO   OCC          E(Eh)            E(eV)
   0   2.0000     -19.233455      -523.3689
   1   2.0000     -10.313191      -280.6362
   2   2.0000      -1.131148       -30.7801
   3   2.0000      -0.794940       -21.6314
   4   2.0000      -0.617966       -16.8157
   5   2.0000      -0.531287       -14.4571
   6   2.0000      -0.521993       -14.2041
   7   2.0000      -0.437902       -11.9159
   8   2.0000      -0.369697       -10.0600
   9   0.0000       0.112808         3.0697
  10   0.0000       0.153025         4.1640
  11   0.0000       0.197479         5.3737
  12   0.0000       0.206625         5.6226
  13   0.0000       0.233946         6.3660

MULLIKEN ATOMIC CHARGES
-----------------------
   0 C :   -0.156040
   1 O :   -0.478942
   2 H :    0.315844
   3 H :    0.122413
   4 H :    0.103140
   5 H :    0.093586
Sum of atomic charges:   -0.0000000

LOEWDIN ATOMIC CHARGES
----------------------
   0 C :   -0.394164
   1 O :   -0.085538
   2 H :    0.182691
   3 H :    0.114159
   4 H :    0.088245
   5 H :    0.094607

  Mayer bond orders larger than 0.1
B(  0-C ,  1-O ) :   1.0011 B(  0-C ,  3-H ) :   0.9748 B(  0-C ,  4-H ) :   0.9679
B(  0-C ,  5-H ) :   0.9769 B(  1-O ,  2-H ) :   0.8928

Dispersion correction           -0.000257705
FINAL SINGLE POINT ENERGY      -115.732738602255

DIPOLE MOMENT
-------------
                                X             Y             Z
Electronic contribution:      0.11461      -1.56009       1.02852
Nuclear contribution   :      0.32511       2.08088      -0.98486
                        -----------------------------------------
Total Dipole Moment    :      0.43972       0.52078       0.04366
                        -----------------------------------------
Magnitude (a.u.)       :      0.68299
Magnitude (Debye)      :      1.73602

Rotational constants in cm-1:     4.330694     0.831281     0.788310
Rotational constants in MHz : 129830.950826 24921.190476 23632.933482

                             ****ORCA TERMINATED NORMALLY****
TOTAL RUN TIME: 0 days 0 hours 0 minutes 40 seconds 851 msec
