                         Program Version 4.1.2  - RELEASE  -
|  1> #Run DFT-D3 single point of the dimer
|  2> ! wB97X-D3 def2-TZVP TIGHTSCF CHELPG PMODEL PAL8
|  3>
|  4> %base "4-16_DFT_AB"
|  5>
|  6> %scf
|  7> MaxIter 1000
|  8> end
|  9>
| 10> * xyz 0 1
| 11>   C                      -3.440480            1.608124             -5.363870
| 12>   O                      -4.023051            1.698251             -6.686188
| 13>   H                      -4.350094            0.892071             -7.073146
| 14>   H                      -4.299878            1.217766             -4.707092
| 15>   H                      -2.598717            0.960056             -5.139841
| 16>   H                      -3.210669            2.597576             -4.898620
| 17>   C                      -1.960716            -1.248465            -7.519585
| 18>   O                      -1.515087            -2.388539            -6.770776
| 19>   H                      -1.940425            -3.175903            -7.101188
| 20>   H                      -1.128487            -0.496994            -7.700805
| 21>   H                      -2.279092            -1.575083            -8.453508
| 22>   H                      -2.754508            -0.764400            -6.987525
| 23> *
| 24>
| 25> #Run DFT-D3 single point of the molecule with dimer basis set
| 26> $new_job
| 27> %base "4-16_DFT_A"
| 28> ! wB97X-D3 def2-TZVP TIGHTSCF CHELPG PMODEL
| 29>
| 30> %scf
| 31> MaxIter 1000
| 32> end
| 33>
| 34> * xyz 0 1
| 35>   C                      -3.440480            1.608124             -5.363870
| 36>   O                      -4.023051            1.698251             -6.686188
| 37>   H                      -4.350094            0.892071             -7.073146
| 38>   H                      -4.299878            1.217766             -4.707092
| 39>   H                      -2.598717            0.960056             -5.139841
| 40>   H                      -3.210669            2.597576             -4.898620
| 41>   C                    : -1.960716            -1.248465            -7.519585
| 42>   O                    : -1.515087            -2.388539            -6.770776
| 43>   H                    : -1.940425            -3.175903            -7.101188
| 44>   H                    : -1.128487            -0.496994            -7.700805
| 45>   H                    : -2.279092            -1.575083            -8.453508
| 46>   H                    : -2.754508            -0.764400            -6.987525
| 47> *
| 48>
| 49> #Run DFT-D3 single point of the particle with dimer basis set
| 50> $new_job
| 51> %base "4-16_DFT_B"
| 52> ! wB97X-D3 def2-TZVP TIGHTSCF CHELPG PMODEL
| 53>
| 54> %scf
| 55> MaxIter 1000
| 56> end
| 57>
| 58> * xyz 0 1
| 59>   C                    : -3.440480            1.608124             -5.363870
| 60>   O                    : -4.023051            1.698251             -6.686188
| 61>   H                    : -4.350094            0.892071             -7.073146
| 62>   H                    : -4.299878            1.217766             -4.707092
| 63>   H                    : -2.598717            0.960056             -5.139841
| 64>   H                    : -3.210669            2.597576             -4.898620
| 65>   C                      -1.960716            -1.248465            -7.519585
| 66>   O                      -1.515087            -2.388539            -6.770776
| 67>   H                      -1.940425            -3.175903            -7.101188
| 68>   H                      -1.128487            -0.496994            -7.700805
| 69>   H                      -2.279092            -1.575083            -8.453508
| 70>   H                      -2.754508            -0.764400            -6.987525
| 71> *
| 72>
| 73>                          ****END OF INPUT****
 Total Charge           Charge          ....    0
 Multiplicity           Mult            ....    1
 Number of Electrons    NEL             ....   36
Dispersion correction           -0.001786172
FINAL SINGLE POINT ENERGY      -231.457179766933
Dispersion correction           -0.000299515
FINAL SINGLE POINT ENERGY      -115.724674548313

CARTESIAN COORDINATES (ANGSTROEM)
---------------------------------
  C     -3.440480    1.608124   -5.363870
  O     -4.023051    1.698251   -6.686188
  H     -4.350094    0.892071   -7.073146
  H     -4.299878    1.217766   -4.707092
  H     -2.598717    0.960056   -5.139841
  H     -3.210669    2.597576   -4.898620
  C     -1.960716   -1.248465   -7.519585
  O     -1.515087   -2.388539   -6.770776
  H     -1.940425   -3.175903   -7.101188
  H     -1.128487   -0.496994   -7.700805
  H     -2.279092   -1.575083   -8.453508
  H     -2.754508   -0.764400   -6.987525

 Multiplicity           Mult            ....    1
 Number of Electrons    NEL             ....   18
 Basis Dimension        Dim             ....  172

ORBITAL ENERGIES
----------------

  NO   OCC          E(Eh)            E(eV)
   0   2.0000     -19.225717      -523.1584
   1   2.0000     -10.311296      -280.5846
   2   2.0000      -1.128704       -30.7136
   3   2.0000      -0.799386       -21.7524
   4   2.0000      -0.609543       -16.5865
   5   2.0000      -0.545223       -14.8363
   6   2.0000      -0.524647       -14.2764
   7   2.0000      -0.430458       -11.7134
   8   2.0000      -0.373669       -10.1681
   9   0.0000       0.087678         2.3858
  10   0.0000       0.117504         3.1974
  11   0.0000       0.148162         4.0317
  12   0.0000       0.173072         4.7095
  13   0.0000       0.190292         5.1781

MULLIKEN ATOMIC CHARGES
-----------------------
   0 C :   -0.000172
   1 O :   -0.000368
   2 H :   -0.001894
   3 H :   -0.000268
   4 H :    0.002319
   5 H :    0.000213
   6 C :   -0.159072
   7 O :   -0.487595
   8 H :    0.314539
   9 H :    0.110250
  10 H :    0.110537
  11 H :    0.111512
Sum of atomic charges:   -0.0000000

LOEWDIN ATOMIC CHARGES
----------------------
   0 C :   -0.005605
   1 O :   -0.001588
   2 H :   -0.005163
   3 H :   -0.000101
   4 H :   -0.001717
   5 H :   -0.000042
   6 C :   -0.354401
   7 O :   -0.092127
   8 H :    0.162038
   9 H :    0.115451
  10 H :    0.084793
  11 H :    0.098461

  Mayer bond orders larger than 0.1
B(  6-C ,  7-O ) :   0.9901 B(  6-C ,  9-H ) :   0.9692 B(  6-C , 10-H ) :   0.9884
B(  6-C , 11-H ) :   0.9746 B(  7-O ,  8-H ) :   0.9008

Dispersion correction           -0.000242365
FINAL SINGLE POINT ENERGY      -115.731756426649

DIPOLE MOMENT
-------------
                                X             Y             Z
Electronic contribution:      0.57230      -1.33916       0.97962
Nuclear contribution   :     -1.04453       1.29297      -1.53254
                        -----------------------------------------
Total Dipole Moment    :     -0.47223      -0.04619      -0.55293
                        -----------------------------------------
Magnitude (a.u.)       :      0.72860
Magnitude (Debye)      :      1.85197

Rotational constants in cm-1:     4.383855     0.812410     0.787750
Rotational constants in MHz : 131424.658043 24355.435114 23616.142859

                             ****ORCA TERMINATED NORMALLY****
TOTAL RUN TIME: 0 days 0 hours 1 minutes 27 seconds 317 msec
