                         Program Version 4.1.2  - RELEASE  -
|  1> #Run DFT-D3 single point of the dimer
|  2> ! wB97X-D3 def2-TZVP TIGHTSCF  CHELPG PAL8
|  3>
|  4> %base "121_charges"
|  5>
|  6> %scf
|  7> MaxIter 1000
|  8> end
|  9> %output
| 10>   Print[ P_Mayer ] 1
| 11>   Print[ P_NatPop ] 1
| 12>   Print[ P_Hirshfeld ] 1
| 13>   Print[ P_Mulliken ] 1
| 14>   Print [ P_Loewdin ] 1
| 15> end
| 16>
| 17> * xyz 0 1
| 18>   C                      5.889398             1.177556             -5.232951
| 19>   O                      7.062627             1.447429             -5.998350
| 20>   H                      7.000826             2.330688             -6.336220
| 21>   H                      5.833499             1.833462             -4.332826
| 22>   H                      5.002344             1.340844             -5.867606
| 23>   H                      5.904293             0.146862             -4.844105
| 24> *
| 25>
| 26>                          ****END OF INPUT****

CARTESIAN COORDINATES (ANGSTROEM)
---------------------------------
  C      5.889398    1.177556   -5.232951
  O      7.062627    1.447429   -5.998350
  H      7.000826    2.330688   -6.336220
  H      5.833499    1.833462   -4.332826
  H      5.002344    1.340844   -5.867606
  H      5.904293    0.146862   -4.844105

 Total Charge           Charge          ....    0
 Multiplicity           Mult            ....    1
 Number of Electrons    NEL             ....   18
 Basis Dimension        Dim             ....   86

ORBITAL ENERGIES
----------------

  NO   OCC          E(Eh)            E(eV)
   0   2.0000     -19.227769      -523.2142
   1   2.0000     -10.318569      -280.7825
   2   2.0000      -1.134239       -30.8642
   3   2.0000      -0.793697       -21.5976
   4   2.0000      -0.607186       -16.5224
   5   2.0000      -0.541540       -14.7361
   6   2.0000      -0.526019       -14.3137
   7   2.0000      -0.432765       -11.7761
   8   2.0000      -0.373252       -10.1567
   9   0.0000       0.116539         3.1712
  10   0.0000       0.154716         4.2100
  11   0.0000       0.201308         5.4779
  12   0.0000       0.202567         5.5121
  13   0.0000       0.221746         6.0340

MULLIKEN ATOMIC CHARGES
-----------------------
   0 C :   -0.160803
   1 O :   -0.478916
   2 H :    0.313203
   3 H :    0.099691
   4 H :    0.104308
   5 H :    0.122517
Sum of atomic charges:   -0.0000000

LOEWDIN ATOMIC CHARGES
----------------------
   0 C :   -0.378557
   1 O :   -0.084337
   2 H :    0.159168
   3 H :    0.096854
   4 H :    0.096544
   5 H :    0.110328

  Mayer bond orders larger than 0.1
B(  0-C ,  1-O ) :   0.9934 B(  0-C ,  3-H ) :   0.9739 B(  0-C ,  4-H ) :   0.9787
B(  0-C ,  5-H ) :   0.9715 B(  1-O ,  2-H ) :   0.9014

Dispersion correction           -0.000243034
FINAL SINGLE POINT ENERGY      -115.736087914223

DIPOLE MOMENT
-------------
                                X             Y             Z
Electronic contribution:      1.52750       0.17550      -0.96339
Nuclear contribution   :     -2.03938       0.26813       1.06053
                        -----------------------------------------
Total Dipole Moment    :     -0.51188       0.44363       0.09714
                        -----------------------------------------
Magnitude (a.u.)       :      0.68430
Magnitude (Debye)      :      1.73935

Rotational constants in cm-1:     4.221795     0.817624     0.790799
Rotational constants in MHz : 126566.239431 24511.750605 23707.572236

                             ****ORCA TERMINATED NORMALLY****
TOTAL RUN TIME: 0 days 0 hours 0 minutes 44 seconds 19 msec
