                         Program Version 4.1.2  - RELEASE  -
|  1> #Run DFT-D3 single point of the dimer
|  2> ! wB97X-D3 def2-TZVP TIGHTSCF CHELPG PMODEL PAL8
|  3>
|  4> %base "4-118_DFT_AB"
|  5>
|  6> %scf
|  7> MaxIter 1000
|  8> end
|  9>
| 10> * xyz 0 1
| 11>   C                      3.525039             -9.013006            5.976572
| 12>   O                      4.752287             -9.411188            6.515313
| 13>   H                      4.589304             -9.839890            7.341963
| 14>   H                      2.971183             -8.294431            6.716489
| 15>   H                      3.600566             -8.576698            4.959692
| 16>   H                      2.900982             -9.866116            5.721810
| 17>   C                      7.856443             -9.389643            7.401398
| 18>   O                      9.152816             -9.756470            7.777369
| 19>   H                      8.957298             -10.307832           8.542634
| 20>   H                      7.450292             -8.700106            8.069318
| 21>   H                      7.654278             -8.999541            6.338729
| 22>   H                      7.305150             -10.304182           7.327361
| 23> *
| 24>
| 25> #Run DFT-D3 single point of the molecule with dimer basis set
| 26> $new_job
| 27> %base "4-118_DFT_A"
| 28> ! wB97X-D3 def2-TZVP TIGHTSCF CHELPG PMODEL
| 29>
| 30> %scf
| 31> MaxIter 1000
| 32> end
| 33>
| 34> * xyz 0 1
| 35>   C                      3.525039             -9.013006            5.976572
| 36>   O                      4.752287             -9.411188            6.515313
| 37>   H                      4.589304             -9.839890            7.341963
| 38>   H                      2.971183             -8.294431            6.716489
| 39>   H                      3.600566             -8.576698            4.959692
| 40>   H                      2.900982             -9.866116            5.721810
| 41>   C                    : 7.856443             -9.389643            7.401398
| 42>   O                    : 9.152816             -9.756470            7.777369
| 43>   H                    : 8.957298             -10.307832           8.542634
| 44>   H                    : 7.450292             -8.700106            8.069318
| 45>   H                    : 7.654278             -8.999541            6.338729
| 46>   H                    : 7.305150             -10.304182           7.327361
| 47> *
| 48>
| 49> #Run DFT-D3 single point of the particle with dimer basis set
| 50> $new_job
| 51> %base "4-118_DFT_B"
| 52> ! wB97X-D3 def2-TZVP TIGHTSCF CHELPG PMODEL
| 53>
| 54> %scf
| 55> MaxIter 1000
| 56> end
| 57>
| 58> * xyz 0 1
| 59>   C                    : 3.525039             -9.013006            5.976572
| 60>   O                    : 4.752287             -9.411188            6.515313
| 61>   H                    : 4.589304             -9.839890            7.341963
| 62>   H                    : 2.971183             -8.294431            6.716489
| 63>   H                    : 3.600566             -8.576698            4.959692
| 64>   H                    : 2.900982             -9.866116            5.721810
| 65>   C                      7.856443             -9.389643            7.401398
| 66>   O                      9.152816             -9.756470            7.777369
| 67>   H                      8.957298             -10.307832           8.542634
| 68>   H                      7.450292             -8.700106            8.069318
| 69>   H                      7.654278             -8.999541            6.338729
| 70>   H                      7.305150             -10.304182           7.327361
| 71> *
| 72>
| 73>                          ****END OF INPUT****
 Total Charge           Charge          ....    0
 Multiplicity           Mult            ....    1
 Number of Electrons    NEL             ....   36
Dispersion correction           -0.001531866
FINAL SINGLE POINT ENERGY      -231.455107985369
Dispersion correction           -0.000247679
FINAL SINGLE POINT ENERGY      -115.730308710478

CARTESIAN COORDINATES (ANGSTROEM)
---------------------------------
  C      3.525039   -9.013006    5.976572
  O      4.752287   -9.411188    6.515313
  H      4.589304   -9.839890    7.341963
  H      2.971183   -8.294431    6.716489
  H      3.600566   -8.576698    4.959692
  H      2.900982   -9.866116    5.721810
  C      7.856443   -9.389643    7.401398
  O      9.152816   -9.756470    7.777369
  H      8.957298  -10.307832    8.542634
  H      7.450292   -8.700106    8.069318
  H      7.654278   -8.999541    6.338729
  H      7.305150  -10.304182    7.327361

 Multiplicity           Mult            ....    1
 Number of Electrons    NEL             ....   18
 Basis Dimension        Dim             ....  172

ORBITAL ENERGIES
----------------

  NO   OCC          E(Eh)            E(eV)
   0   2.0000     -19.232038      -523.3304
   1   2.0000     -10.309280      -280.5298
   2   2.0000      -1.146716       -31.2037
   3   2.0000      -0.793284       -21.5864
   4   2.0000      -0.609153       -16.5759
   5   2.0000      -0.563190       -15.3252
   6   2.0000      -0.528222       -14.3737
   7   2.0000      -0.423915       -11.5353
   8   2.0000      -0.376981       -10.2582
   9   0.0000       0.080710         2.1962
  10   0.0000       0.114884         3.1262
  11   0.0000       0.141086         3.8391
  12   0.0000       0.170199         4.6314
  13   0.0000       0.190062         5.1719

MULLIKEN ATOMIC CHARGES
-----------------------
   0 C :   -0.000107
   1 O :   -0.000182
   2 H :   -0.000950
   3 H :   -0.000006
   4 H :   -0.000028
   5 H :    0.000001
   6 C :   -0.189453
   7 O :   -0.459522
   8 H :    0.319041
   9 H :    0.112960
  10 H :    0.113059
  11 H :    0.105187
Sum of atomic charges:   -0.0000000

LOEWDIN ATOMIC CHARGES
----------------------
   0 C :   -0.000178
   1 O :   -0.003362
   2 H :   -0.002011
   3 H :   -0.000003
   4 H :   -0.000012
   5 H :   -0.000004
   6 C :   -0.406505
   7 O :   -0.065812
   8 H :    0.179618
   9 H :    0.084214
  10 H :    0.119490
  11 H :    0.094565

  Mayer bond orders larger than 0.1
B(  6-C ,  7-O ) :   0.9989 B(  6-C ,  9-H ) :   0.9744 B(  6-C , 10-H ) :   0.9663
B(  6-C , 11-H ) :   0.9920 B(  7-O ,  8-H ) :   0.8990

Dispersion correction           -0.000211994
FINAL SINGLE POINT ENERGY      -115.723229764008

DIPOLE MOMENT
-------------
                                X             Y             Z
Electronic contribution:      1.83868      -0.28784       0.47396
Nuclear contribution   :     -2.46767       0.06736      -0.15052
                        -----------------------------------------
Total Dipole Moment    :     -0.62899      -0.22048       0.32344
                        -----------------------------------------
Magnitude (a.u.)       :      0.74084
Magnitude (Debye)      :      1.88307

Rotational constants in cm-1:     4.410649     0.844762     0.821306
Rotational constants in MHz : 132227.942056 25325.314834 24622.128749

                             ****ORCA TERMINATED NORMALLY****
TOTAL RUN TIME: 0 days 0 hours 1 minutes 27 seconds 176 msec
