                         Program Version 4.1.2  - RELEASE  -
|  1> #Run DFT-D3 single point of the dimer
|  2> ! wB97X-D3 def2-TZVP TIGHTSCF CHELPG PMODEL PAL8
|  3>
|  4> %base "7-89_DFT_AB"
|  5>
|  6> %scf
|  7> MaxIter 1000
|  8> end
|  9>
| 10> * xyz 0 1
| 11>   C                      -4.531715            -3.327488            3.855180
| 12>   O                      -5.285925            -4.508734            4.030222
| 13>   H                      -4.623814            -5.225967            3.998889
| 14>   H                      -4.056107            -3.085744            4.805620
| 15>   H                      -3.844368            -3.437728            3.013197
| 16>   H                      -5.163979            -2.483007            3.642173
| 17>   C                      -4.463582            -1.354472            0.559463
| 18>   O                      -5.340438            -2.213762            -0.128602
| 19>   H                      -6.211150            -1.951602            -0.000589
| 20>   H                      -4.627158            -1.465617            1.596524
| 21>   H                      -3.468846            -1.728514            0.454134
| 22>   H                      -4.436178            -0.307758            0.291256
| 23> *
| 24>
| 25> #Run DFT-D3 single point of the molecule with dimer basis set
| 26> $new_job
| 27> %base "7-89_DFT_A"
| 28> ! wB97X-D3 def2-TZVP TIGHTSCF CHELPG PMODEL
| 29>
| 30> %scf
| 31> MaxIter 1000
| 32> end
| 33>
| 34> * xyz 0 1
| 35>   C                      -4.531715            -3.327488            3.855180
| 36>   O                      -5.285925            -4.508734            4.030222
| 37>   H                      -4.623814            -5.225967            3.998889
| 38>   H                      -4.056107            -3.085744            4.805620
| 39>   H                      -3.844368            -3.437728            3.013197
| 40>   H                      -5.163979            -2.483007            3.642173
| 41>   C                    : -4.463582            -1.354472            0.559463
| 42>   O                    : -5.340438            -2.213762            -0.128602
| 43>   H                    : -6.211150            -1.951602            -0.000589
| 44>   H                    : -4.627158            -1.465617            1.596524
| 45>   H                    : -3.468846            -1.728514            0.454134
| 46>   H                    : -4.436178            -0.307758            0.291256
| 47> *
| 48>
| 49> #Run DFT-D3 single point of the particle with dimer basis set
| 50> $new_job
| 51> %base "7-89_DFT_B"
| 52> ! wB97X-D3 def2-TZVP TIGHTSCF CHELPG PMODEL
| 53>
| 54> %scf
| 55> MaxIter 1000
| 56> end
| 57>
| 58> * xyz 0 1
| 59>   C                    : -4.531715            -3.327488            3.855180
| 60>   O                    : -5.285925            -4.508734            4.030222
| 61>   H                    : -4.623814            -5.225967            3.998889
| 62>   H                    : -4.056107            -3.085744            4.805620
| 63>   H                    : -3.844368            -3.437728            3.013197
| 64>   H                    : -5.163979            -2.483007            3.642173
| 65>   C                      -4.463582            -1.354472            0.559463
| 66>   O                      -5.340438            -2.213762            -0.128602
| 67>   H                      -6.211150            -1.951602            -0.000589
| 68>   H                      -4.627158            -1.465617            1.596524
| 69>   H                      -3.468846            -1.728514            0.454134
| 70>   H                      -4.436178            -0.307758            0.291256
| 71> *
| 72>
| 73>                          ****END OF INPUT****
 Total Charge           Charge          ....    0
 Multiplicity           Mult            ....    1
 Number of Electrons    NEL             ....   36
Dispersion correction           -0.001532706
FINAL SINGLE POINT ENERGY      -231.466712212843
Dispersion correction           -0.000221102
FINAL SINGLE POINT ENERGY      -115.734603992664

CARTESIAN COORDINATES (ANGSTROEM)
---------------------------------
  C     -4.531715   -3.327488    3.855180
  O     -5.285925   -4.508734    4.030222
  H     -4.623814   -5.225967    3.998889
  H     -4.056107   -3.085744    4.805620
  H     -3.844368   -3.437728    3.013197
  H     -5.163979   -2.483007    3.642173
  C     -4.463582   -1.354472    0.559463
  O     -5.340438   -2.213762   -0.128602
  H     -6.211150   -1.951602   -0.000589
  H     -4.627158   -1.465617    1.596524
  H     -3.468846   -1.728514    0.454134
  H     -4.436178   -0.307758    0.291256

 Multiplicity           Mult            ....    1
 Number of Electrons    NEL             ....   18
 Basis Dimension        Dim             ....  172

ORBITAL ENERGIES
----------------

  NO   OCC          E(Eh)            E(eV)
   0   2.0000     -19.225770      -523.1598
   1   2.0000     -10.303244      -280.3655
   2   2.0000      -1.144864       -31.1533
   3   2.0000      -0.807937       -21.9851
   4   2.0000      -0.618649       -16.8343
   5   2.0000      -0.548783       -14.9331
   6   2.0000      -0.529255       -14.4018
   7   2.0000      -0.431474       -11.7410
   8   2.0000      -0.377021       -10.2593
   9   0.0000       0.087950         2.3932
  10   0.0000       0.127520         3.4700
  11   0.0000       0.153635         4.1806
  12   0.0000       0.171878         4.6770
  13   0.0000       0.196446         5.3456

MULLIKEN ATOMIC CHARGES
-----------------------
   0 C :    0.002614
   1 O :   -0.000091
   2 H :   -0.000004
   3 H :    0.000624
   4 H :   -0.001623
   5 H :    0.000181
   6 C :   -0.161321
   7 O :   -0.473080
   8 H :    0.306909
   9 H :    0.100551
  10 H :    0.116233
  11 H :    0.109007
Sum of atomic charges:    0.0000000

LOEWDIN ATOMIC CHARGES
----------------------
   0 C :   -0.005908
   1 O :   -0.000031
   2 H :   -0.000009
   3 H :   -0.000023
   4 H :   -0.001661
   5 H :   -0.003608
   6 C :   -0.376668
   7 O :   -0.047060
   8 H :    0.140352
   9 H :    0.093535
  10 H :    0.107457
  11 H :    0.093623

  Mayer bond orders larger than 0.1
B(  6-C ,  7-O ) :   0.9935 B(  6-C ,  9-H ) :   0.9846 B(  6-C , 10-H ) :   0.9769
B(  6-C , 11-H ) :   0.9710 B(  7-O ,  8-H ) :   0.9090

Dispersion correction           -0.000239403
FINAL SINGLE POINT ENERGY      -115.731683012125

DIPOLE MOMENT
-------------
                                X             Y             Z
Electronic contribution:     -1.10920      -1.06996      -0.99406
Nuclear contribution   :      0.90786       1.57457       1.36900
                        -----------------------------------------
Total Dipole Moment    :     -0.20134       0.50461       0.37494
                        -----------------------------------------
Magnitude (a.u.)       :      0.66011
Magnitude (Debye)      :      1.67787

Rotational constants in cm-1:     4.660747     0.833858     0.811624
Rotational constants in MHz : 139725.693184 24998.421666 24331.884672

                             ****ORCA TERMINATED NORMALLY****
TOTAL RUN TIME: 0 days 0 hours 1 minutes 1 seconds 533 msec
