                         Program Version 4.1.2  - RELEASE  -
|  1> #Run DFT-D3 single point of the dimer
|  2> ! wB97X-D3 def2-TZVP TIGHTSCF CHELPG PMODEL PAL8
|  3>
|  4> %base "18-115_DFT_AB"
|  5>
|  6> %scf
|  7> MaxIter 1000
|  8> end
|  9>
| 10> * xyz 0 1
| 11>   C                      1.536306             -11.056976           -5.681817
| 12>   O                      1.443532             -9.917052            -6.467092
| 13>   H                      2.378982             -9.721470            -6.647489
| 14>   H                      0.576598             -11.390417           -5.272839
| 15>   H                      1.904503             -11.918158           -6.229317
| 16>   H                      2.254301             -10.950616           -4.839417
| 17>   C                      2.541518             -8.816001            -2.541109
| 18>   O                      1.951085             -7.558709            -2.840185
| 19>   H                      2.604993             -6.849157            -2.959869
| 20>   H                      3.031251             -9.352187            -3.408719
| 21>   H                      3.253855             -8.789425            -1.676795
| 22>   H                      1.711851             -9.487703            -2.274370
| 23> *
| 24>
| 25> #Run DFT-D3 single point of the molecule with dimer basis set
| 26> $new_job
| 27> %base "18-115_DFT_A"
| 28> ! wB97X-D3 def2-TZVP TIGHTSCF CHELPG PMODEL
| 29>
| 30> %scf
| 31> MaxIter 1000
| 32> end
| 33>
| 34> * xyz 0 1
| 35>   C                      1.536306             -11.056976           -5.681817
| 36>   O                      1.443532             -9.917052            -6.467092
| 37>   H                      2.378982             -9.721470            -6.647489
| 38>   H                      0.576598             -11.390417           -5.272839
| 39>   H                      1.904503             -11.918158           -6.229317
| 40>   H                      2.254301             -10.950616           -4.839417
| 41>   C                    : 2.541518             -8.816001            -2.541109
| 42>   O                    : 1.951085             -7.558709            -2.840185
| 43>   H                    : 2.604993             -6.849157            -2.959869
| 44>   H                    : 3.031251             -9.352187            -3.408719
| 45>   H                    : 3.253855             -8.789425            -1.676795
| 46>   H                    : 1.711851             -9.487703            -2.274370
| 47> *
| 48>
| 49> #Run DFT-D3 single point of the particle with dimer basis set
| 50> $new_job
| 51> %base "18-115_DFT_B"
| 52> ! wB97X-D3 def2-TZVP TIGHTSCF CHELPG PMODEL
| 53>
| 54> %scf
| 55> MaxIter 1000
| 56> end
| 57>
| 58> * xyz 0 1
| 59>   C                    : 1.536306             -11.056976           -5.681817
| 60>   O                    : 1.443532             -9.917052            -6.467092
| 61>   H                    : 2.378982             -9.721470            -6.647489
| 62>   H                    : 0.576598             -11.390417           -5.272839
| 63>   H                    : 1.904503             -11.918158           -6.229317
| 64>   H                    : 2.254301             -10.950616           -4.839417
| 65>   C                      2.541518             -8.816001            -2.541109
| 66>   O                      1.951085             -7.558709            -2.840185
| 67>   H                      2.604993             -6.849157            -2.959869
| 68>   H                      3.031251             -9.352187            -3.408719
| 69>   H                      3.253855             -8.789425            -1.676795
| 70>   H                      1.711851             -9.487703            -2.274370
| 71> *
| 72>
| 73>                          ****END OF INPUT****
 Total Charge           Charge          ....    0
 Multiplicity           Mult            ....    1
 Number of Electrons    NEL             ....   36
Dispersion correction           -0.001553666
FINAL SINGLE POINT ENERGY      -231.467901738030
Dispersion correction           -0.000221920
FINAL SINGLE POINT ENERGY      -115.733776799534

CARTESIAN COORDINATES (ANGSTROEM)
---------------------------------
  C      1.536306  -11.056976   -5.681817
  O      1.443532   -9.917052   -6.467092
  H      2.378982   -9.721470   -6.647489
  H      0.576598  -11.390417   -5.272839
  H      1.904503  -11.918158   -6.229317
  H      2.254301  -10.950616   -4.839417
  C      2.541518   -8.816001   -2.541109
  O      1.951085   -7.558709   -2.840185
  H      2.604993   -6.849157   -2.959869
  H      3.031251   -9.352187   -3.408719
  H      3.253855   -8.789425   -1.676795
  H      1.711851   -9.487703   -2.274370

 Multiplicity           Mult            ....    1
 Number of Electrons    NEL             ....   18
 Basis Dimension        Dim             ....  172

ORBITAL ENERGIES
----------------

  NO   OCC          E(Eh)            E(eV)
   0   2.0000     -19.233012      -523.3569
   1   2.0000     -10.321187      -280.8538
   2   2.0000      -1.130012       -30.7492
   3   2.0000      -0.793062       -21.5803
   4   2.0000      -0.608702       -16.5636
   5   2.0000      -0.535379       -14.5684
   6   2.0000      -0.522169       -14.2089
   7   2.0000      -0.427888       -11.6434
   8   2.0000      -0.374851       -10.2002
   9   0.0000       0.087539         2.3821
  10   0.0000       0.118402         3.2219
  11   0.0000       0.151739         4.1290
  12   0.0000       0.165565         4.5052
  13   0.0000       0.187212         5.0943

MULLIKEN ATOMIC CHARGES
-----------------------
   0 C :    0.003000
   1 O :   -0.000015
   2 H :   -0.000104
   3 H :   -0.000312
   4 H :   -0.000041
   5 H :   -0.003571
   6 C :   -0.164401
   7 O :   -0.480951
   8 H :    0.317356
   9 H :    0.101737
  10 H :    0.105551
  11 H :    0.121752
Sum of atomic charges:    0.0000000

LOEWDIN ATOMIC CHARGES
----------------------
   0 C :   -0.002714
   1 O :   -0.000074
   2 H :   -0.000148
   3 H :   -0.000070
   4 H :   -0.000005
   5 H :   -0.006132
   6 C :   -0.391043
   7 O :   -0.085182
   8 H :    0.173076
   9 H :    0.102348
  10 H :    0.098123
  11 H :    0.111821

  Mayer bond orders larger than 0.1
B(  6-C ,  7-O ) :   1.0003 B(  6-C ,  9-H ) :   0.9661 B(  6-C , 10-H ) :   0.9683
B(  6-C , 11-H ) :   0.9754 B(  7-O ,  8-H ) :   0.8933

Dispersion correction           -0.000285919
FINAL SINGLE POINT ENERGY      -115.734472921229

DIPOLE MOMENT
-------------
                                X             Y             Z
Electronic contribution:     -0.82761       1.65593      -0.37741
Nuclear contribution   :      1.45924      -1.70271       0.43088
                        -----------------------------------------
Total Dipole Moment    :      0.63162      -0.04678       0.05347
                        -----------------------------------------
Magnitude (a.u.)       :      0.63561
Magnitude (Debye)      :      1.61559

Rotational constants in cm-1:     4.260892     0.805679     0.781904
Rotational constants in MHz : 127738.315412 24153.657896 23440.903273

                             ****ORCA TERMINATED NORMALLY****
TOTAL RUN TIME: 0 days 0 hours 1 minutes 6 seconds 847 msec
