                         Program Version 4.1.2  - RELEASE  -
|  1> #Run DFT-D3 single point of the dimer
|  2> ! wB97X-D3 def2-TZVP TIGHTSCF CHELPG PMODEL PAL8
|  3>
|  4> %base "14-173_DFT_AB"
|  5>
|  6> %scf
|  7> MaxIter 1000
|  8> end
|  9>
| 10> * xyz 0 1
| 11>   C                      -10.087581           -1.212474            -9.669881
| 12>   O                      -9.263157            -0.086489            -9.994473
| 13>   H                      -8.491873            -0.476232            -10.390221
| 14>   H                      -11.102939           -0.924491            -9.323504
| 15>   H                      -10.176577           -1.898669            -10.562449
| 16>   H                      -9.520877            -1.804414            -8.913006
| 17>   C                      -11.198574           2.196297             -8.663899
| 18>   O                      -9.934511            2.627828             -9.106042
| 19>   H                      -9.437128            2.008321             -9.679980
| 20>   H                      -11.242939           1.426187             -7.873173
| 21>   H                      -11.747869           3.026897             -8.234249
| 22>   H                      -11.859639           1.793048             -9.379719
| 23> *
| 24>
| 25> #Run DFT-D3 single point of the molecule with dimer basis set
| 26> $new_job
| 27> %base "14-173_DFT_A"
| 28> ! wB97X-D3 def2-TZVP TIGHTSCF CHELPG PMODEL
| 29>
| 30> %scf
| 31> MaxIter 1000
| 32> end
| 33>
| 34> * xyz 0 1
| 35>   C                      -10.087581           -1.212474            -9.669881
| 36>   O                      -9.263157            -0.086489            -9.994473
| 37>   H                      -8.491873            -0.476232            -10.390221
| 38>   H                      -11.102939           -0.924491            -9.323504
| 39>   H                      -10.176577           -1.898669            -10.562449
| 40>   H                      -9.520877            -1.804414            -8.913006
| 41>   C                    : -11.198574           2.196297             -8.663899
| 42>   O                    : -9.934511            2.627828             -9.106042
| 43>   H                    : -9.437128            2.008321             -9.679980
| 44>   H                    : -11.242939           1.426187             -7.873173
| 45>   H                    : -11.747869           3.026897             -8.234249
| 46>   H                    : -11.859639           1.793048             -9.379719
| 47> *
| 48>
| 49> #Run DFT-D3 single point of the particle with dimer basis set
| 50> $new_job
| 51> %base "14-173_DFT_B"
| 52> ! wB97X-D3 def2-TZVP TIGHTSCF CHELPG PMODEL
| 53>
| 54> %scf
| 55> MaxIter 1000
| 56> end
| 57>
| 58> * xyz 0 1
| 59>   C                    : -10.087581           -1.212474            -9.669881
| 60>   O                    : -9.263157            -0.086489            -9.994473
| 61>   H                    : -8.491873            -0.476232            -10.390221
| 62>   H                    : -11.102939           -0.924491            -9.323504
| 63>   H                    : -10.176577           -1.898669            -10.562449
| 64>   H                    : -9.520877            -1.804414            -8.913006
| 65>   C                      -11.198574           2.196297             -8.663899
| 66>   O                      -9.934511            2.627828             -9.106042
| 67>   H                      -9.437128            2.008321             -9.679980
| 68>   H                      -11.242939           1.426187             -7.873173
| 69>   H                      -11.747869           3.026897             -8.234249
| 70>   H                      -11.859639           1.793048             -9.379719
| 71> *
| 72>
| 73>                          ****END OF INPUT****
 Total Charge           Charge          ....    0
 Multiplicity           Mult            ....    1
 Number of Electrons    NEL             ....   36
Dispersion correction           -0.002138174
FINAL SINGLE POINT ENERGY      -231.469880269031
Dispersion correction           -0.000229856
FINAL SINGLE POINT ENERGY      -115.732928034938

CARTESIAN COORDINATES (ANGSTROEM)
---------------------------------
  C    -10.087581   -1.212474   -9.669881
  O     -9.263157   -0.086489   -9.994473
  H     -8.491873   -0.476232  -10.390221
  H    -11.102939   -0.924491   -9.323504
  H    -10.176577   -1.898669  -10.562449
  H     -9.520877   -1.804414   -8.913006
  C    -11.198574    2.196297   -8.663899
  O     -9.934511    2.627828   -9.106042
  H     -9.437128    2.008321   -9.679980
  H    -11.242939    1.426187   -7.873173
  H    -11.747869    3.026897   -8.234249
  H    -11.859639    1.793048   -9.379719

 Multiplicity           Mult            ....    1
 Number of Electrons    NEL             ....   18
 Basis Dimension        Dim             ....  172

ORBITAL ENERGIES
----------------

  NO   OCC          E(Eh)            E(eV)
   0   2.0000     -19.235165      -523.4155
   1   2.0000     -10.308637      -280.5123
   2   2.0000      -1.131325       -30.7849
   3   2.0000      -0.804216       -21.8838
   4   2.0000      -0.621751       -16.9187
   5   2.0000      -0.531565       -14.4646
   6   2.0000      -0.527813       -14.3625
   7   2.0000      -0.428060       -11.6481
   8   2.0000      -0.374328       -10.1860
   9   0.0000       0.071271         1.9394
  10   0.0000       0.127329         3.4648
  11   0.0000       0.142294         3.8720
  12   0.0000       0.184499         5.0205
  13   0.0000       0.185402         5.0451

MULLIKEN ATOMIC CHARGES
-----------------------
   0 C :    0.001139
   1 O :   -0.004942
   2 H :   -0.000648
   3 H :   -0.002634
   4 H :   -0.000006
   5 H :   -0.000155
   6 C :   -0.161120
   7 O :   -0.485785
   8 H :    0.324865
   9 H :    0.093884
  10 H :    0.125375
  11 H :    0.110028
Sum of atomic charges:   -0.0000000

LOEWDIN ATOMIC CHARGES
----------------------
   0 C :   -0.004218
   1 O :   -0.015277
   2 H :   -0.001004
   3 H :   -0.002311
   4 H :   -0.000032
   5 H :   -0.000058
   6 C :   -0.391513
   7 O :   -0.065746
   8 H :    0.185284
   9 H :    0.096657
  10 H :    0.110048
  11 H :    0.088171

  Mayer bond orders larger than 0.1
B(  6-C ,  7-O ) :   0.9990 B(  6-C ,  9-H ) :   0.9754 B(  6-C , 10-H ) :   0.9742
B(  6-C , 11-H ) :   0.9754 B(  7-O ,  8-H ) :   0.8900

Dispersion correction           -0.000286011
FINAL SINGLE POINT ENERGY      -115.730645710348

DIPOLE MOMENT
-------------
                                X             Y             Z
Electronic contribution:      1.73979       0.67786      -0.61845
Nuclear contribution   :     -1.94387      -1.24042       0.40593
                        -----------------------------------------
Total Dipole Moment    :     -0.20408      -0.56256      -0.21252
                        -----------------------------------------
Magnitude (a.u.)       :      0.63505
Magnitude (Debye)      :      1.61417

Rotational constants in cm-1:     4.719424     0.811485     0.783529
Rotational constants in MHz : 141484.769204 24327.702205 23489.594744

                             ****ORCA TERMINATED NORMALLY****
TOTAL RUN TIME: 0 days 0 hours 1 minutes 5 seconds 74 msec
