                         Program Version 4.1.2  - RELEASE  -
|  1> #Run DFT-D3 single point of the dimer
|  2> ! wB97X-D3 def2-TZVP TIGHTSCF CHELPG PMODEL PAL8
|  3>
|  4> %base "1-74_DFT_AB"
|  5>
|  6> %scf
|  7> MaxIter 1000
|  8> end
|  9>
| 10> * xyz 0 1
| 11>   C                      5.651281             -6.607152            -7.131808
| 12>   O                      4.421029             -6.172387            -6.635053
| 13>   H                      3.846128             -6.941923            -6.443546
| 14>   H                      6.331579             -5.736460            -7.229165
| 15>   H                      6.041744             -7.382705            -6.519006
| 16>   H                      5.543523             -7.079936            -8.062609
| 17>   C                      5.063099             -1.500940            -9.334182
| 18>   O                      4.808947             -0.973593            -8.100371
| 19>   H                      5.054176             -1.569019            -7.353234
| 20>   H                      6.141937             -1.618277            -9.421419
| 21>   H                      4.541301             -2.439187            -9.608588
| 22>   H                      4.776940             -0.855996            -10.258623
| 23> *
| 24>
| 25> #Run DFT-D3 single point of the molecule with dimer basis set
| 26> $new_job
| 27> %base "1-74_DFT_A"
| 28> ! wB97X-D3 def2-TZVP TIGHTSCF CHELPG PMODEL
| 29>
| 30> %scf
| 31> MaxIter 1000
| 32> end
| 33>
| 34> * xyz 0 1
| 35>   C                      5.651281             -6.607152            -7.131808
| 36>   O                      4.421029             -6.172387            -6.635053
| 37>   H                      3.846128             -6.941923            -6.443546
| 38>   H                      6.331579             -5.736460            -7.229165
| 39>   H                      6.041744             -7.382705            -6.519006
| 40>   H                      5.543523             -7.079936            -8.062609
| 41>   C                    : 5.063099             -1.500940            -9.334182
| 42>   O                    : 4.808947             -0.973593            -8.100371
| 43>   H                    : 5.054176             -1.569019            -7.353234
| 44>   H                    : 6.141937             -1.618277            -9.421419
| 45>   H                    : 4.541301             -2.439187            -9.608588
| 46>   H                    : 4.776940             -0.855996            -10.258623
| 47> *
| 48>
| 49> #Run DFT-D3 single point of the particle with dimer basis set
| 50> $new_job
| 51> %base "1-74_DFT_B"
| 52> ! wB97X-D3 def2-TZVP TIGHTSCF CHELPG PMODEL
| 53>
| 54> %scf
| 55> MaxIter 1000
| 56> end
| 57>
| 58> * xyz 0 1
| 59>   C                    : 5.651281             -6.607152            -7.131808
| 60>   O                    : 4.421029             -6.172387            -6.635053
| 61>   H                    : 3.846128             -6.941923            -6.443546
| 62>   H                    : 6.331579             -5.736460            -7.229165
| 63>   H                    : 6.041744             -7.382705            -6.519006
| 64>   H                    : 5.543523             -7.079936            -8.062609
| 65>   C                      5.063099             -1.500940            -9.334182
| 66>   O                      4.808947             -0.973593            -8.100371
| 67>   H                      5.054176             -1.569019            -7.353234
| 68>   H                      6.141937             -1.618277            -9.421419
| 69>   H                      4.541301             -2.439187            -9.608588
| 70>   H                      4.776940             -0.855996            -10.258623
| 71> *
| 72>
| 73>                          ****END OF INPUT****
 Total Charge           Charge          ....    0
 Multiplicity           Mult            ....    1
 Number of Electrons    NEL             ....   36
Dispersion correction           -0.000683469
FINAL SINGLE POINT ENERGY      -231.459474211175
Dispersion correction           -0.000217693
FINAL SINGLE POINT ENERGY      -115.732470288041

CARTESIAN COORDINATES (ANGSTROEM)
---------------------------------
  C      5.651281   -6.607152   -7.131808
  O      4.421029   -6.172387   -6.635053
  H      3.846128   -6.941923   -6.443546
  H      6.331579   -5.736460   -7.229165
  H      6.041744   -7.382705   -6.519006
  H      5.543523   -7.079936   -8.062609
  C      5.063099   -1.500940   -9.334182
  O      4.808947   -0.973593   -8.100371
  H      5.054176   -1.569019   -7.353234
  H      6.141937   -1.618277   -9.421419
  H      4.541301   -2.439187   -9.608588
  H      4.776940   -0.855996  -10.258623

 Multiplicity           Mult            ....    1
 Number of Electrons    NEL             ....   18
 Basis Dimension        Dim             ....  172

ORBITAL ENERGIES
----------------

  NO   OCC          E(Eh)            E(eV)
   0   2.0000     -19.233554      -523.3716
   1   2.0000     -10.316899      -280.7371
   2   2.0000      -1.145504       -31.1707
   3   2.0000      -0.789759       -21.4904
   4   2.0000      -0.618582       -16.8325
   5   2.0000      -0.550567       -14.9817
   6   2.0000      -0.526987       -14.3400
   7   2.0000      -0.411761       -11.2046
   8   2.0000      -0.371920       -10.1205
   9   0.0000       0.079151         2.1538
  10   0.0000       0.111859         3.0438
  11   0.0000       0.145112         3.9487
  12   0.0000       0.162081         4.4104
  13   0.0000       0.189611         5.1596

MULLIKEN ATOMIC CHARGES
-----------------------
   0 C :   -0.000021
   1 O :   -0.000005
   2 H :   -0.000001
   3 H :    0.000001
   4 H :   -0.000001
   5 H :   -0.000004
   6 C :   -0.156827
   7 O :   -0.474181
   8 H :    0.326943
   9 H :    0.099112
  10 H :    0.093369
  11 H :    0.111615
Sum of atomic charges:    0.0000000

LOEWDIN ATOMIC CHARGES
----------------------
   0 C :   -0.000028
   1 O :   -0.000004
   2 H :   -0.000000
   3 H :   -0.000014
   4 H :   -0.000000
   5 H :   -0.000003
   6 C :   -0.440934
   7 O :   -0.053364
   8 H :    0.190600
   9 H :    0.091499
  10 H :    0.092203
  11 H :    0.120046

  Mayer bond orders larger than 0.1
B(  6-C ,  7-O ) :   1.0071 B(  6-C ,  9-H ) :   0.9878 B(  6-C , 10-H ) :   0.9691
B(  6-C , 11-H ) :   0.9651 B(  7-O ,  8-H ) :   0.8814

Dispersion correction           -0.000257958
FINAL SINGLE POINT ENERGY      -115.726279619974

DIPOLE MOMENT
-------------
                                X             Y             Z
Electronic contribution:     -0.43336       0.79594       1.75892
Nuclear contribution   :      0.68906      -1.37661      -1.73320
                        -----------------------------------------
Total Dipole Moment    :      0.25570      -0.58067       0.02572
                        -----------------------------------------
Magnitude (a.u.)       :      0.63500
Magnitude (Debye)      :      1.61404

Rotational constants in cm-1:     4.384949     0.846401     0.822475
Rotational constants in MHz : 131457.470964 25374.454461 24657.191649

                             ****ORCA TERMINATED NORMALLY****
TOTAL RUN TIME: 0 days 0 hours 6 minutes 14 seconds 225 msec
