                         Program Version 4.1.2  - RELEASE  -
|  1> #Run DFT-D3 single point of the dimer
|  2> ! wB97X-D3 def2-TZVP TIGHTSCF CHELPG PMODEL PAL8
|  3>
|  4> %base "13-34_DFT_AB"
|  5>
|  6> %scf
|  7> MaxIter 1000
|  8> end
|  9>
| 10> * xyz 0 1
| 11>   C                      2.238468             -1.442492            -1.376394
| 12>   O                      1.121689             -1.733540            -0.514272
| 13>   H                      1.431541             -2.499082            -0.058163
| 14>   H                      3.190386             -1.760322            -0.835746
| 15>   H                      2.025457             -1.974779            -2.354060
| 16>   H                      2.293692             -0.377440            -1.575006
| 17>   C                      0.030164             -4.047049            -2.629038
| 18>   O                      -1.138071            -4.695708            -3.059685
| 19>   H                      -0.944249            -5.458277            -3.624393
| 20>   H                      0.284661             -4.359550            -1.576838
| 21>   H                      0.878129             -4.316467            -3.321165
| 22>   H                      -0.148044            -2.943190            -2.634008
| 23> *
| 24>
| 25> #Run DFT-D3 single point of the molecule with dimer basis set
| 26> $new_job
| 27> %base "13-34_DFT_A"
| 28> ! wB97X-D3 def2-TZVP TIGHTSCF CHELPG PMODEL
| 29>
| 30> %scf
| 31> MaxIter 1000
| 32> end
| 33>
| 34> * xyz 0 1
| 35>   C                      2.238468             -1.442492            -1.376394
| 36>   O                      1.121689             -1.733540            -0.514272
| 37>   H                      1.431541             -2.499082            -0.058163
| 38>   H                      3.190386             -1.760322            -0.835746
| 39>   H                      2.025457             -1.974779            -2.354060
| 40>   H                      2.293692             -0.377440            -1.575006
| 41>   C                    : 0.030164             -4.047049            -2.629038
| 42>   O                    : -1.138071            -4.695708            -3.059685
| 43>   H                    : -0.944249            -5.458277            -3.624393
| 44>   H                    : 0.284661             -4.359550            -1.576838
| 45>   H                    : 0.878129             -4.316467            -3.321165
| 46>   H                    : -0.148044            -2.943190            -2.634008
| 47> *
| 48>
| 49> #Run DFT-D3 single point of the particle with dimer basis set
| 50> $new_job
| 51> %base "13-34_DFT_B"
| 52> ! wB97X-D3 def2-TZVP TIGHTSCF CHELPG PMODEL
| 53>
| 54> %scf
| 55> MaxIter 1000
| 56> end
| 57>
| 58> * xyz 0 1
| 59>   C                    : 2.238468             -1.442492            -1.376394
| 60>   O                    : 1.121689             -1.733540            -0.514272
| 61>   H                    : 1.431541             -2.499082            -0.058163
| 62>   H                    : 3.190386             -1.760322            -0.835746
| 63>   H                    : 2.025457             -1.974779            -2.354060
| 64>   H                    : 2.293692             -0.377440            -1.575006
| 65>   C                      0.030164             -4.047049            -2.629038
| 66>   O                      -1.138071            -4.695708            -3.059685
| 67>   H                      -0.944249            -5.458277            -3.624393
| 68>   H                      0.284661             -4.359550            -1.576838
| 69>   H                      0.878129             -4.316467            -3.321165
| 70>   H                      -0.148044            -2.943190            -2.634008
| 71> *
| 72>
| 73>                          ****END OF INPUT****
 Total Charge           Charge          ....    0
 Multiplicity           Mult            ....    1
 Number of Electrons    NEL             ....   36
Dispersion correction           -0.001983486
FINAL SINGLE POINT ENERGY      -231.465657904658
Dispersion correction           -0.000233270
FINAL SINGLE POINT ENERGY      -115.731124538226

CARTESIAN COORDINATES (ANGSTROEM)
---------------------------------
  C      2.238468   -1.442492   -1.376394
  O      1.121689   -1.733540   -0.514272
  H      1.431541   -2.499082   -0.058163
  H      3.190386   -1.760322   -0.835746
  H      2.025457   -1.974779   -2.354060
  H      2.293692   -0.377440   -1.575006
  C      0.030164   -4.047049   -2.629038
  O     -1.138071   -4.695708   -3.059685
  H     -0.944249   -5.458277   -3.624393
  H      0.284661   -4.359550   -1.576838
  H      0.878129   -4.316467   -3.321165
  H     -0.148044   -2.943190   -2.634008

 Multiplicity           Mult            ....    1
 Number of Electrons    NEL             ....   18
 Basis Dimension        Dim             ....  172

ORBITAL ENERGIES
----------------

  NO   OCC          E(Eh)            E(eV)
   0   2.0000     -19.227873      -523.2170
   1   2.0000     -10.322424      -280.8874
   2   2.0000      -1.134996       -30.8848
   3   2.0000      -0.788196       -21.4479
   4   2.0000      -0.609445       -16.5839
   5   2.0000      -0.536511       -14.5992
   6   2.0000      -0.529723       -14.4145
   7   2.0000      -0.425847       -11.5879
   8   2.0000      -0.369599       -10.0573
   9   0.0000       0.086374         2.3504
  10   0.0000       0.111677         3.0389
  11   0.0000       0.156774         4.2660
  12   0.0000       0.169711         4.6181
  13   0.0000       0.178269         4.8510

MULLIKEN ATOMIC CHARGES
-----------------------
   0 C :    0.002262
   1 O :   -0.000851
   2 H :   -0.000565
   3 H :   -0.000096
   4 H :   -0.003351
   5 H :    0.000039
   6 C :   -0.158519
   7 O :   -0.476823
   8 H :    0.319261
   9 H :    0.099563
  10 H :    0.099917
  11 H :    0.119162
Sum of atomic charges:    0.0000000

LOEWDIN ATOMIC CHARGES
----------------------
   0 C :   -0.005047
   1 O :   -0.002929
   2 H :   -0.002485
   3 H :   -0.000029
   4 H :   -0.004920
   5 H :   -0.000036
   6 C :   -0.395591
   7 O :   -0.078824
   8 H :    0.173204
   9 H :    0.101912
  10 H :    0.101902
  11 H :    0.112843

  Mayer bond orders larger than 0.1
B(  6-C ,  7-O ) :   1.0064 B(  6-C ,  9-H ) :   0.9679 B(  6-C , 10-H ) :   0.9810
B(  6-C , 11-H ) :   0.9709 B(  7-O ,  8-H ) :   0.8946

Dispersion correction           -0.000253478
FINAL SINGLE POINT ENERGY      -115.733846322639

DIPOLE MOMENT
-------------
                                X             Y             Z
Electronic contribution:     -1.56453      -0.73016      -0.50011
Nuclear contribution   :      2.13925       0.48173       0.27896
                        -----------------------------------------
Total Dipole Moment    :      0.57472      -0.24843      -0.22115
                        -----------------------------------------
Magnitude (a.u.)       :      0.66403
Magnitude (Debye)      :      1.68782

Rotational constants in cm-1:     4.082847     0.836140     0.804875
Rotational constants in MHz : 122400.660237 25066.857219 24129.556583

                             ****ORCA TERMINATED NORMALLY****
TOTAL RUN TIME: 0 days 0 hours 1 minutes 10 seconds 227 msec
