                         Program Version 4.1.2  - RELEASE  -
|  1> #Run DFT-D3 single point of the dimer
|  2> ! wB97X-D3 def2-TZVP TIGHTSCF CHELPG PMODEL PAL8
|  3>
|  4> %base "21-66_DFT_AB"
|  5>
|  6> %scf
|  7> MaxIter 1000
|  8> end
|  9>
| 10> * xyz 0 1
| 11>   C                      11.474556            2.102910             -9.297509
| 12>   O                      10.307835            2.200152             -8.489772
| 13>   H                      9.766941             1.402733             -8.572671
| 14>   H                      11.357470            1.455794             -10.216754
| 15>   H                      11.682326            3.060955             -9.649247
| 16>   H                      12.259209            1.769761             -8.610688
| 17>   C                      7.100996             4.184445             -10.717289
| 18>   O                      8.128690             5.123075             -11.097442
| 19>   H                      8.982406             4.783238             -10.782652
| 20>   H                      6.067444             4.537163             -10.843540
| 21>   H                      7.319320             3.210798             -11.247380
| 22>   H                      7.083041             3.865088             -9.682737
| 23> *
| 24>
| 25> #Run DFT-D3 single point of the molecule with dimer basis set
| 26> $new_job
| 27> %base "21-66_DFT_A"
| 28> ! wB97X-D3 def2-TZVP TIGHTSCF CHELPG PMODEL
| 29>
| 30> %scf
| 31> MaxIter 1000
| 32> end
| 33>
| 34> * xyz 0 1
| 35>   C                      11.474556            2.102910             -9.297509
| 36>   O                      10.307835            2.200152             -8.489772
| 37>   H                      9.766941             1.402733             -8.572671
| 38>   H                      11.357470            1.455794             -10.216754
| 39>   H                      11.682326            3.060955             -9.649247
| 40>   H                      12.259209            1.769761             -8.610688
| 41>   C                    : 7.100996             4.184445             -10.717289
| 42>   O                    : 8.128690             5.123075             -11.097442
| 43>   H                    : 8.982406             4.783238             -10.782652
| 44>   H                    : 6.067444             4.537163             -10.843540
| 45>   H                    : 7.319320             3.210798             -11.247380
| 46>   H                    : 7.083041             3.865088             -9.682737
| 47> *
| 48>
| 49> #Run DFT-D3 single point of the particle with dimer basis set
| 50> $new_job
| 51> %base "21-66_DFT_B"
| 52> ! wB97X-D3 def2-TZVP TIGHTSCF CHELPG PMODEL
| 53>
| 54> %scf
| 55> MaxIter 1000
| 56> end
| 57>
| 58> * xyz 0 1
| 59>   C                    : 11.474556            2.102910             -9.297509
| 60>   O                    : 10.307835            2.200152             -8.489772
| 61>   H                    : 9.766941             1.402733             -8.572671
| 62>   H                    : 11.357470            1.455794             -10.216754
| 63>   H                    : 11.682326            3.060955             -9.649247
| 64>   H                    : 12.259209            1.769761             -8.610688
| 65>   C                      7.100996             4.184445             -10.717289
| 66>   O                      8.128690             5.123075             -11.097442
| 67>   H                      8.982406             4.783238             -10.782652
| 68>   H                      6.067444             4.537163             -10.843540
| 69>   H                      7.319320             3.210798             -11.247380
| 70>   H                      7.083041             3.865088             -9.682737
| 71> *
| 72>
| 73>                          ****END OF INPUT****
 Total Charge           Charge          ....    0
 Multiplicity           Mult            ....    1
 Number of Electrons    NEL             ....   36
Dispersion correction           -0.001155828
FINAL SINGLE POINT ENERGY      -231.463014299011
Dispersion correction           -0.000247817
FINAL SINGLE POINT ENERGY      -115.732098265963

CARTESIAN COORDINATES (ANGSTROEM)
---------------------------------
  C     11.474556    2.102910   -9.297509
  O     10.307835    2.200152   -8.489772
  H      9.766941    1.402733   -8.572671
  H     11.357470    1.455794  -10.216754
  H     11.682326    3.060955   -9.649247
  H     12.259209    1.769761   -8.610688
  C      7.100996    4.184445  -10.717289
  O      8.128690    5.123075  -11.097442
  H      8.982406    4.783238  -10.782652
  H      6.067444    4.537163  -10.843540
  H      7.319320    3.210798  -11.247380
  H      7.083041    3.865088   -9.682737

 Multiplicity           Mult            ....    1
 Number of Electrons    NEL             ....   18
 Basis Dimension        Dim             ....  172

ORBITAL ENERGIES
----------------

  NO   OCC          E(Eh)            E(eV)
   0   2.0000     -19.234033      -523.3846
   1   2.0000     -10.319437      -280.8062
   2   2.0000      -1.126522       -30.6542
   3   2.0000      -0.796151       -21.6644
   4   2.0000      -0.608163       -16.5490
   5   2.0000      -0.540619       -14.7110
   6   2.0000      -0.514909       -14.0114
   7   2.0000      -0.437206       -11.8970
   8   2.0000      -0.372054       -10.1241
   9   0.0000       0.068536         1.8650
  10   0.0000       0.122246         3.3265
  11   0.0000       0.136162         3.7051
  12   0.0000       0.168984         4.5983
  13   0.0000       0.183979         5.0063

MULLIKEN ATOMIC CHARGES
-----------------------
   0 C :   -0.000273
   1 O :    0.000091
   2 H :   -0.000080
   3 H :    0.000018
   4 H :   -0.000121
   5 H :   -0.000011
   6 C :   -0.180382
   7 O :   -0.477181
   8 H :    0.318084
   9 H :    0.128657
  10 H :    0.103660
  11 H :    0.107537
Sum of atomic charges:   -0.0000000

LOEWDIN ATOMIC CHARGES
----------------------
   0 C :   -0.000393
   1 O :   -0.000094
   2 H :   -0.000079
   3 H :   -0.000011
   4 H :   -0.000220
   5 H :   -0.000010
   6 C :   -0.376957
   7 O :   -0.101605
   8 H :    0.174598
   9 H :    0.110727
  10 H :    0.102876
  11 H :    0.091167

  Mayer bond orders larger than 0.1
B(  6-C ,  7-O ) :   0.9933 B(  6-C ,  9-H ) :   0.9704 B(  6-C , 10-H ) :   0.9824
B(  6-C , 11-H ) :   0.9671 B(  7-O ,  8-H ) :   0.8960

Dispersion correction           -0.000265872
FINAL SINGLE POINT ENERGY      -115.729390798787

DIPOLE MOMENT
-------------
                                X             Y             Z
Electronic contribution:      1.17301       1.43892      -0.57570
Nuclear contribution   :     -1.05887      -2.03174       0.96593
                        -----------------------------------------
Total Dipole Moment    :      0.11413      -0.59282       0.39024
                        -----------------------------------------
Magnitude (a.u.)       :      0.71885
Magnitude (Debye)      :      1.82717

Rotational constants in cm-1:     4.342306     0.794979     0.761484
Rotational constants in MHz : 130179.063032 23832.876049 22828.724305

                             ****ORCA TERMINATED NORMALLY****
TOTAL RUN TIME: 0 days 0 hours 1 minutes 4 seconds 406 msec
