                         Program Version 4.1.2  - RELEASE  -
|  1> #Run DFT-D3 single point of the dimer
|  2> ! wB97X-D3 def2-TZVP TIGHTSCF CHELPG PMODEL PAL8
|  3>
|  4> %base "1-151_DFT_AB"
|  5>
|  6> %scf
|  7> MaxIter 1000
|  8> end
|  9>
| 10> * xyz 0 1
| 11>   C                      1.559900             -2.722183            -4.387843
| 12>   O                      1.024097             -3.110512            -3.120615
| 13>   H                      0.241665             -2.671256            -2.909754
| 14>   H                      2.034390             -3.613840            -4.841094
| 15>   H                      0.813583             -2.312463            -5.113704
| 16>   H                      2.363234             -2.014412            -4.232848
| 17>   C                      2.751521             -1.597827            -1.885978
| 18>   O                      3.773817             -1.661260            -2.863987
| 19>   H                      3.679753             -0.888803            -3.452431
| 20>   H                      2.724671             -2.546805            -1.320822
| 21>   H                      2.854509             -0.898560            -1.090563
| 22>   H                      1.743488             -1.457606            -2.216906
| 23> *
| 24>
| 25> #Run DFT-D3 single point of the molecule with dimer basis set
| 26> $new_job
| 27> %base "1-151_DFT_A"
| 28> ! wB97X-D3 def2-TZVP TIGHTSCF CHELPG PMODEL
| 29>
| 30> %scf
| 31> MaxIter 1000
| 32> end
| 33>
| 34> * xyz 0 1
| 35>   C                      1.559900             -2.722183            -4.387843
| 36>   O                      1.024097             -3.110512            -3.120615
| 37>   H                      0.241665             -2.671256            -2.909754
| 38>   H                      2.034390             -3.613840            -4.841094
| 39>   H                      0.813583             -2.312463            -5.113704
| 40>   H                      2.363234             -2.014412            -4.232848
| 41>   C                    : 2.751521             -1.597827            -1.885978
| 42>   O                    : 3.773817             -1.661260            -2.863987
| 43>   H                    : 3.679753             -0.888803            -3.452431
| 44>   H                    : 2.724671             -2.546805            -1.320822
| 45>   H                    : 2.854509             -0.898560            -1.090563
| 46>   H                    : 1.743488             -1.457606            -2.216906
| 47> *
| 48>
| 49> #Run DFT-D3 single point of the particle with dimer basis set
| 50> $new_job
| 51> %base "1-151_DFT_B"
| 52> ! wB97X-D3 def2-TZVP TIGHTSCF CHELPG PMODEL
| 53>
| 54> %scf
| 55> MaxIter 1000
| 56> end
| 57>
| 58> * xyz 0 1
| 59>   C                    : 1.559900             -2.722183            -4.387843
| 60>   O                    : 1.024097             -3.110512            -3.120615
| 61>   H                    : 0.241665             -2.671256            -2.909754
| 62>   H                    : 2.034390             -3.613840            -4.841094
| 63>   H                    : 0.813583             -2.312463            -5.113704
| 64>   H                    : 2.363234             -2.014412            -4.232848
| 65>   C                      2.751521             -1.597827            -1.885978
| 66>   O                      3.773817             -1.661260            -2.863987
| 67>   H                      3.679753             -0.888803            -3.452431
| 68>   H                      2.724671             -2.546805            -1.320822
| 69>   H                      2.854509             -0.898560            -1.090563
| 70>   H                      1.743488             -1.457606            -2.216906
| 71> *
| 72>
| 73>                          ****END OF INPUT****
 Total Charge           Charge          ....    0
 Multiplicity           Mult            ....    1
 Number of Electrons    NEL             ....   36
Dispersion correction           -0.002320645
FINAL SINGLE POINT ENERGY      -231.447973702186
Dispersion correction           -0.000266855
FINAL SINGLE POINT ENERGY      -115.734349327366

CARTESIAN COORDINATES (ANGSTROEM)
---------------------------------
  C      1.559900   -2.722183   -4.387843
  O      1.024097   -3.110512   -3.120615
  H      0.241665   -2.671256   -2.909754
  H      2.034390   -3.613840   -4.841094
  H      0.813583   -2.312463   -5.113704
  H      2.363234   -2.014412   -4.232848
  C      2.751521   -1.597827   -1.885978
  O      3.773817   -1.661260   -2.863987
  H      3.679753   -0.888803   -3.452431
  H      2.724671   -2.546805   -1.320822
  H      2.854509   -0.898560   -1.090563
  H      1.743488   -1.457606   -2.216906

 Multiplicity           Mult            ....    1
 Number of Electrons    NEL             ....   18
 Basis Dimension        Dim             ....  172

ORBITAL ENERGIES
----------------

  NO   OCC          E(Eh)            E(eV)
   0   2.0000     -19.239760      -523.5405
   1   2.0000     -10.307960      -280.4939
   2   2.0000      -1.135633       -30.9021
   3   2.0000      -0.802793       -21.8451
   4   2.0000      -0.617174       -16.7941
   5   2.0000      -0.538785       -14.6611
   6   2.0000      -0.523673       -14.2499
   7   2.0000      -0.436172       -11.8688
   8   2.0000      -0.378837       -10.3087
   9   0.0000       0.090623         2.4660
  10   0.0000       0.127675         3.4742
  11   0.0000       0.148820         4.0496
  12   0.0000       0.181274         4.9327
  13   0.0000       0.196430         5.3451

MULLIKEN ATOMIC CHARGES
-----------------------
   0 C :    0.038888
   1 O :   -0.002389
   2 H :    0.000087
   3 H :   -0.003601
   4 H :   -0.000719
   5 H :   -0.053340
   6 C :   -0.180699
   7 O :   -0.448338
   8 H :    0.319438
   9 H :    0.108018
  10 H :    0.113951
  11 H :    0.108703
Sum of atomic charges:    0.0000000

LOEWDIN ATOMIC CHARGES
----------------------
   0 C :   -0.033383
   1 O :   -0.030578
   2 H :   -0.007865
   3 H :   -0.001002
   4 H :   -0.000295
   5 H :   -0.034805
   6 C :   -0.360647
   7 O :   -0.037561
   8 H :    0.184665
   9 H :    0.117660
  10 H :    0.089530
  11 H :    0.114283

  Mayer bond orders larger than 0.1
B(  5-H ,  7-O ) :   0.1054 B(  6-C ,  7-O ) :   1.0120 B(  6-C ,  9-H ) :   0.9806
B(  6-C , 10-H ) :   0.9692 B(  6-C , 11-H ) :   0.9773 B(  7-O ,  8-H ) :   0.8942

Dispersion correction           -0.000269069
FINAL SINGLE POINT ENERGY      -115.732545067684

DIPOLE MOMENT
-------------
                                X             Y             Z
Electronic contribution:      1.45260      -0.10460      -1.34863
Nuclear contribution   :     -1.91099       0.60980       1.38533
                        -----------------------------------------
Total Dipole Moment    :     -0.45838       0.50520       0.03670
                        -----------------------------------------
Magnitude (a.u.)       :      0.68314
Magnitude (Debye)      :      1.73641

Rotational constants in cm-1:     4.605369     0.815447     0.782823
Rotational constants in MHz : 138065.496641 24446.486755 23468.452351

                             ****ORCA TERMINATED NORMALLY****
TOTAL RUN TIME: 0 days 0 hours 6 minutes 1 seconds 841 msec
