                         Program Version 4.1.2  - RELEASE  -
|  1> #Run DFT-D3 single point of the dimer
|  2> ! wB97X-D3 def2-TZVP TIGHTSCF CHELPG PMODEL PAL8
|  3>
|  4> %base "8-192_DFT_AB"
|  5>
|  6> %scf
|  7> MaxIter 1000
|  8> end
|  9>
| 10> * xyz 0 1
| 11>   C                      -8.419995            4.983387             7.231056
| 12>   O                      -8.925307            4.145394             8.291104
| 13>   H                      -9.807980            4.169145             8.024877
| 14>   H                      -8.118618            5.961842             7.656485
| 15>   H                      -7.403915            4.578973             6.863070
| 16>   H                      -8.992139            5.220278             6.336531
| 17>   C                      -10.093289           1.103940             9.916650
| 18>   O                      -10.461866           2.426109             9.879604
| 19>   H                      -9.652044            3.001358             9.833511
| 20>   H                      -9.199362            0.937206             10.515245
| 21>   H                      -10.851303           0.534979             10.498085
| 22>   H                      -10.048276           0.648209             8.947210
| 23> *
| 24>
| 25> #Run DFT-D3 single point of the molecule with dimer basis set
| 26> $new_job
| 27> %base "8-192_DFT_A"
| 28> ! wB97X-D3 def2-TZVP TIGHTSCF CHELPG PMODEL
| 29>
| 30> %scf
| 31> MaxIter 1000
| 32> end
| 33>
| 34> * xyz 0 1
| 35>   C                      -8.419995            4.983387             7.231056
| 36>   O                      -8.925307            4.145394             8.291104
| 37>   H                      -9.807980            4.169145             8.024877
| 38>   H                      -8.118618            5.961842             7.656485
| 39>   H                      -7.403915            4.578973             6.863070
| 40>   H                      -8.992139            5.220278             6.336531
| 41>   C                    : -10.093289           1.103940             9.916650
| 42>   O                    : -10.461866           2.426109             9.879604
| 43>   H                    : -9.652044            3.001358             9.833511
| 44>   H                    : -9.199362            0.937206             10.515245
| 45>   H                    : -10.851303           0.534979             10.498085
| 46>   H                    : -10.048276           0.648209             8.947210
| 47> *
| 48>
| 49> #Run DFT-D3 single point of the particle with dimer basis set
| 50> $new_job
| 51> %base "8-192_DFT_B"
| 52> ! wB97X-D3 def2-TZVP TIGHTSCF CHELPG PMODEL
| 53>
| 54> %scf
| 55> MaxIter 1000
| 56> end
| 57>
| 58> * xyz 0 1
| 59>   C                    : -8.419995            4.983387             7.231056
| 60>   O                    : -8.925307            4.145394             8.291104
| 61>   H                    : -9.807980            4.169145             8.024877
| 62>   H                    : -8.118618            5.961842             7.656485
| 63>   H                    : -7.403915            4.578973             6.863070
| 64>   H                    : -8.992139            5.220278             6.336531
| 65>   C                      -10.093289           1.103940             9.916650
| 66>   O                      -10.461866           2.426109             9.879604
| 67>   H                      -9.652044            3.001358             9.833511
| 68>   H                      -9.199362            0.937206             10.515245
| 69>   H                      -10.851303           0.534979             10.498085
| 70>   H                      -10.048276           0.648209             8.947210
| 71> *
| 72>
| 73>                          ****END OF INPUT****
 Total Charge           Charge          ....    0
 Multiplicity           Mult            ....    1
 Number of Electrons    NEL             ....   36
Dispersion correction           -0.001435744
FINAL SINGLE POINT ENERGY      -231.461998203872
Dispersion correction           -0.000266251
FINAL SINGLE POINT ENERGY      -115.723067010721

CARTESIAN COORDINATES (ANGSTROEM)
---------------------------------
  C     -8.419995    4.983387    7.231056
  O     -8.925307    4.145394    8.291104
  H     -9.807980    4.169145    8.024877
  H     -8.118618    5.961842    7.656485
  H     -7.403915    4.578973    6.863070
  H     -8.992139    5.220278    6.336531
  C    -10.093289    1.103940    9.916650
  O    -10.461866    2.426109    9.879604
  H     -9.652044    3.001358    9.833511
  H     -9.199362    0.937206   10.515245
  H    -10.851303    0.534979   10.498085
  H    -10.048276    0.648209    8.947210

 Multiplicity           Mult            ....    1
 Number of Electrons    NEL             ....   18
 Basis Dimension        Dim             ....  172

ORBITAL ENERGIES
----------------

  NO   OCC          E(Eh)            E(eV)
   0   2.0000     -19.233867      -523.3801
   1   2.0000     -10.307754      -280.4882
   2   2.0000      -1.143027       -31.1034
   3   2.0000      -0.792892       -21.5757
   4   2.0000      -0.614755       -16.7283
   5   2.0000      -0.554274       -15.0826
   6   2.0000      -0.528458       -14.3801
   7   2.0000      -0.421811       -11.4781
   8   2.0000      -0.374321       -10.1858
   9   0.0000       0.078905         2.1471
  10   0.0000       0.120434         3.2772
  11   0.0000       0.152822         4.1585
  12   0.0000       0.182928         4.9777
  13   0.0000       0.194184         5.2840

MULLIKEN ATOMIC CHARGES
-----------------------
   0 C :   -0.001551
   1 O :   -0.006263
   2 H :   -0.006550
   3 H :    0.000065
   4 H :    0.000073
   5 H :   -0.000037
   6 C :   -0.160709
   7 O :   -0.457874
   8 H :    0.322556
   9 H :    0.101364
  10 H :    0.106560
  11 H :    0.102366
Sum of atomic charges:   -0.0000000

LOEWDIN ATOMIC CHARGES
----------------------
   0 C :   -0.001080
   1 O :   -0.020122
   2 H :   -0.009543
   3 H :   -0.000034
   4 H :   -0.000029
   5 H :   -0.000020
   6 C :   -0.421034
   7 O :   -0.044170
   8 H :    0.200475
   9 H :    0.094939
  10 H :    0.110360
  11 H :    0.090259

  Mayer bond orders larger than 0.1
B(  6-C ,  7-O ) :   1.0199 B(  6-C ,  9-H ) :   0.9848 B(  6-C , 10-H ) :   0.9736
B(  6-C , 11-H ) :   0.9719 B(  7-O ,  8-H ) :   0.8875

Dispersion correction           -0.000237197
FINAL SINGLE POINT ENERGY      -115.733255704926

DIPOLE MOMENT
-------------
                                X             Y             Z
Electronic contribution:     -0.55315       1.74140      -0.15568
Nuclear contribution   :      1.19787      -1.88899       0.17361
                        -----------------------------------------
Total Dipole Moment    :      0.64472      -0.14759       0.01792
                        -----------------------------------------
Magnitude (a.u.)       :      0.66164
Magnitude (Debye)      :      1.68175

Rotational constants in cm-1:     4.324356     0.862329     0.836339
Rotational constants in MHz : 129640.937566 25851.987227 25072.804769

                             ****ORCA TERMINATED NORMALLY****
TOTAL RUN TIME: 0 days 0 hours 0 minutes 45 seconds 381 msec
