                         Program Version 4.1.2  - RELEASE  -
|  1> #Run DFT-D3 single point of the dimer
|  2> ! wB97X-D3 def2-TZVP TIGHTSCF CHELPG PMODEL PAL8
|  3>
|  4> %base "21-19_DFT_AB"
|  5>
|  6> %scf
|  7> MaxIter 1000
|  8> end
|  9>
| 10> * xyz 0 1
| 11>   C                      7.010154             -0.039045            -9.433605
| 12>   O                      8.270154             0.587972             -9.839625
| 13>   H                      8.487820             0.297724             -10.722834
| 14>   H                      6.245528             0.058010             -10.219982
| 15>   H                      7.161661             -1.110750            -9.489318
| 16>   H                      6.696794             0.214839             -8.443639
| 17>   C                      6.967380             2.365094             -4.468360
| 18>   O                      6.786280             0.978257             -4.387859
| 19>   H                      5.891313             0.887971             -4.708444
| 20>   H                      7.140251             2.770999             -5.463026
| 21>   H                      6.044840             2.850187             -4.180671
| 22>   H                      7.689173             2.773234             -3.763041
| 23> *
| 24>
| 25> #Run DFT-D3 single point of the molecule with dimer basis set
| 26> $new_job
| 27> %base "21-19_DFT_A"
| 28> ! wB97X-D3 def2-TZVP TIGHTSCF CHELPG PMODEL
| 29>
| 30> %scf
| 31> MaxIter 1000
| 32> end
| 33>
| 34> * xyz 0 1
| 35>   C                      7.010154             -0.039045            -9.433605
| 36>   O                      8.270154             0.587972             -9.839625
| 37>   H                      8.487820             0.297724             -10.722834
| 38>   H                      6.245528             0.058010             -10.219982
| 39>   H                      7.161661             -1.110750            -9.489318
| 40>   H                      6.696794             0.214839             -8.443639
| 41>   C                    : 6.967380             2.365094             -4.468360
| 42>   O                    : 6.786280             0.978257             -4.387859
| 43>   H                    : 5.891313             0.887971             -4.708444
| 44>   H                    : 7.140251             2.770999             -5.463026
| 45>   H                    : 6.044840             2.850187             -4.180671
| 46>   H                    : 7.689173             2.773234             -3.763041
| 47> *
| 48>
| 49> #Run DFT-D3 single point of the particle with dimer basis set
| 50> $new_job
| 51> %base "21-19_DFT_B"
| 52> ! wB97X-D3 def2-TZVP TIGHTSCF CHELPG PMODEL
| 53>
| 54> %scf
| 55> MaxIter 1000
| 56> end
| 57>
| 58> * xyz 0 1
| 59>   C                    : 7.010154             -0.039045            -9.433605
| 60>   O                    : 8.270154             0.587972             -9.839625
| 61>   H                    : 8.487820             0.297724             -10.722834
| 62>   H                    : 6.245528             0.058010             -10.219982
| 63>   H                    : 7.161661             -1.110750            -9.489318
| 64>   H                    : 6.696794             0.214839             -8.443639
| 65>   C                      6.967380             2.365094             -4.468360
| 66>   O                      6.786280             0.978257             -4.387859
| 67>   H                      5.891313             0.887971             -4.708444
| 68>   H                      7.140251             2.770999             -5.463026
| 69>   H                      6.044840             2.850187             -4.180671
| 70>   H                      7.689173             2.773234             -3.763041
| 71> *
| 72>
| 73>                          ****END OF INPUT****
 Total Charge           Charge          ....    0
 Multiplicity           Mult            ....    1
 Number of Electrons    NEL             ....   36
Dispersion correction           -0.000713607
FINAL SINGLE POINT ENERGY      -231.460812229371
Dispersion correction           -0.000245159
FINAL SINGLE POINT ENERGY      -115.729361959742

CARTESIAN COORDINATES (ANGSTROEM)
---------------------------------
  C      7.010154   -0.039045   -9.433605
  O      8.270154    0.587972   -9.839625
  H      8.487820    0.297724  -10.722834
  H      6.245528    0.058010  -10.219982
  H      7.161661   -1.110750   -9.489318
  H      6.696794    0.214839   -8.443639
  C      6.967380    2.365094   -4.468360
  O      6.786280    0.978257   -4.387859
  H      5.891313    0.887971   -4.708444
  H      7.140251    2.770999   -5.463026
  H      6.044840    2.850187   -4.180671
  H      7.689173    2.773234   -3.763041

 Multiplicity           Mult            ....    1
 Number of Electrons    NEL             ....   18
 Basis Dimension        Dim             ....  172

ORBITAL ENERGIES
----------------

  NO   OCC          E(Eh)            E(eV)
   0   2.0000     -19.234225      -523.3899
   1   2.0000     -10.309790      -280.5436
   2   2.0000      -1.147690       -31.2302
   3   2.0000      -0.796138       -21.6640
   4   2.0000      -0.617859       -16.8128
   5   2.0000      -0.543287       -14.7836
   6   2.0000      -0.531078       -14.4514
   7   2.0000      -0.438715       -11.9380
   8   2.0000      -0.375171       -10.2089
   9   0.0000       0.085725         2.3327
  10   0.0000       0.111365         3.0304
  11   0.0000       0.154064         4.1923
  12   0.0000       0.167684         4.5629
  13   0.0000       0.184333         5.0160

MULLIKEN ATOMIC CHARGES
-----------------------
   0 C :    0.000674
   1 O :    0.000001
   2 H :    0.000000
   3 H :   -0.000023
   4 H :   -0.000035
   5 H :   -0.001683
   6 C :   -0.177708
   7 O :   -0.456142
   8 H :    0.316815
   9 H :    0.098653
  10 H :    0.098545
  11 H :    0.120903
Sum of atomic charges:    0.0000000

LOEWDIN ATOMIC CHARGES
----------------------
   0 C :   -0.000072
   1 O :   -0.000008
   2 H :   -0.000001
   3 H :   -0.000002
   4 H :   -0.000001
   5 H :   -0.000471
   6 C :   -0.402132
   7 O :   -0.061651
   8 H :    0.173092
   9 H :    0.091861
  10 H :    0.093026
  11 H :    0.106359

  Mayer bond orders larger than 0.1
B(  6-C ,  7-O ) :   1.0065 B(  6-C ,  9-H ) :   0.9682 B(  6-C , 10-H ) :   0.9926
B(  6-C , 11-H ) :   0.9742 B(  7-O ,  8-H ) :   0.9018

Dispersion correction           -0.000222165
FINAL SINGLE POINT ENERGY      -115.731353581590

DIPOLE MOMENT
-------------
                                X             Y             Z
Electronic contribution:      0.05159      -1.96049       0.14335
Nuclear contribution   :     -0.56685       2.44247      -0.34839
                        -----------------------------------------
Total Dipole Moment    :     -0.51526       0.48198      -0.20504
                        -----------------------------------------
Magnitude (a.u.)       :      0.73474
Magnitude (Debye)      :      1.86756

Rotational constants in cm-1:     4.418546     0.846013     0.812789
Rotational constants in MHz : 132464.664006 25362.823967 24366.802496

                             ****ORCA TERMINATED NORMALLY****
TOTAL RUN TIME: 0 days 0 hours 0 minutes 59 seconds 508 msec
