                         Program Version 4.1.2  - RELEASE  -
|  1> #Run DFT-D3 single point of the dimer
|  2> ! wB97X-D3 def2-TZVP TIGHTSCF CHELPG PMODEL PAL8
|  3>
|  4> %base "19-214_DFT_AB"
|  5>
|  6> %scf
|  7> MaxIter 1000
|  8> end
|  9>
| 10> * xyz 0 1
| 11>   C                      -5.645100            -5.265609            -10.577145
| 12>   O                      -5.475820            -6.298376            -9.712009
| 13>   H                      -4.949007            -6.002710            -8.940312
| 14>   H                      -6.556035            -5.316734            -11.159871
| 15>   H                      -5.682167            -4.306870            -9.981822
| 16>   H                      -4.769615            -5.084458            -11.263776
| 17>   C                      -5.238293            -6.196731            -5.872631
| 18>   O                      -4.621583            -5.535733            -6.976614
| 19>   H                      -4.832369            -4.621618            -6.896878
| 20>   H                      -5.223989            -7.329175            -5.912916
| 21>   H                      -4.700855            -5.911330            -4.882945
| 22>   H                      -6.326395            -5.904284            -5.890630
| 23> *
| 24>
| 25> #Run DFT-D3 single point of the molecule with dimer basis set
| 26> $new_job
| 27> %base "19-214_DFT_A"
| 28> ! wB97X-D3 def2-TZVP TIGHTSCF CHELPG PMODEL
| 29>
| 30> %scf
| 31> MaxIter 1000
| 32> end
| 33>
| 34> * xyz 0 1
| 35>   C                      -5.645100            -5.265609            -10.577145
| 36>   O                      -5.475820            -6.298376            -9.712009
| 37>   H                      -4.949007            -6.002710            -8.940312
| 38>   H                      -6.556035            -5.316734            -11.159871
| 39>   H                      -5.682167            -4.306870            -9.981822
| 40>   H                      -4.769615            -5.084458            -11.263776
| 41>   C                    : -5.238293            -6.196731            -5.872631
| 42>   O                    : -4.621583            -5.535733            -6.976614
| 43>   H                    : -4.832369            -4.621618            -6.896878
| 44>   H                    : -5.223989            -7.329175            -5.912916
| 45>   H                    : -4.700855            -5.911330            -4.882945
| 46>   H                    : -6.326395            -5.904284            -5.890630
| 47> *
| 48>
| 49> #Run DFT-D3 single point of the particle with dimer basis set
| 50> $new_job
| 51> %base "19-214_DFT_B"
| 52> ! wB97X-D3 def2-TZVP TIGHTSCF CHELPG PMODEL
| 53>
| 54> %scf
| 55> MaxIter 1000
| 56> end
| 57>
| 58> * xyz 0 1
| 59>   C                    : -5.645100            -5.265609            -10.577145
| 60>   O                    : -5.475820            -6.298376            -9.712009
| 61>   H                    : -4.949007            -6.002710            -8.940312
| 62>   H                    : -6.556035            -5.316734            -11.159871
| 63>   H                    : -5.682167            -4.306870            -9.981822
| 64>   H                    : -4.769615            -5.084458            -11.263776
| 65>   C                      -5.238293            -6.196731            -5.872631
| 66>   O                      -4.621583            -5.535733            -6.976614
| 67>   H                      -4.832369            -4.621618            -6.896878
| 68>   H                      -5.223989            -7.329175            -5.912916
| 69>   H                      -4.700855            -5.911330            -4.882945
| 70>   H                      -6.326395            -5.904284            -5.890630
| 71> *
| 72>
| 73>                          ****END OF INPUT****
 Total Charge           Charge          ....    0
 Multiplicity           Mult            ....    1
 Number of Electrons    NEL             ....   36
Dispersion correction           -0.001632660
FINAL SINGLE POINT ENERGY      -231.469342146886
Dispersion correction           -0.000232531
FINAL SINGLE POINT ENERGY      -115.731151403232

CARTESIAN COORDINATES (ANGSTROEM)
---------------------------------
  C     -5.645100   -5.265609  -10.577145
  O     -5.475820   -6.298376   -9.712009
  H     -4.949007   -6.002710   -8.940312
  H     -6.556035   -5.316734  -11.159871
  H     -5.682167   -4.306870   -9.981822
  H     -4.769615   -5.084458  -11.263776
  C     -5.238293   -6.196731   -5.872631
  O     -4.621583   -5.535733   -6.976614
  H     -4.832369   -4.621618   -6.896878
  H     -5.223989   -7.329175   -5.912916
  H     -4.700855   -5.911330   -4.882945
  H     -6.326395   -5.904284   -5.890630

 Multiplicity           Mult            ....    1
 Number of Electrons    NEL             ....   18
 Basis Dimension        Dim             ....  172

ORBITAL ENERGIES
----------------

  NO   OCC          E(Eh)            E(eV)
   0   2.0000     -19.230791      -523.2964
   1   2.0000     -10.330806      -281.1155
   2   2.0000      -1.138836       -30.9893
   3   2.0000      -0.787195       -21.4207
   4   2.0000      -0.604959       -16.4618
   5   2.0000      -0.540297       -14.7022
   6   2.0000      -0.527878       -14.3643
   7   2.0000      -0.427800       -11.6410
   8   2.0000      -0.374640       -10.1945
   9   0.0000       0.094235         2.5643
  10   0.0000       0.123083         3.3493
  11   0.0000       0.149133         4.0581
  12   0.0000       0.187067         5.0903
  13   0.0000       0.192618         5.2414

MULLIKEN ATOMIC CHARGES
-----------------------
   0 C :    0.000788
   1 O :   -0.002463
   2 H :   -0.005936
   3 H :   -0.000041
   4 H :   -0.002432
   5 H :   -0.000199
   6 C :   -0.179140
   7 O :   -0.466319
   8 H :    0.317045
   9 H :    0.127884
  10 H :    0.102604
  11 H :    0.108209
Sum of atomic charges:    0.0000000

LOEWDIN ATOMIC CHARGES
----------------------
   0 C :   -0.002054
   1 O :   -0.005107
   2 H :   -0.035997
   3 H :   -0.000018
   4 H :   -0.000953
   5 H :   -0.000026
   6 C :   -0.391531
   7 O :   -0.045823
   8 H :    0.158672
   9 H :    0.114512
  10 H :    0.106579
  11 H :    0.101748

  Mayer bond orders larger than 0.1
B(  6-C ,  7-O ) :   0.9805 B(  6-C ,  9-H ) :   0.9701 B(  6-C , 10-H ) :   0.9664
B(  6-C , 11-H ) :   0.9800 B(  7-O ,  8-H ) :   0.8980

Dispersion correction           -0.000255409
FINAL SINGLE POINT ENERGY      -115.730022262098

DIPOLE MOMENT
-------------
                                X             Y             Z
Electronic contribution:      0.87248       0.69787      -1.50317
Nuclear contribution   :     -1.25792      -0.39720       1.98434
                        -----------------------------------------
Total Dipole Moment    :     -0.38544       0.30067       0.48117
                        -----------------------------------------
Magnitude (a.u.)       :      0.68593
Magnitude (Debye)      :      1.74349

Rotational constants in cm-1:     4.050673     0.805925     0.788141
Rotational constants in MHz : 121436.126209 24161.031401 23627.860285

                             ****ORCA TERMINATED NORMALLY****
TOTAL RUN TIME: 0 days 0 hours 0 minutes 50 seconds 249 msec
