                         Program Version 4.1.2  - RELEASE  -
|  1> #Run DFT-D3 single point of the dimer
|  2> ! wB97X-D3 def2-TZVP TIGHTSCF CHELPG PMODEL PAL8
|  3>
|  4> %base "12-159_DFT_AB"
|  5>
|  6> %scf
|  7> MaxIter 1000
|  8> end
|  9>
| 10> * xyz 0 1
| 11>   C                      -5.146184            -10.479023           -1.996520
| 12>   O                      -6.108993            -9.500857            -1.845070
| 13>   H                      -6.518291            -9.291486            -2.699533
| 14>   H                      -4.368423            -10.133735           -2.590134
| 15>   H                      -4.699562            -10.679893           -0.967721
| 16>   H                      -5.635315            -11.382812           -2.326898
| 17>   C                      -6.537164            -10.554918           -5.514291
| 18>   O                      -6.717694            -9.433943            -4.689288
| 19>   H                      -6.575335            -8.664448            -5.248633
| 20>   H                      -7.038478            -11.478137           -5.017293
| 21>   H                      -7.143982            -10.434640           -6.380842
| 22>   H                      -5.516036            -10.789882           -5.758788
| 23> *
| 24>
| 25> #Run DFT-D3 single point of the molecule with dimer basis set
| 26> $new_job
| 27> %base "12-159_DFT_A"
| 28> ! wB97X-D3 def2-TZVP TIGHTSCF CHELPG PMODEL
| 29>
| 30> %scf
| 31> MaxIter 1000
| 32> end
| 33>
| 34> * xyz 0 1
| 35>   C                      -5.146184            -10.479023           -1.996520
| 36>   O                      -6.108993            -9.500857            -1.845070
| 37>   H                      -6.518291            -9.291486            -2.699533
| 38>   H                      -4.368423            -10.133735           -2.590134
| 39>   H                      -4.699562            -10.679893           -0.967721
| 40>   H                      -5.635315            -11.382812           -2.326898
| 41>   C                    : -6.537164            -10.554918           -5.514291
| 42>   O                    : -6.717694            -9.433943            -4.689288
| 43>   H                    : -6.575335            -8.664448            -5.248633
| 44>   H                    : -7.038478            -11.478137           -5.017293
| 45>   H                    : -7.143982            -10.434640           -6.380842
| 46>   H                    : -5.516036            -10.789882           -5.758788
| 47> *
| 48>
| 49> #Run DFT-D3 single point of the particle with dimer basis set
| 50> $new_job
| 51> %base "12-159_DFT_B"
| 52> ! wB97X-D3 def2-TZVP TIGHTSCF CHELPG PMODEL
| 53>
| 54> %scf
| 55> MaxIter 1000
| 56> end
| 57>
| 58> * xyz 0 1
| 59>   C                    : -5.146184            -10.479023           -1.996520
| 60>   O                    : -6.108993            -9.500857            -1.845070
| 61>   H                    : -6.518291            -9.291486            -2.699533
| 62>   H                    : -4.368423            -10.133735           -2.590134
| 63>   H                    : -4.699562            -10.679893           -0.967721
| 64>   H                    : -5.635315            -11.382812           -2.326898
| 65>   C                      -6.537164            -10.554918           -5.514291
| 66>   O                      -6.717694            -9.433943            -4.689288
| 67>   H                      -6.575335            -8.664448            -5.248633
| 68>   H                      -7.038478            -11.478137           -5.017293
| 69>   H                      -7.143982            -10.434640           -6.380842
| 70>   H                      -5.516036            -10.789882           -5.758788
| 71> *
| 72>
| 73>                          ****END OF INPUT****
 Total Charge           Charge          ....    0
 Multiplicity           Mult            ....    1
 Number of Electrons    NEL             ....   36
Dispersion correction           -0.002103685
FINAL SINGLE POINT ENERGY      -231.471763743897
Dispersion correction           -0.000213263
FINAL SINGLE POINT ENERGY      -115.731535002128

CARTESIAN COORDINATES (ANGSTROEM)
---------------------------------
  C     -5.146184  -10.479023   -1.996520
  O     -6.108993   -9.500857   -1.845070
  H     -6.518291   -9.291486   -2.699533
  H     -4.368423  -10.133735   -2.590134
  H     -4.699562  -10.679893   -0.967721
  H     -5.635315  -11.382812   -2.326898
  C     -6.537164  -10.554918   -5.514291
  O     -6.717694   -9.433943   -4.689288
  H     -6.575335   -8.664448   -5.248633
  H     -7.038478  -11.478137   -5.017293
  H     -7.143982  -10.434640   -6.380842
  H     -5.516036  -10.789882   -5.758788

 Multiplicity           Mult            ....    1
 Number of Electrons    NEL             ....   18
 Basis Dimension        Dim             ....  172

ORBITAL ENERGIES
----------------

  NO   OCC          E(Eh)            E(eV)
   0   2.0000     -19.231762      -523.3228
   1   2.0000     -10.313808      -280.6530
   2   2.0000      -1.141327       -31.0571
   3   2.0000      -0.792905       -21.5760
   4   2.0000      -0.612477       -16.6663
   5   2.0000      -0.554546       -15.0900
   6   2.0000      -0.520536       -14.1645
   7   2.0000      -0.426291       -11.6000
   8   2.0000      -0.377793       -10.2803
   9   0.0000       0.097635         2.6568
  10   0.0000       0.129362         3.5201
  11   0.0000       0.150269         4.0890
  12   0.0000       0.182679         4.9710
  13   0.0000       0.198323         5.3966

MULLIKEN ATOMIC CHARGES
-----------------------
   0 C :    0.007867
   1 O :   -0.001324
   2 H :   -0.007982
   3 H :   -0.004901
   4 H :   -0.000112
   5 H :   -0.001092
   6 C :   -0.162742
   7 O :   -0.466222
   8 H :    0.312647
   9 H :    0.110062
  10 H :    0.109575
  11 H :    0.104223
Sum of atomic charges:    0.0000000

LOEWDIN ATOMIC CHARGES
----------------------
   0 C :   -0.007068
   1 O :   -0.004791
   2 H :   -0.036359
   3 H :   -0.001395
   4 H :   -0.000082
   5 H :   -0.000880
   6 C :   -0.394871
   7 O :   -0.029815
   8 H :    0.171762
   9 H :    0.121694
  10 H :    0.091540
  11 H :    0.090264

  Mayer bond orders larger than 0.1
B(  6-C ,  7-O ) :   0.9923 B(  6-C ,  9-H ) :   0.9765 B(  6-C , 10-H ) :   0.9792
B(  6-C , 11-H ) :   0.9689 B(  7-O ,  8-H ) :   0.8978

Dispersion correction           -0.000233616
FINAL SINGLE POINT ENERGY      -115.732003208072

DIPOLE MOMENT
-------------
                                X             Y             Z
Electronic contribution:     -0.09997       1.44842       1.12045
Nuclear contribution   :      0.23434      -1.39335      -1.82532
                        -----------------------------------------
Total Dipole Moment    :      0.13437       0.05508      -0.70487
                        -----------------------------------------
Magnitude (a.u.)       :      0.71968
Magnitude (Debye)      :      1.82928

Rotational constants in cm-1:     4.253758     0.839715     0.811775
Rotational constants in MHz : 127524.465625 25174.009706 24336.411499

                             ****ORCA TERMINATED NORMALLY****
TOTAL RUN TIME: 0 days 0 hours 1 minutes 16 seconds 749 msec
