                         Program Version 4.1.2  - RELEASE  -
|  1> #Run DFT-D3 single point of the dimer
|  2> ! wB97X-D3 def2-TZVP TIGHTSCF CHELPG PMODEL PAL8
|  3>
|  4> %base "20-54_DFT_AB"
|  5>
|  6> %scf
|  7> MaxIter 1000
|  8> end
|  9>
| 10> * xyz 0 1
| 11>   C                      6.774995             -8.324252            -6.953877
| 12>   O                      7.881105             -8.521997            -6.079112
| 13>   H                      7.517149             -8.829247            -5.213137
| 14>   H                      6.347906             -9.271718            -7.258913
| 15>   H                      6.000089             -7.780573            -6.407686
| 16>   H                      7.153695             -7.866640            -7.863631
| 17>   C                      9.120961             -6.849547            -2.911448
| 18>   O                      8.104281             -5.987390            -3.377930
| 19>   H                      7.520534             -6.399815            -3.979803
| 20>   H                      9.537305             -6.457883            -1.999201
| 21>   H                      8.666208             -7.838895            -2.838411
| 22>   H                      9.986982             -7.033741            -3.580794
| 23> *
| 24>
| 25> #Run DFT-D3 single point of the molecule with dimer basis set
| 26> $new_job
| 27> %base "20-54_DFT_A"
| 28> ! wB97X-D3 def2-TZVP TIGHTSCF CHELPG PMODEL
| 29>
| 30> %scf
| 31> MaxIter 1000
| 32> end
| 33>
| 34> * xyz 0 1
| 35>   C                      6.774995             -8.324252            -6.953877
| 36>   O                      7.881105             -8.521997            -6.079112
| 37>   H                      7.517149             -8.829247            -5.213137
| 38>   H                      6.347906             -9.271718            -7.258913
| 39>   H                      6.000089             -7.780573            -6.407686
| 40>   H                      7.153695             -7.866640            -7.863631
| 41>   C                    : 9.120961             -6.849547            -2.911448
| 42>   O                    : 8.104281             -5.987390            -3.377930
| 43>   H                    : 7.520534             -6.399815            -3.979803
| 44>   H                    : 9.537305             -6.457883            -1.999201
| 45>   H                    : 8.666208             -7.838895            -2.838411
| 46>   H                    : 9.986982             -7.033741            -3.580794
| 47> *
| 48>
| 49> #Run DFT-D3 single point of the particle with dimer basis set
| 50> $new_job
| 51> %base "20-54_DFT_B"
| 52> ! wB97X-D3 def2-TZVP TIGHTSCF CHELPG PMODEL
| 53>
| 54> %scf
| 55> MaxIter 1000
| 56> end
| 57>
| 58> * xyz 0 1
| 59>   C                    : 6.774995             -8.324252            -6.953877
| 60>   O                    : 7.881105             -8.521997            -6.079112
| 61>   H                    : 7.517149             -8.829247            -5.213137
| 62>   H                    : 6.347906             -9.271718            -7.258913
| 63>   H                    : 6.000089             -7.780573            -6.407686
| 64>   H                    : 7.153695             -7.866640            -7.863631
| 65>   C                      9.120961             -6.849547            -2.911448
| 66>   O                      8.104281             -5.987390            -3.377930
| 67>   H                      7.520534             -6.399815            -3.979803
| 68>   H                      9.537305             -6.457883            -1.999201
| 69>   H                      8.666208             -7.838895            -2.838411
| 70>   H                      9.986982             -7.033741            -3.580794
| 71> *
| 72>
| 73>                          ****END OF INPUT****
 Total Charge           Charge          ....    0
 Multiplicity           Mult            ....    1
 Number of Electrons    NEL             ....   36
Dispersion correction           -0.001656418
FINAL SINGLE POINT ENERGY      -231.467303319009
Dispersion correction           -0.000226969
FINAL SINGLE POINT ENERGY      -115.734687644745

CARTESIAN COORDINATES (ANGSTROEM)
---------------------------------
  C      6.774995   -8.324252   -6.953877
  O      7.881105   -8.521997   -6.079112
  H      7.517149   -8.829247   -5.213137
  H      6.347906   -9.271718   -7.258913
  H      6.000089   -7.780573   -6.407686
  H      7.153695   -7.866640   -7.863631
  C      9.120961   -6.849547   -2.911448
  O      8.104281   -5.987390   -3.377930
  H      7.520534   -6.399815   -3.979803
  H      9.537305   -6.457883   -1.999201
  H      8.666208   -7.838895   -2.838411
  H      9.986982   -7.033741   -3.580794

 Multiplicity           Mult            ....    1
 Number of Electrons    NEL             ....   18
 Basis Dimension        Dim             ....  172

ORBITAL ENERGIES
----------------

  NO   OCC          E(Eh)            E(eV)
   0   2.0000     -19.225732      -523.1588
   1   2.0000     -10.313977      -280.6576
   2   2.0000      -1.138782       -30.9878
   3   2.0000      -0.800781       -21.7904
   4   2.0000      -0.618558       -16.8318
   5   2.0000      -0.543488       -14.7891
   6   2.0000      -0.525854       -14.3092
   7   2.0000      -0.432185       -11.7603
   8   2.0000      -0.369680       -10.0595
   9   0.0000       0.070548         1.9197
  10   0.0000       0.125523         3.4156
  11   0.0000       0.149306         4.0628
  12   0.0000       0.177401         4.8273
  13   0.0000       0.188112         5.1188

MULLIKEN ATOMIC CHARGES
-----------------------
   0 C :   -0.000456
   1 O :   -0.000309
   2 H :   -0.000341
   3 H :   -0.000020
   4 H :   -0.000203
   5 H :    0.000105
   6 C :   -0.150862
   7 O :   -0.479485
   8 H :    0.312706
   9 H :    0.123454
  10 H :    0.101681
  11 H :    0.093731
Sum of atomic charges:    0.0000000

LOEWDIN ATOMIC CHARGES
----------------------
   0 C :   -0.000761
   1 O :   -0.000999
   2 H :   -0.001587
   3 H :   -0.000013
   4 H :   -0.000305
   5 H :   -0.000004
   6 C :   -0.379840
   7 O :   -0.062684
   8 H :    0.149243
   9 H :    0.104668
  10 H :    0.096961
  11 H :    0.095321

  Mayer bond orders larger than 0.1
B(  6-C ,  7-O ) :   0.9956 B(  6-C ,  9-H ) :   0.9756 B(  6-C , 10-H ) :   0.9904
B(  6-C , 11-H ) :   0.9654 B(  7-O ,  8-H ) :   0.9050

Dispersion correction           -0.000248629
FINAL SINGLE POINT ENERGY      -115.731728331061

DIPOLE MOMENT
-------------
                                X             Y             Z
Electronic contribution:     -1.24401       1.25312      -0.45282
Nuclear contribution   :      1.26406      -1.88135       0.25391
                        -----------------------------------------
Total Dipole Moment    :      0.02005      -0.62823      -0.19891
                        -----------------------------------------
Magnitude (a.u.)       :      0.65927
Magnitude (Debye)      :      1.67574

Rotational constants in cm-1:     4.447496     0.832413     0.794661
Rotational constants in MHz : 133332.589577 24955.119985 23823.350852

                             ****ORCA TERMINATED NORMALLY****
TOTAL RUN TIME: 0 days 0 hours 1 minutes 7 seconds 160 msec
