                         Program Version 4.1.2  - RELEASE  -
|  1> #Run DFT-D3 single point of the dimer
|  2> ! wB97X-D3 def2-TZVP TIGHTSCF CHELPG PMODEL PAL8
|  3>
|  4> %base "18-125_DFT_AB"
|  5>
|  6> %scf
|  7> MaxIter 1000
|  8> end
|  9>
| 10> * xyz 0 1
| 11>   C                      -2.094311            2.283453             2.567803
| 12>   O                      -2.206315            1.869918             1.194003
| 13>   H                      -3.161988            1.826491             1.108694
| 14>   H                      -2.770650            1.809254             3.256604
| 15>   H                      -1.121342            2.272797             2.978147
| 16>   H                      -2.354916            3.318122             2.580382
| 17>   C                      -5.233125            4.057205             1.120172
| 18>   O                      -4.049725            4.015248             0.367915
| 19>   H                      -3.640704            4.844211             0.494158
| 20>   H                      -5.756371            5.064788             1.065926
| 21>   H                      -5.982062            3.392982             0.703762
| 22>   H                      -5.052303            3.785532             2.221070
| 23> *
| 24>
| 25> #Run DFT-D3 single point of the molecule with dimer basis set
| 26> $new_job
| 27> %base "18-125_DFT_A"
| 28> ! wB97X-D3 def2-TZVP TIGHTSCF CHELPG PMODEL
| 29>
| 30> %scf
| 31> MaxIter 1000
| 32> end
| 33>
| 34> * xyz 0 1
| 35>   C                      -2.094311            2.283453             2.567803
| 36>   O                      -2.206315            1.869918             1.194003
| 37>   H                      -3.161988            1.826491             1.108694
| 38>   H                      -2.770650            1.809254             3.256604
| 39>   H                      -1.121342            2.272797             2.978147
| 40>   H                      -2.354916            3.318122             2.580382
| 41>   C                    : -5.233125            4.057205             1.120172
| 42>   O                    : -4.049725            4.015248             0.367915
| 43>   H                    : -3.640704            4.844211             0.494158
| 44>   H                    : -5.756371            5.064788             1.065926
| 45>   H                    : -5.982062            3.392982             0.703762
| 46>   H                    : -5.052303            3.785532             2.221070
| 47> *
| 48>
| 49> #Run DFT-D3 single point of the particle with dimer basis set
| 50> $new_job
| 51> %base "18-125_DFT_B"
| 52> ! wB97X-D3 def2-TZVP TIGHTSCF CHELPG PMODEL
| 53>
| 54> %scf
| 55> MaxIter 1000
| 56> end
| 57>
| 58> * xyz 0 1
| 59>   C                    : -2.094311            2.283453             2.567803
| 60>   O                    : -2.206315            1.869918             1.194003
| 61>   H                    : -3.161988            1.826491             1.108694
| 62>   H                    : -2.770650            1.809254             3.256604
| 63>   H                    : -1.121342            2.272797             2.978147
| 64>   H                    : -2.354916            3.318122             2.580382
| 65>   C                      -5.233125            4.057205             1.120172
| 66>   O                      -4.049725            4.015248             0.367915
| 67>   H                      -3.640704            4.844211             0.494158
| 68>   H                      -5.756371            5.064788             1.065926
| 69>   H                      -5.982062            3.392982             0.703762
| 70>   H                      -5.052303            3.785532             2.221070
| 71> *
| 72>
| 73>                          ****END OF INPUT****
 Total Charge           Charge          ....    0
 Multiplicity           Mult            ....    1
 Number of Electrons    NEL             ....   36
Dispersion correction           -0.002259887
FINAL SINGLE POINT ENERGY      -231.463877823083
Dispersion correction           -0.000222008
FINAL SINGLE POINT ENERGY      -115.729600117695

CARTESIAN COORDINATES (ANGSTROEM)
---------------------------------
  C     -2.094311    2.283453    2.567803
  O     -2.206315    1.869918    1.194003
  H     -3.161988    1.826491    1.108694
  H     -2.770650    1.809254    3.256604
  H     -1.121342    2.272797    2.978147
  H     -2.354916    3.318122    2.580382
  C     -5.233125    4.057205    1.120172
  O     -4.049725    4.015248    0.367915
  H     -3.640704    4.844211    0.494158
  H     -5.756371    5.064788    1.065926
  H     -5.982062    3.392982    0.703762
  H     -5.052303    3.785532    2.221070

 Multiplicity           Mult            ....    1
 Number of Electrons    NEL             ....   18
 Basis Dimension        Dim             ....  172

ORBITAL ENERGIES
----------------

  NO   OCC          E(Eh)            E(eV)
   0   2.0000     -19.232798      -523.3510
   1   2.0000     -10.322027      -280.8766
   2   2.0000      -1.149459       -31.2784
   3   2.0000      -0.792149       -21.5555
   4   2.0000      -0.614777       -16.7289
   5   2.0000      -0.542255       -14.7555
   6   2.0000      -0.527671       -14.3587
   7   2.0000      -0.433420       -11.7939
   8   2.0000      -0.376619       -10.2483
   9   0.0000       0.091792         2.4978
  10   0.0000       0.131219         3.5707
  11   0.0000       0.149698         4.0735
  12   0.0000       0.182458         4.9649
  13   0.0000       0.187081         5.0907

MULLIKEN ATOMIC CHARGES
-----------------------
   0 C :    0.003800
   1 O :    0.003946
   2 H :   -0.003452
   3 H :   -0.000827
   4 H :   -0.000418
   5 H :   -0.009256
   6 C :   -0.181663
   7 O :   -0.456995
   8 H :    0.313842
   9 H :    0.105624
  10 H :    0.124754
  11 H :    0.100645
Sum of atomic charges:   -0.0000000

LOEWDIN ATOMIC CHARGES
----------------------
   0 C :   -0.006965
   1 O :   -0.006782
   2 H :   -0.010167
   3 H :   -0.000276
   4 H :   -0.000061
   5 H :   -0.004326
   6 C :   -0.404384
   7 O :   -0.032682
   8 H :    0.155026
   9 H :    0.103087
  10 H :    0.104113
  11 H :    0.103416

  Mayer bond orders larger than 0.1
B(  6-C ,  7-O ) :   0.9958 B(  6-C ,  9-H ) :   0.9762 B(  6-C , 10-H ) :   0.9753
B(  6-C , 11-H ) :   0.9696 B(  7-O ,  8-H ) :   0.9038

Dispersion correction           -0.000250893
FINAL SINGLE POINT ENERGY      -115.733255510880

DIPOLE MOMENT
-------------
                                X             Y             Z
Electronic contribution:      1.59131      -0.22912      -1.08889
Nuclear contribution   :     -1.79797       0.78214       1.40746
                        -----------------------------------------
Total Dipole Moment    :     -0.20666       0.55302       0.31857
                        -----------------------------------------
Magnitude (a.u.)       :      0.67084
Magnitude (Debye)      :      1.70513

Rotational constants in cm-1:     4.184561     0.829345     0.811186
Rotational constants in MHz : 125449.993681 24863.127791 24318.732944

                             ****ORCA TERMINATED NORMALLY****
TOTAL RUN TIME: 0 days 0 hours 1 minutes 8 seconds 80 msec
