                         Program Version 4.1.2  - RELEASE  -
|  1> #Run DFT-D3 single point of the dimer
|  2> ! wB97X-D3 def2-TZVP TIGHTSCF CHELPG PMODEL PAL8
|  3>
|  4> %base "12-102_DFT_AB"
|  5>
|  6> %scf
|  7> MaxIter 1000
|  8> end
|  9>
| 10> * xyz 0 1
| 11>   C                      7.069487             6.948817             1.348319
| 12>   O                      6.833436             7.462442             0.067141
| 13>   H                      6.469724             6.786522             -0.512093
| 14>   H                      6.543788             6.020128             1.325691
| 15>   H                      8.106300             6.629288             1.569079
| 16>   H                      6.689718             7.616708             2.082214
| 17>   C                      6.548716             3.582981             -1.459141
| 18>   O                      6.030611             4.675191             -0.691960
| 19>   H                      5.401583             4.328642             -0.100118
| 20>   H                      5.678680             3.056206             -1.977759
| 21>   H                      7.278851             3.904338             -2.254749
| 22>   H                      7.220410             2.875857             -1.003596
| 23> *
| 24>
| 25> #Run DFT-D3 single point of the molecule with dimer basis set
| 26> $new_job
| 27> %base "12-102_DFT_A"
| 28> ! wB97X-D3 def2-TZVP TIGHTSCF CHELPG PMODEL
| 29>
| 30> %scf
| 31> MaxIter 1000
| 32> end
| 33>
| 34> * xyz 0 1
| 35>   C                      7.069487             6.948817             1.348319
| 36>   O                      6.833436             7.462442             0.067141
| 37>   H                      6.469724             6.786522             -0.512093
| 38>   H                      6.543788             6.020128             1.325691
| 39>   H                      8.106300             6.629288             1.569079
| 40>   H                      6.689718             7.616708             2.082214
| 41>   C                    : 6.548716             3.582981             -1.459141
| 42>   O                    : 6.030611             4.675191             -0.691960
| 43>   H                    : 5.401583             4.328642             -0.100118
| 44>   H                    : 5.678680             3.056206             -1.977759
| 45>   H                    : 7.278851             3.904338             -2.254749
| 46>   H                    : 7.220410             2.875857             -1.003596
| 47> *
| 48>
| 49> #Run DFT-D3 single point of the particle with dimer basis set
| 50> $new_job
| 51> %base "12-102_DFT_B"
| 52> ! wB97X-D3 def2-TZVP TIGHTSCF CHELPG PMODEL
| 53>
| 54> %scf
| 55> MaxIter 1000
| 56> end
| 57>
| 58> * xyz 0 1
| 59>   C                    : 7.069487             6.948817             1.348319
| 60>   O                    : 6.833436             7.462442             0.067141
| 61>   H                    : 6.469724             6.786522             -0.512093
| 62>   H                    : 6.543788             6.020128             1.325691
| 63>   H                    : 8.106300             6.629288             1.569079
| 64>   H                    : 6.689718             7.616708             2.082214
| 65>   C                      6.548716             3.582981             -1.459141
| 66>   O                      6.030611             4.675191             -0.691960
| 67>   H                      5.401583             4.328642             -0.100118
| 68>   H                      5.678680             3.056206             -1.977759
| 69>   H                      7.278851             3.904338             -2.254749
| 70>   H                      7.220410             2.875857             -1.003596
| 71> *
| 72>
| 73>                          ****END OF INPUT****
 Total Charge           Charge          ....    0
 Multiplicity           Mult            ....    1
 Number of Electrons    NEL             ....   36
Dispersion correction           -0.001825973
FINAL SINGLE POINT ENERGY      -231.463981567908
Dispersion correction           -0.000230809
FINAL SINGLE POINT ENERGY      -115.729230042217

CARTESIAN COORDINATES (ANGSTROEM)
---------------------------------
  C      7.069487    6.948817    1.348319
  O      6.833436    7.462442    0.067141
  H      6.469724    6.786522   -0.512093
  H      6.543788    6.020128    1.325691
  H      8.106300    6.629288    1.569079
  H      6.689718    7.616708    2.082214
  C      6.548716    3.582981   -1.459141
  O      6.030611    4.675191   -0.691960
  H      5.401583    4.328642   -0.100118
  H      5.678680    3.056206   -1.977759
  H      7.278851    3.904338   -2.254749
  H      7.220410    2.875857   -1.003596

 Multiplicity           Mult            ....    1
 Number of Electrons    NEL             ....   18
 Basis Dimension        Dim             ....  172

ORBITAL ENERGIES
----------------

  NO   OCC          E(Eh)            E(eV)
   0   2.0000     -19.234289      -523.3916
   1   2.0000     -10.322790      -280.8974
   2   2.0000      -1.140600       -31.0373
   3   2.0000      -0.798569       -21.7302
   4   2.0000      -0.612417       -16.6647
   5   2.0000      -0.547894       -14.9090
   6   2.0000      -0.517853       -14.0915
   7   2.0000      -0.429455       -11.6861
   8   2.0000      -0.379726       -10.3329
   9   0.0000       0.100988         2.7480
  10   0.0000       0.129526         3.5246
  11   0.0000       0.148928         4.0525
  12   0.0000       0.183385         4.9902
  13   0.0000       0.197346         5.3701

MULLIKEN ATOMIC CHARGES
-----------------------
   0 C :    0.017041
   1 O :   -0.000281
   2 H :   -0.008924
   3 H :   -0.023233
   4 H :   -0.001746
   5 H :   -0.000948
   6 C :   -0.182745
   7 O :   -0.447596
   8 H :    0.312742
   9 H :    0.104016
  10 H :    0.120690
  11 H :    0.110985
Sum of atomic charges:   -0.0000000

LOEWDIN ATOMIC CHARGES
----------------------
   0 C :   -0.009954
   1 O :   -0.003192
   2 H :   -0.023933
   3 H :   -0.011764
   4 H :   -0.000362
   5 H :   -0.000128
   6 C :   -0.386497
   7 O :   -0.030411
   8 H :    0.151917
   9 H :    0.106659
  10 H :    0.116409
  11 H :    0.091254

  Mayer bond orders larger than 0.1
B(  6-C ,  7-O ) :   1.0048 B(  6-C ,  9-H ) :   0.9797 B(  6-C , 10-H ) :   0.9754
B(  6-C , 11-H ) :   0.9604 B(  7-O ,  8-H ) :   0.9010

Dispersion correction           -0.000275033
FINAL SINGLE POINT ENERGY      -115.727707321011

DIPOLE MOMENT
-------------
                                X             Y             Z
Electronic contribution:     -0.62912       1.50893       1.08264
Nuclear contribution   :      0.46261      -2.17525      -1.02174
                        -----------------------------------------
Total Dipole Moment    :     -0.16651      -0.66633       0.06090
                        -----------------------------------------
Magnitude (a.u.)       :      0.68951
Magnitude (Debye)      :      1.75261

Rotational constants in cm-1:     4.388366     0.798957     0.772176
Rotational constants in MHz : 131559.892164 23952.128325 23149.264781

                             ****ORCA TERMINATED NORMALLY****
TOTAL RUN TIME: 0 days 0 hours 1 minutes 9 seconds 226 msec
