                         Program Version 4.1.2  - RELEASE  -
|  1> #Run DFT-D3 single point of the dimer
|  2> ! wB97X-D3 def2-TZVP TIGHTSCF CHELPG PMODEL PAL8
|  3>
|  4> %base "16-156_DFT_AB"
|  5>
|  6> %scf
|  7> MaxIter 1000
|  8> end
|  9>
| 10> * xyz 0 1
| 11>   C                      7.981455             6.285149             6.688696
| 12>   O                      7.320770             5.234666             7.420826
| 13>   H                      8.008159             4.788623             7.945116
| 14>   H                      8.256039             5.923979             5.743816
| 15>   H                      7.261805             7.101432             6.695755
| 16>   H                      8.826434             6.675996             7.248663
| 17>   C                      6.702892             0.779702             7.600748
| 18>   O                      7.121883             1.692307             6.609128
| 19>   H                      7.273720             2.593465             6.912985
| 20>   H                      7.038373             1.054997             8.600324
| 21>   H                      5.597028             0.886269             7.755625
| 22>   H                      6.986620             -0.200158            7.380845
| 23> *
| 24>
| 25> #Run DFT-D3 single point of the molecule with dimer basis set
| 26> $new_job
| 27> %base "16-156_DFT_A"
| 28> ! wB97X-D3 def2-TZVP TIGHTSCF CHELPG PMODEL
| 29>
| 30> %scf
| 31> MaxIter 1000
| 32> end
| 33>
| 34> * xyz 0 1
| 35>   C                      7.981455             6.285149             6.688696
| 36>   O                      7.320770             5.234666             7.420826
| 37>   H                      8.008159             4.788623             7.945116
| 38>   H                      8.256039             5.923979             5.743816
| 39>   H                      7.261805             7.101432             6.695755
| 40>   H                      8.826434             6.675996             7.248663
| 41>   C                    : 6.702892             0.779702             7.600748
| 42>   O                    : 7.121883             1.692307             6.609128
| 43>   H                    : 7.273720             2.593465             6.912985
| 44>   H                    : 7.038373             1.054997             8.600324
| 45>   H                    : 5.597028             0.886269             7.755625
| 46>   H                    : 6.986620             -0.200158            7.380845
| 47> *
| 48>
| 49> #Run DFT-D3 single point of the particle with dimer basis set
| 50> $new_job
| 51> %base "16-156_DFT_B"
| 52> ! wB97X-D3 def2-TZVP TIGHTSCF CHELPG PMODEL
| 53>
| 54> %scf
| 55> MaxIter 1000
| 56> end
| 57>
| 58> * xyz 0 1
| 59>   C                    : 7.981455             6.285149             6.688696
| 60>   O                    : 7.320770             5.234666             7.420826
| 61>   H                    : 8.008159             4.788623             7.945116
| 62>   H                    : 8.256039             5.923979             5.743816
| 63>   H                    : 7.261805             7.101432             6.695755
| 64>   H                    : 8.826434             6.675996             7.248663
| 65>   C                      6.702892             0.779702             7.600748
| 66>   O                      7.121883             1.692307             6.609128
| 67>   H                      7.273720             2.593465             6.912985
| 68>   H                      7.038373             1.054997             8.600324
| 69>   H                      5.597028             0.886269             7.755625
| 70>   H                      6.986620             -0.200158            7.380845
| 71> *
| 72>
| 73>                          ****END OF INPUT****
 Total Charge           Charge          ....    0
 Multiplicity           Mult            ....    1
 Number of Electrons    NEL             ....   36
Dispersion correction           -0.001214376
FINAL SINGLE POINT ENERGY      -231.466406442312
Dispersion correction           -0.000230315
FINAL SINGLE POINT ENERGY      -115.733108794839

CARTESIAN COORDINATES (ANGSTROEM)
---------------------------------
  C      7.981455    6.285149    6.688696
  O      7.320770    5.234666    7.420826
  H      8.008159    4.788623    7.945116
  H      8.256039    5.923979    5.743816
  H      7.261805    7.101432    6.695755
  H      8.826434    6.675996    7.248663
  C      6.702892    0.779702    7.600748
  O      7.121883    1.692307    6.609128
  H      7.273720    2.593465    6.912985
  H      7.038373    1.054997    8.600324
  H      5.597028    0.886269    7.755625
  H      6.986620   -0.200158    7.380845

 Multiplicity           Mult            ....    1
 Number of Electrons    NEL             ....   18
 Basis Dimension        Dim             ....  172

ORBITAL ENERGIES
----------------

  NO   OCC          E(Eh)            E(eV)
   0   2.0000     -19.226880      -523.1900
   1   2.0000     -10.311551      -280.5916
   2   2.0000      -1.131099       -30.7788
   3   2.0000      -0.801528       -21.8107
   4   2.0000      -0.616325       -16.7711
   5   2.0000      -0.546662       -14.8754
   6   2.0000      -0.522615       -14.2211
   7   2.0000      -0.429605       -11.6902
   8   2.0000      -0.367699       -10.0056
   9   0.0000       0.072800         1.9810
  10   0.0000       0.120583         3.2812
  11   0.0000       0.151642         4.1264
  12   0.0000       0.180807         4.9200
  13   0.0000       0.196173         5.3381

MULLIKEN ATOMIC CHARGES
-----------------------
   0 C :   -0.000039
   1 O :   -0.000152
   2 H :   -0.001126
   3 H :   -0.000017
   4 H :    0.000014
   5 H :    0.000003
   6 C :   -0.144345
   7 O :   -0.492326
   8 H :    0.318999
   9 H :    0.097119
  10 H :    0.096477
  11 H :    0.125392
Sum of atomic charges:   -0.0000000

LOEWDIN ATOMIC CHARGES
----------------------
   0 C :   -0.000253
   1 O :   -0.002321
   2 H :   -0.001909
   3 H :   -0.000025
   4 H :   -0.000005
   5 H :   -0.000002
   6 C :   -0.377066
   7 O :   -0.078165
   8 H :    0.169671
   9 H :    0.094200
  10 H :    0.100896
  11 H :    0.094979

  Mayer bond orders larger than 0.1
B(  6-C ,  7-O ) :   0.9909 B(  6-C ,  9-H ) :   0.9805 B(  6-C , 10-H ) :   0.9776
B(  6-C , 11-H ) :   0.9727 B(  7-O ,  8-H ) :   0.8962

Dispersion correction           -0.000253015
FINAL SINGLE POINT ENERGY      -115.730747548984

DIPOLE MOMENT
-------------
                                X             Y             Z
Electronic contribution:      0.66479       0.92867      -1.42541
Nuclear contribution   :     -0.71300      -0.70675       2.05301
                        -----------------------------------------
Total Dipole Moment    :     -0.04821       0.22192       0.62760
                        -----------------------------------------
Magnitude (a.u.)       :      0.66742
Magnitude (Debye)      :      1.69646

Rotational constants in cm-1:     4.459442     0.826406     0.795594
Rotational constants in MHz : 133690.710579 24775.014705 23851.293735

                             ****ORCA TERMINATED NORMALLY****
TOTAL RUN TIME: 0 days 0 hours 0 minutes 59 seconds 907 msec
