                         Program Version 4.1.2  - RELEASE  -
|  1> #Run DFT-D3 single point of the dimer
|  2> ! wB97X-D3 def2-TZVP TIGHTSCF CHELPG PMODEL PAL8
|  3>
|  4> %base "10-74_DFT_AB"
|  5>
|  6> %scf
|  7> MaxIter 1000
|  8> end
|  9>
| 10> * xyz 0 1
| 11>   C                      4.546624             -10.081734           -0.355543
| 12>   O                      3.316980             -9.471916            -0.450149
| 13>   H                      3.133284             -8.853097            0.272998
| 14>   H                      5.079215             -10.102797           -1.305874
| 15>   H                      5.187251             -9.604669            0.363695
| 16>   H                      4.466684             -11.200598           -0.094542
| 17>   C                      1.237218             -10.571253           -4.731252
| 18>   O                      2.090663             -11.620678           -4.301068
| 19>   H                      1.684505             -12.049990           -3.539937
| 20>   H                      1.738121             -9.896252            -5.432714
| 21>   H                      0.298399             -10.936982           -5.241484
| 22>   H                      0.890046             -9.963813            -3.901905
| 23> *
| 24>
| 25> #Run DFT-D3 single point of the molecule with dimer basis set
| 26> $new_job
| 27> %base "10-74_DFT_A"
| 28> ! wB97X-D3 def2-TZVP TIGHTSCF CHELPG PMODEL
| 29>
| 30> %scf
| 31> MaxIter 1000
| 32> end
| 33>
| 34> * xyz 0 1
| 35>   C                      4.546624             -10.081734           -0.355543
| 36>   O                      3.316980             -9.471916            -0.450149
| 37>   H                      3.133284             -8.853097            0.272998
| 38>   H                      5.079215             -10.102797           -1.305874
| 39>   H                      5.187251             -9.604669            0.363695
| 40>   H                      4.466684             -11.200598           -0.094542
| 41>   C                    : 1.237218             -10.571253           -4.731252
| 42>   O                    : 2.090663             -11.620678           -4.301068
| 43>   H                    : 1.684505             -12.049990           -3.539937
| 44>   H                    : 1.738121             -9.896252            -5.432714
| 45>   H                    : 0.298399             -10.936982           -5.241484
| 46>   H                    : 0.890046             -9.963813            -3.901905
| 47> *
| 48>
| 49> #Run DFT-D3 single point of the particle with dimer basis set
| 50> $new_job
| 51> %base "10-74_DFT_B"
| 52> ! wB97X-D3 def2-TZVP TIGHTSCF CHELPG PMODEL
| 53>
| 54> %scf
| 55> MaxIter 1000
| 56> end
| 57>
| 58> * xyz 0 1
| 59>   C                    : 4.546624             -10.081734           -0.355543
| 60>   O                    : 3.316980             -9.471916            -0.450149
| 61>   H                    : 3.133284             -8.853097            0.272998
| 62>   H                    : 5.079215             -10.102797           -1.305874
| 63>   H                    : 5.187251             -9.604669            0.363695
| 64>   H                    : 4.466684             -11.200598           -0.094542
| 65>   C                      1.237218             -10.571253           -4.731252
| 66>   O                      2.090663             -11.620678           -4.301068
| 67>   H                      1.684505             -12.049990           -3.539937
| 68>   H                      1.738121             -9.896252            -5.432714
| 69>   H                      0.298399             -10.936982           -5.241484
| 70>   H                      0.890046             -9.963813            -3.901905
| 71> *
| 72>
| 73>                          ****END OF INPUT****
 Total Charge           Charge          ....    0
 Multiplicity           Mult            ....    1
 Number of Electrons    NEL             ....   36
Dispersion correction           -0.000818455
FINAL SINGLE POINT ENERGY      -231.468560205378
Dispersion correction           -0.000254254
FINAL SINGLE POINT ENERGY      -115.732100270407

CARTESIAN COORDINATES (ANGSTROEM)
---------------------------------
  C      4.546624  -10.081734   -0.355543
  O      3.316980   -9.471916   -0.450149
  H      3.133284   -8.853097    0.272998
  H      5.079215  -10.102797   -1.305874
  H      5.187251   -9.604669    0.363695
  H      4.466684  -11.200598   -0.094542
  C      1.237218  -10.571253   -4.731252
  O      2.090663  -11.620678   -4.301068
  H      1.684505  -12.049990   -3.539937
  H      1.738121   -9.896252   -5.432714
  H      0.298399  -10.936982   -5.241484
  H      0.890046   -9.963813   -3.901905

 Multiplicity           Mult            ....    1
 Number of Electrons    NEL             ....   18
 Basis Dimension        Dim             ....  172

ORBITAL ENERGIES
----------------

  NO   OCC          E(Eh)            E(eV)
   0   2.0000     -19.232665      -523.3474
   1   2.0000     -10.316937      -280.7381
   2   2.0000      -1.134664       -30.8758
   3   2.0000      -0.794738       -21.6259
   4   2.0000      -0.611768       -16.6471
   5   2.0000      -0.533792       -14.5252
   6   2.0000      -0.529382       -14.4052
   7   2.0000      -0.435415       -11.8482
   8   2.0000      -0.373436       -10.1617
   9   0.0000       0.085506         2.3267
  10   0.0000       0.116688         3.1752
  11   0.0000       0.149665         4.0726
  12   0.0000       0.165408         4.5010
  13   0.0000       0.197628         5.3777

MULLIKEN ATOMIC CHARGES
-----------------------
   0 C :   -0.000804
   1 O :    0.000122
   2 H :    0.000004
   3 H :   -0.000114
   4 H :   -0.000041
   5 H :    0.000097
   6 C :   -0.168327
   7 O :   -0.473851
   8 H :    0.316759
   9 H :    0.123100
  10 H :    0.096359
  11 H :    0.106696
Sum of atomic charges:    0.0000000

LOEWDIN ATOMIC CHARGES
----------------------
   0 C :   -0.000373
   1 O :   -0.000045
   2 H :   -0.000003
   3 H :   -0.000119
   4 H :   -0.000021
   5 H :   -0.000012
   6 C :   -0.387880
   7 O :   -0.081883
   8 H :    0.171444
   9 H :    0.108050
  10 H :    0.098580
  11 H :    0.092264

  Mayer bond orders larger than 0.1
B(  6-C ,  7-O ) :   1.0001 B(  6-C ,  9-H ) :   0.9728 B(  6-C , 10-H ) :   0.9722
B(  6-C , 11-H ) :   0.9781 B(  7-O ,  8-H ) :   0.8972

Dispersion correction           -0.000254987
FINAL SINGLE POINT ENERGY      -115.735750965011

DIPOLE MOMENT
-------------
                                X             Y             Z
Electronic contribution:      1.28124      -1.33536       0.46556
Nuclear contribution   :     -1.86973       1.49795      -0.13981
                        -----------------------------------------
Total Dipole Moment    :     -0.58848       0.16259       0.32575
                        -----------------------------------------
Magnitude (a.u.)       :      0.69200
Magnitude (Debye)      :      1.75892

Rotational constants in cm-1:     4.312742     0.817094     0.787912
Rotational constants in MHz : 129292.737916 24495.859909 23620.998965

                             ****ORCA TERMINATED NORMALLY****
TOTAL RUN TIME: 0 days 0 hours 1 minutes 3 seconds 138 msec
