                         Program Version 4.1.2  - RELEASE  -
|  1> #Run DFT-D3 single point of the dimer
|  2> ! wB97X-D3 def2-TZVP TIGHTSCF CHELPG PMODEL PAL8
|  3>
|  4> %base "12-4_DFT_AB"
|  5>
|  6> %scf
|  7> MaxIter 1000
|  8> end
|  9>
| 10> * xyz 0 1
| 11>   C                      -3.318311            -0.619609            -4.975786
| 12>   O                      -2.848868            -0.188945            -3.711665
| 13>   H                      -2.709265            0.711760             -3.772373
| 14>   H                      -2.662649            -0.195860            -5.703031
| 15>   H                      -3.228268            -1.702189            -5.124246
| 16>   H                      -4.392851            -0.308560            -5.145854
| 17>   C                      -2.536524            -5.092368            -7.937010
| 18>   O                      -2.490493            -3.661079            -7.850409
| 19>   H                      -1.765617            -3.529473            -7.212944
| 20>   H                      -3.324037            -5.370341            -8.616925
| 21>   H                      -1.589571            -5.589738            -8.198997
| 22>   H                      -2.937698            -5.591596            -7.043664
| 23> *
| 24>
| 25> #Run DFT-D3 single point of the molecule with dimer basis set
| 26> $new_job
| 27> %base "12-4_DFT_A"
| 28> ! wB97X-D3 def2-TZVP TIGHTSCF CHELPG PMODEL
| 29>
| 30> %scf
| 31> MaxIter 1000
| 32> end
| 33>
| 34> * xyz 0 1
| 35>   C                      -3.318311            -0.619609            -4.975786
| 36>   O                      -2.848868            -0.188945            -3.711665
| 37>   H                      -2.709265            0.711760             -3.772373
| 38>   H                      -2.662649            -0.195860            -5.703031
| 39>   H                      -3.228268            -1.702189            -5.124246
| 40>   H                      -4.392851            -0.308560            -5.145854
| 41>   C                    : -2.536524            -5.092368            -7.937010
| 42>   O                    : -2.490493            -3.661079            -7.850409
| 43>   H                    : -1.765617            -3.529473            -7.212944
| 44>   H                    : -3.324037            -5.370341            -8.616925
| 45>   H                    : -1.589571            -5.589738            -8.198997
| 46>   H                    : -2.937698            -5.591596            -7.043664
| 47> *
| 48>
| 49> #Run DFT-D3 single point of the particle with dimer basis set
| 50> $new_job
| 51> %base "12-4_DFT_B"
| 52> ! wB97X-D3 def2-TZVP TIGHTSCF CHELPG PMODEL
| 53>
| 54> %scf
| 55> MaxIter 1000
| 56> end
| 57>
| 58> * xyz 0 1
| 59>   C                    : -3.318311            -0.619609            -4.975786
| 60>   O                    : -2.848868            -0.188945            -3.711665
| 61>   H                    : -2.709265            0.711760             -3.772373
| 62>   H                    : -2.662649            -0.195860            -5.703031
| 63>   H                    : -3.228268            -1.702189            -5.124246
| 64>   H                    : -4.392851            -0.308560            -5.145854
| 65>   C                      -2.536524            -5.092368            -7.937010
| 66>   O                      -2.490493            -3.661079            -7.850409
| 67>   H                      -1.765617            -3.529473            -7.212944
| 68>   H                      -3.324037            -5.370341            -8.616925
| 69>   H                      -1.589571            -5.589738            -8.198997
| 70>   H                      -2.937698            -5.591596            -7.043664
| 71> *
| 72>
| 73>                          ****END OF INPUT****
 Total Charge           Charge          ....    0
 Multiplicity           Mult            ....    1
 Number of Electrons    NEL             ....   36
Dispersion correction           -0.000947197
FINAL SINGLE POINT ENERGY      -231.464840394087
Dispersion correction           -0.000229502
FINAL SINGLE POINT ENERGY      -115.731517586351

CARTESIAN COORDINATES (ANGSTROEM)
---------------------------------
  C     -3.318311   -0.619609   -4.975786
  O     -2.848868   -0.188945   -3.711665
  H     -2.709265    0.711760   -3.772373
  H     -2.662649   -0.195860   -5.703031
  H     -3.228268   -1.702189   -5.124246
  H     -4.392851   -0.308560   -5.145854
  C     -2.536524   -5.092368   -7.937010
  O     -2.490493   -3.661079   -7.850409
  H     -1.765617   -3.529473   -7.212944
  H     -3.324037   -5.370341   -8.616925
  H     -1.589571   -5.589738   -8.198997
  H     -2.937698   -5.591596   -7.043664

 Multiplicity           Mult            ....    1
 Number of Electrons    NEL             ....   18
 Basis Dimension        Dim             ....  172

ORBITAL ENERGIES
----------------

  NO   OCC          E(Eh)            E(eV)
   0   2.0000     -19.238225      -523.4987
   1   2.0000     -10.313814      -280.6532
   2   2.0000      -1.133613       -30.8472
   3   2.0000      -0.796461       -21.6728
   4   2.0000      -0.606661       -16.5081
   5   2.0000      -0.542000       -14.7486
   6   2.0000      -0.519066       -14.1245
   7   2.0000      -0.443510       -12.0685
   8   2.0000      -0.377206       -10.2643
   9   0.0000       0.087410         2.3785
  10   0.0000       0.117088         3.1861
  11   0.0000       0.148340         4.0365
  12   0.0000       0.177888         4.8406
  13   0.0000       0.198590         5.4039

MULLIKEN ATOMIC CHARGES
-----------------------
   0 C :    0.002544
   1 O :   -0.000051
   2 H :   -0.000004
   3 H :   -0.000284
   4 H :   -0.005805
   5 H :   -0.000146
   6 C :   -0.189598
   7 O :   -0.456473
   8 H :    0.315418
   9 H :    0.122907
  10 H :    0.109357
  11 H :    0.102135
Sum of atomic charges:   -0.0000000

LOEWDIN ATOMIC CHARGES
----------------------
   0 C :   -0.000912
   1 O :   -0.000013
   2 H :   -0.000003
   3 H :   -0.000080
   4 H :   -0.002114
   5 H :   -0.000009
   6 C :   -0.386596
   7 O :   -0.089053
   8 H :    0.179316
   9 H :    0.106410
  10 H :    0.097053
  11 H :    0.096002

  Mayer bond orders larger than 0.1
B(  6-C ,  7-O ) :   1.0108 B(  6-C ,  9-H ) :   0.9772 B(  6-C , 10-H ) :   0.9714
B(  6-C , 11-H ) :   0.9710 B(  7-O ,  8-H ) :   0.9007

Dispersion correction           -0.000252979
FINAL SINGLE POINT ENERGY      -115.732312410278

DIPOLE MOMENT
-------------
                                X             Y             Z
Electronic contribution:      0.05372       1.94458      -0.04710
Nuclear contribution   :      0.34783      -2.43499       0.39206
                        -----------------------------------------
Total Dipole Moment    :      0.40155      -0.49041       0.34496
                        -----------------------------------------
Magnitude (a.u.)       :      0.72162
Magnitude (Debye)      :      1.83422

Rotational constants in cm-1:     4.329193     0.810733     0.779151
Rotational constants in MHz : 129785.951773 24305.160858 23358.347088

                             ****ORCA TERMINATED NORMALLY****
TOTAL RUN TIME: 0 days 0 hours 1 minutes 14 seconds 616 msec
