                         Program Version 4.1.2  - RELEASE  -
|  1> #Run DFT-D3 single point of the dimer
|  2> ! wB97X-D3 def2-TZVP TIGHTSCF CHELPG PMODEL PAL8
|  3>
|  4> %base "4-169_DFT_AB"
|  5>
|  6> %scf
|  7> MaxIter 1000
|  8> end
|  9>
| 10> * xyz 0 1
| 11>   C                      -7.014572            -8.744374            -4.994089
| 12>   O                      -5.870360            -9.366876            -4.600891
| 13>   H                      -5.516173            -8.739271            -3.999200
| 14>   H                      -7.055733            -7.713367            -4.690389
| 15>   H                      -7.110317            -8.775294            -6.043839
| 16>   H                      -7.840402            -9.127024            -4.534467
| 17>   C                      -3.352063            -7.001400            -3.118190
| 18>   O                      -4.739738            -6.731664            -3.225385
| 19>   H                      -4.919691            -5.946547            -2.687428
| 20>   H                      -2.897693            -7.000678            -4.106565
| 21>   H                      -2.830009            -6.212768            -2.608885
| 22>   H                      -3.127655            -8.028192            -2.820164
| 23> *
| 24>
| 25> #Run DFT-D3 single point of the molecule with dimer basis set
| 26> $new_job
| 27> %base "4-169_DFT_A"
| 28> ! wB97X-D3 def2-TZVP TIGHTSCF CHELPG PMODEL
| 29>
| 30> %scf
| 31> MaxIter 1000
| 32> end
| 33>
| 34> * xyz 0 1
| 35>   C                      -7.014572            -8.744374            -4.994089
| 36>   O                      -5.870360            -9.366876            -4.600891
| 37>   H                      -5.516173            -8.739271            -3.999200
| 38>   H                      -7.055733            -7.713367            -4.690389
| 39>   H                      -7.110317            -8.775294            -6.043839
| 40>   H                      -7.840402            -9.127024            -4.534467
| 41>   C                    : -3.352063            -7.001400            -3.118190
| 42>   O                    : -4.739738            -6.731664            -3.225385
| 43>   H                    : -4.919691            -5.946547            -2.687428
| 44>   H                    : -2.897693            -7.000678            -4.106565
| 45>   H                    : -2.830009            -6.212768            -2.608885
| 46>   H                    : -3.127655            -8.028192            -2.820164
| 47> *
| 48>
| 49> #Run DFT-D3 single point of the particle with dimer basis set
| 50> $new_job
| 51> %base "4-169_DFT_B"
| 52> ! wB97X-D3 def2-TZVP TIGHTSCF CHELPG PMODEL
| 53>
| 54> %scf
| 55> MaxIter 1000
| 56> end
| 57>
| 58> * xyz 0 1
| 59>   C                    : -7.014572            -8.744374            -4.994089
| 60>   O                    : -5.870360            -9.366876            -4.600891
| 61>   H                    : -5.516173            -8.739271            -3.999200
| 62>   H                    : -7.055733            -7.713367            -4.690389
| 63>   H                    : -7.110317            -8.775294            -6.043839
| 64>   H                    : -7.840402            -9.127024            -4.534467
| 65>   C                      -3.352063            -7.001400            -3.118190
| 66>   O                      -4.739738            -6.731664            -3.225385
| 67>   H                      -4.919691            -5.946547            -2.687428
| 68>   H                      -2.897693            -7.000678            -4.106565
| 69>   H                      -2.830009            -6.212768            -2.608885
| 70>   H                      -3.127655            -8.028192            -2.820164
| 71> *
| 72>
| 73>                          ****END OF INPUT****
 Total Charge           Charge          ....    0
 Multiplicity           Mult            ....    1
 Number of Electrons    NEL             ....   36
Dispersion correction           -0.001772714
FINAL SINGLE POINT ENERGY      -231.463265064639
Dispersion correction           -0.000188475
FINAL SINGLE POINT ENERGY      -115.724931523723

CARTESIAN COORDINATES (ANGSTROEM)
---------------------------------
  C     -7.014572   -8.744374   -4.994089
  O     -5.870360   -9.366876   -4.600891
  H     -5.516173   -8.739271   -3.999200
  H     -7.055733   -7.713367   -4.690389
  H     -7.110317   -8.775294   -6.043839
  H     -7.840402   -9.127024   -4.534467
  C     -3.352063   -7.001400   -3.118190
  O     -4.739738   -6.731664   -3.225385
  H     -4.919691   -5.946547   -2.687428
  H     -2.897693   -7.000678   -4.106565
  H     -2.830009   -6.212768   -2.608885
  H     -3.127655   -8.028192   -2.820164

 Multiplicity           Mult            ....    1
 Number of Electrons    NEL             ....   18
 Basis Dimension        Dim             ....  172

ORBITAL ENERGIES
----------------

  NO   OCC          E(Eh)            E(eV)
   0   2.0000     -19.231929      -523.3274
   1   2.0000     -10.310282      -280.5570
   2   2.0000      -1.134392       -30.8684
   3   2.0000      -0.798518       -21.7288
   4   2.0000      -0.612952       -16.6793
   5   2.0000      -0.541610       -14.7380
   6   2.0000      -0.525855       -14.3092
   7   2.0000      -0.439077       -11.9479
   8   2.0000      -0.369284       -10.0487
   9   0.0000       0.100272         2.7285
  10   0.0000       0.123007         3.3472
  11   0.0000       0.148932         4.0526
  12   0.0000       0.187222         5.0946
  13   0.0000       0.201040         5.4706

MULLIKEN ATOMIC CHARGES
-----------------------
   0 C :    0.004509
   1 O :   -0.000563
   2 H :   -0.004196
   3 H :   -0.006257
   4 H :   -0.000150
   5 H :   -0.000403
   6 C :   -0.175130
   7 O :   -0.464461
   8 H :    0.314711
   9 H :    0.105756
  10 H :    0.113955
  11 H :    0.112227
Sum of atomic charges:   -0.0000000

LOEWDIN ATOMIC CHARGES
----------------------
   0 C :   -0.004695
   1 O :   -0.001256
   2 H :   -0.014935
   3 H :   -0.004166
   4 H :   -0.000033
   5 H :   -0.000042
   6 C :   -0.384224
   7 O :   -0.064377
   8 H :    0.175012
   9 H :    0.100122
  10 H :    0.096463
  11 H :    0.102130

  Mayer bond orders larger than 0.1
B(  6-C ,  7-O ) :   1.0077 B(  6-C ,  9-H ) :   0.9797 B(  6-C , 10-H ) :   0.9787
B(  6-C , 11-H ) :   0.9786 B(  7-O ,  8-H ) :   0.8990

Dispersion correction           -0.000249500
FINAL SINGLE POINT ENERGY      -115.731061667149

DIPOLE MOMENT
-------------
                                X             Y             Z
Electronic contribution:     -1.83153       0.25378      -0.03480
Nuclear contribution   :      2.28927       0.16657       0.40475
                        -----------------------------------------
Total Dipole Moment    :      0.45774       0.42035       0.36995
                        -----------------------------------------
Magnitude (a.u.)       :      0.72324
Magnitude (Debye)      :      1.83834

Rotational constants in cm-1:     4.396591     0.832067     0.790474
Rotational constants in MHz : 131806.496718 24944.732340 23697.803753

                             ****ORCA TERMINATED NORMALLY****
TOTAL RUN TIME: 0 days 0 hours 1 minutes 31 seconds 571 msec
