                         Program Version 4.1.2  - RELEASE  -
|  1> #Run DFT-D3 single point of the dimer
|  2> ! wB97X-D3 def2-TZVP TIGHTSCF CHELPG PMODEL PAL8
|  3>
|  4> %base "19-160_DFT_AB"
|  5>
|  6> %scf
|  7> MaxIter 1000
|  8> end
|  9>
| 10> * xyz 0 1
| 11>   C                      -9.910332            -1.444865            6.681377
| 12>   O                      -8.594593            -1.476581            6.114144
| 13>   H                      -8.607450            -1.391479            5.132857
| 14>   H                      -10.341876           -0.439712            6.581889
| 15>   H                      -10.615634           -2.049773            6.122155
| 16>   H                      -9.973743            -1.727062            7.796625
| 17>   C                      -8.079207            -0.059697            2.949538
| 18>   O                      -8.988258            -1.094513            3.218330
| 19>   H                      -8.783579            -1.953334            2.747775
| 20>   H                      -8.594162            0.865862             2.879644
| 21>   H                      -7.270703            -0.020806            3.750577
| 22>   H                      -7.479597            -0.297339            2.024800
| 23> *
| 24>
| 25> #Run DFT-D3 single point of the molecule with dimer basis set
| 26> $new_job
| 27> %base "19-160_DFT_A"
| 28> ! wB97X-D3 def2-TZVP TIGHTSCF CHELPG PMODEL
| 29>
| 30> %scf
| 31> MaxIter 1000
| 32> end
| 33>
| 34> * xyz 0 1
| 35>   C                      -9.910332            -1.444865            6.681377
| 36>   O                      -8.594593            -1.476581            6.114144
| 37>   H                      -8.607450            -1.391479            5.132857
| 38>   H                      -10.341876           -0.439712            6.581889
| 39>   H                      -10.615634           -2.049773            6.122155
| 40>   H                      -9.973743            -1.727062            7.796625
| 41>   C                    : -8.079207            -0.059697            2.949538
| 42>   O                    : -8.988258            -1.094513            3.218330
| 43>   H                    : -8.783579            -1.953334            2.747775
| 44>   H                    : -8.594162            0.865862             2.879644
| 45>   H                    : -7.270703            -0.020806            3.750577
| 46>   H                    : -7.479597            -0.297339            2.024800
| 47> *
| 48>
| 49> #Run DFT-D3 single point of the particle with dimer basis set
| 50> $new_job
| 51> %base "19-160_DFT_B"
| 52> ! wB97X-D3 def2-TZVP TIGHTSCF CHELPG PMODEL
| 53>
| 54> %scf
| 55> MaxIter 1000
| 56> end
| 57>
| 58> * xyz 0 1
| 59>   C                    : -9.910332            -1.444865            6.681377
| 60>   O                    : -8.594593            -1.476581            6.114144
| 61>   H                    : -8.607450            -1.391479            5.132857
| 62>   H                    : -10.341876           -0.439712            6.581889
| 63>   H                    : -10.615634           -2.049773            6.122155
| 64>   H                    : -9.973743            -1.727062            7.796625
| 65>   C                      -8.079207            -0.059697            2.949538
| 66>   O                      -8.988258            -1.094513            3.218330
| 67>   H                      -8.783579            -1.953334            2.747775
| 68>   H                      -8.594162            0.865862             2.879644
| 69>   H                      -7.270703            -0.020806            3.750577
| 70>   H                      -7.479597            -0.297339            2.024800
| 71> *
| 72>
| 73>                          ****END OF INPUT****
 Total Charge           Charge          ....    0
 Multiplicity           Mult            ....    1
 Number of Electrons    NEL             ....   36
Dispersion correction           -0.001835113
FINAL SINGLE POINT ENERGY      -231.469755430545
Dispersion correction           -0.000269591
FINAL SINGLE POINT ENERGY      -115.730402881507

CARTESIAN COORDINATES (ANGSTROEM)
---------------------------------
  C     -9.910332   -1.444865    6.681377
  O     -8.594593   -1.476581    6.114144
  H     -8.607450   -1.391479    5.132857
  H    -10.341876   -0.439712    6.581889
  H    -10.615634   -2.049773    6.122155
  H     -9.973743   -1.727062    7.796625
  C     -8.079207   -0.059697    2.949538
  O     -8.988258   -1.094513    3.218330
  H     -8.783579   -1.953334    2.747775
  H     -8.594162    0.865862    2.879644
  H     -7.270703   -0.020806    3.750577
  H     -7.479597   -0.297339    2.024800

 Multiplicity           Mult            ....    1
 Number of Electrons    NEL             ....   18
 Basis Dimension        Dim             ....  172

ORBITAL ENERGIES
----------------

  NO   OCC          E(Eh)            E(eV)
   0   2.0000     -19.231572      -523.3177
   1   2.0000     -10.317899      -280.7643
   2   2.0000      -1.129162       -30.7261
   3   2.0000      -0.790825       -21.5194
   4   2.0000      -0.609326       -16.5806
   5   2.0000      -0.543408       -14.7869
   6   2.0000      -0.525112       -14.2890
   7   2.0000      -0.425606       -11.5813
   8   2.0000      -0.368170       -10.0184
   9   0.0000       0.095078         2.5872
  10   0.0000       0.119704         3.2573
  11   0.0000       0.149370         4.0646
  12   0.0000       0.180970         4.9244
  13   0.0000       0.199253         5.4219

MULLIKEN ATOMIC CHARGES
-----------------------
   0 C :    0.005413
   1 O :   -0.000712
   2 H :   -0.010402
   3 H :   -0.001303
   4 H :   -0.002473
   5 H :   -0.000088
   6 C :   -0.150066
   7 O :   -0.485066
   8 H :    0.324611
   9 H :    0.123835
  10 H :    0.095833
  11 H :    0.100417
Sum of atomic charges:   -0.0000000

LOEWDIN ATOMIC CHARGES
----------------------
   0 C :   -0.003557
   1 O :   -0.004334
   2 H :   -0.038395
   3 H :   -0.000263
   4 H :   -0.000821
   5 H :   -0.000048
   6 C :   -0.390950
   7 O :   -0.056819
   8 H :    0.193094
   9 H :    0.097665
  10 H :    0.102396
  11 H :    0.102032

  Mayer bond orders larger than 0.1
B(  6-C ,  7-O ) :   0.9923 B(  6-C ,  9-H ) :   0.9711 B(  6-C , 10-H ) :   0.9772
B(  6-C , 11-H ) :   0.9812 B(  7-O ,  8-H ) :   0.8849

Dispersion correction           -0.000257637
FINAL SINGLE POINT ENERGY      -115.730692977205

DIPOLE MOMENT
-------------
                                X             Y             Z
Electronic contribution:     -1.37102      -1.12143       0.38417
Nuclear contribution   :      1.85137       0.97495      -0.82572
                        -----------------------------------------
Total Dipole Moment    :      0.48034      -0.14648      -0.44155
                        -----------------------------------------
Magnitude (a.u.)       :      0.66869
Magnitude (Debye)      :      1.69969

Rotational constants in cm-1:     4.175943     0.832922     0.800202
Rotational constants in MHz : 125191.607161 24970.359473 23989.449839

                             ****ORCA TERMINATED NORMALLY****
TOTAL RUN TIME: 0 days 0 hours 0 minutes 51 seconds 751 msec
