                         Program Version 4.1.2  - RELEASE  -
|  1> #Run DFT-D3 single point of the dimer
|  2> ! wB97X-D3 def2-TZVP TIGHTSCF  CHELPG PAL8
|  3>
|  4> %base "108_charges"
|  5>
|  6> %scf
|  7> MaxIter 1000
|  8> end
|  9> %output
| 10>   Print[ P_Mayer ] 1
| 11>   Print[ P_NatPop ] 1
| 12>   Print[ P_Hirshfeld ] 1
| 13>   Print[ P_Mulliken ] 1
| 14>   Print [ P_Loewdin ] 1
| 15> end
| 16>
| 17> * xyz 0 1
| 18>   C                      -2.352653            -2.541401            -8.541568
| 19>   O                      -2.793446            -1.430247            -9.292957
| 20>   H                      -2.178059            -1.239169            -9.959847
| 21>   H                      -1.325004            -2.412734            -8.186187
| 22>   H                      -2.963913            -2.754378            -7.685574
| 23>   H                      -2.248842            -3.350771            -9.246120
| 24> *
| 25>
| 26>                          ****END OF INPUT****

CARTESIAN COORDINATES (ANGSTROEM)
---------------------------------
  C     -2.352653   -2.541401   -8.541568
  O     -2.793446   -1.430247   -9.292957
  H     -2.178059   -1.239169   -9.959847
  H     -1.325004   -2.412734   -8.186187
  H     -2.963913   -2.754378   -7.685574
  H     -2.248842   -3.350771   -9.246120

 Total Charge           Charge          ....    0
 Multiplicity           Mult            ....    1
 Number of Electrons    NEL             ....   18
 Basis Dimension        Dim             ....   86

ORBITAL ENERGIES
----------------

  NO   OCC          E(Eh)            E(eV)
   0   2.0000     -19.223336      -523.0936
   1   2.0000     -10.309934      -280.5476
   2   2.0000      -1.141185       -31.0532
   3   2.0000      -0.801369       -21.8064
   4   2.0000      -0.616996       -16.7893
   5   2.0000      -0.547218       -14.8906
   6   2.0000      -0.528119       -14.3708
   7   2.0000      -0.435770       -11.8579
   8   2.0000      -0.368390       -10.0244
   9   0.0000       0.117933         3.2091
  10   0.0000       0.158995         4.3265
  11   0.0000       0.202230         5.5030
  12   0.0000       0.208530         5.6744
  13   0.0000       0.228545         6.2190

MULLIKEN ATOMIC CHARGES
-----------------------
   0 C :   -0.152221
   1 O :   -0.476231
   2 H :    0.308188
   3 H :    0.094227
   4 H :    0.126088
   5 H :    0.099949
Sum of atomic charges:    0.0000000

LOEWDIN ATOMIC CHARGES
----------------------
   0 C :   -0.375028
   1 O :   -0.063651
   2 H :    0.146625
   3 H :    0.093690
   4 H :    0.105302
   5 H :    0.093062

  Mayer bond orders larger than 0.1
B(  0-C ,  1-O ) :   0.9866 B(  0-C ,  3-H ) :   0.9777 B(  0-C ,  4-H ) :   0.9701
B(  0-C ,  5-H ) :   0.9878 B(  1-O ,  2-H ) :   0.9065

Dispersion correction           -0.000219495
FINAL SINGLE POINT ENERGY      -115.731641988677

DIPOLE MOMENT
-------------
                                X             Y             Z
Electronic contribution:     -0.80312       1.40881      -0.77773
Nuclear contribution   :      1.39218      -1.73895       0.65529
                        -----------------------------------------
Total Dipole Moment    :      0.58906      -0.33014      -0.12244
                        -----------------------------------------
Magnitude (a.u.)       :      0.68628
Magnitude (Debye)      :      1.74437

Rotational constants in cm-1:     4.443951     0.841333     0.804442
Rotational constants in MHz : 133226.304417 25222.522974 24116.559368

                             ****ORCA TERMINATED NORMALLY****
TOTAL RUN TIME: 0 days 0 hours 0 minutes 42 seconds 676 msec
