                         Program Version 4.1.2  - RELEASE  -
|  1> #Run DFT-D3 single point of the dimer
|  2> ! wB97X-D3 def2-TZVP TIGHTSCF CHELPG PMODEL PAL8
|  3>
|  4> %base "5-62_DFT_AB"
|  5>
|  6> %scf
|  7> MaxIter 1000
|  8> end
|  9>
| 10> * xyz 0 1
| 11>   C                      0.496941             1.392049             5.026981
| 12>   O                      -0.494197            0.337308             5.082726
| 13>   H                      -0.689183            0.394878             4.127763
| 14>   H                      1.282604             1.248695             5.776744
| 15>   H                      1.032644             1.416140             4.066925
| 16>   H                      -0.013328            2.353019             5.225455
| 17>   C                      2.972572             -0.901774            1.372664
| 18>   O                      3.715877             -0.053173            0.503747
| 19>   H                      4.643713             -0.350892            0.272494
| 20>   H                      2.042537             -0.463022            1.683760
| 21>   H                      2.718830             -1.816522            0.938662
| 22>   H                      3.540776             -1.169969            2.319029
| 23> *
| 24>
| 25> #Run DFT-D3 single point of the molecule with dimer basis set
| 26> $new_job
| 27> %base "5-62_DFT_A"
| 28> ! wB97X-D3 def2-TZVP TIGHTSCF CHELPG PMODEL
| 29>
| 30> %scf
| 31> MaxIter 1000
| 32> end
| 33>
| 34> * xyz 0 1
| 35>   C                      0.496941             1.392049             5.026981
| 36>   O                      -0.494197            0.337308             5.082726
| 37>   H                      -0.689183            0.394878             4.127763
| 38>   H                      1.282604             1.248695             5.776744
| 39>   H                      1.032644             1.416140             4.066925
| 40>   H                      -0.013328            2.353019             5.225455
| 41>   C                    : 2.972572             -0.901774            1.372664
| 42>   O                    : 3.715877             -0.053173            0.503747
| 43>   H                    : 4.643713             -0.350892            0.272494
| 44>   H                    : 2.042537             -0.463022            1.683760
| 45>   H                    : 2.718830             -1.816522            0.938662
| 46>   H                    : 3.540776             -1.169969            2.319029
| 47> *
| 48>
| 49> #Run DFT-D3 single point of the particle with dimer basis set
| 50> $new_job
| 51> %base "5-62_DFT_B"
| 52> ! wB97X-D3 def2-TZVP TIGHTSCF CHELPG PMODEL
| 53>
| 54> %scf
| 55> MaxIter 1000
| 56> end
| 57>
| 58> * xyz 0 1
| 59>   C                    : 0.496941             1.392049             5.026981
| 60>   O                    : -0.494197            0.337308             5.082726
| 61>   H                    : -0.689183            0.394878             4.127763
| 62>   H                    : 1.282604             1.248695             5.776744
| 63>   H                    : 1.032644             1.416140             4.066925
| 64>   H                    : -0.013328            2.353019             5.225455
| 65>   C                      2.972572             -0.901774            1.372664
| 66>   O                      3.715877             -0.053173            0.503747
| 67>   H                      4.643713             -0.350892            0.272494
| 68>   H                      2.042537             -0.463022            1.683760
| 69>   H                      2.718830             -1.816522            0.938662
| 70>   H                      3.540776             -1.169969            2.319029
| 71> *
| 72>
| 73>                          ****END OF INPUT****
 Total Charge           Charge          ....    0
 Multiplicity           Mult            ....    1
 Number of Electrons    NEL             ....   36
Dispersion correction           -0.000911729
FINAL SINGLE POINT ENERGY      -231.458656100974
Dispersion correction           -0.000226452
FINAL SINGLE POINT ENERGY      -115.728798897873

CARTESIAN COORDINATES (ANGSTROEM)
---------------------------------
  C      0.496941    1.392049    5.026981
  O     -0.494197    0.337308    5.082726
  H     -0.689183    0.394878    4.127763
  H      1.282604    1.248695    5.776744
  H      1.032644    1.416140    4.066925
  H     -0.013328    2.353019    5.225455
  C      2.972572   -0.901774    1.372664
  O      3.715877   -0.053173    0.503747
  H      4.643713   -0.350892    0.272494
  H      2.042537   -0.463022    1.683760
  H      2.718830   -1.816522    0.938662
  H      3.540776   -1.169969    2.319029

 Multiplicity           Mult            ....    1
 Number of Electrons    NEL             ....   18
 Basis Dimension        Dim             ....  172

ORBITAL ENERGIES
----------------

  NO   OCC          E(Eh)            E(eV)
   0   2.0000     -19.231240      -523.3087
   1   2.0000     -10.310965      -280.5756
   2   2.0000      -1.119934       -30.4750
   3   2.0000      -0.799938       -21.7674
   4   2.0000      -0.607775       -16.5384
   5   2.0000      -0.535202       -14.5636
   6   2.0000      -0.529999       -14.4220
   7   2.0000      -0.423282       -11.5181
   8   2.0000      -0.371595       -10.1116
   9   0.0000       0.086744         2.3604
  10   0.0000       0.112205         3.0532
  11   0.0000       0.147150         4.0042
  12   0.0000       0.167817         4.5665
  13   0.0000       0.187449         5.1007

MULLIKEN ATOMIC CHARGES
-----------------------
   0 C :   -0.000293
   1 O :    0.000020
   2 H :   -0.000049
   3 H :    0.000011
   4 H :    0.000232
   5 H :    0.000002
   6 C :   -0.144220
   7 O :   -0.498744
   8 H :    0.324472
   9 H :    0.121243
  10 H :    0.104550
  11 H :    0.092776
Sum of atomic charges:    0.0000000

LOEWDIN ATOMIC CHARGES
----------------------
   0 C :   -0.000213
   1 O :   -0.000005
   2 H :   -0.000078
   3 H :   -0.000006
   4 H :   -0.000384
   5 H :   -0.000001
   6 C :   -0.374252
   7 O :   -0.105400
   8 H :    0.191022
   9 H :    0.105026
  10 H :    0.082441
  11 H :    0.101851

  Mayer bond orders larger than 0.1
B(  6-C ,  7-O ) :   0.9996 B(  6-C ,  9-H ) :   0.9713 B(  6-C , 10-H ) :   0.9759
B(  6-C , 11-H ) :   0.9798 B(  7-O ,  8-H ) :   0.8825

Dispersion correction           -0.000276552
FINAL SINGLE POINT ENERGY      -115.729257901881

DIPOLE MOMENT
-------------
                                X             Y             Z
Electronic contribution:      0.78802       1.18418      -1.19392
Nuclear contribution   :     -0.52208      -1.74225       1.39491
                        -----------------------------------------
Total Dipole Moment    :      0.26594      -0.55807       0.20099
                        -----------------------------------------
Magnitude (a.u.)       :      0.65005
Magnitude (Debye)      :      1.65230

Rotational constants in cm-1:     4.498391     0.803901     0.774598
Rotational constants in MHz : 134858.363932 24100.339232 23221.876660

                             ****ORCA TERMINATED NORMALLY****
TOTAL RUN TIME: 0 days 0 hours 1 minutes 3 seconds 84 msec
