                         Program Version 4.1.2  - RELEASE  -
|  1> #Run DFT-D3 single point of the dimer
|  2> ! wB97X-D3 def2-TZVP TIGHTSCF CHELPG PMODEL PAL8
|  3>
|  4> %base "2-85_DFT_AB"
|  5>
|  6> %scf
|  7> MaxIter 1000
|  8> end
|  9>
| 10> * xyz 0 1
| 11>   C                      3.109948             -9.032840            -10.902030
| 12>   O                      3.398500             -8.189306            -9.812126
| 13>   H                      2.667794             -8.164677            -9.192085
| 14>   H                      2.527054             -9.914284            -10.648775
| 15>   H                      2.584791             -8.426579            -11.676514
| 16>   H                      4.025159             -9.343973            -11.343113
| 17>   C                      3.118028             -2.909420            -8.815179
| 18>   O                      2.921235             -4.211740            -8.271025
| 19>   H                      2.762177             -4.229352            -7.346329
| 20>   H                      4.051495             -2.430580            -8.568322
| 21>   H                      3.014902             -2.938263            -9.858857
| 22>   H                      2.322442             -2.251747            -8.442012
| 23> *
| 24>
| 25> #Run DFT-D3 single point of the molecule with dimer basis set
| 26> $new_job
| 27> %base "2-85_DFT_A"
| 28> ! wB97X-D3 def2-TZVP TIGHTSCF CHELPG PMODEL
| 29>
| 30> %scf
| 31> MaxIter 1000
| 32> end
| 33>
| 34> * xyz 0 1
| 35>   C                      3.109948             -9.032840            -10.902030
| 36>   O                      3.398500             -8.189306            -9.812126
| 37>   H                      2.667794             -8.164677            -9.192085
| 38>   H                      2.527054             -9.914284            -10.648775
| 39>   H                      2.584791             -8.426579            -11.676514
| 40>   H                      4.025159             -9.343973            -11.343113
| 41>   C                    : 3.118028             -2.909420            -8.815179
| 42>   O                    : 2.921235             -4.211740            -8.271025
| 43>   H                    : 2.762177             -4.229352            -7.346329
| 44>   H                    : 4.051495             -2.430580            -8.568322
| 45>   H                    : 3.014902             -2.938263            -9.858857
| 46>   H                    : 2.322442             -2.251747            -8.442012
| 47> *
| 48>
| 49> #Run DFT-D3 single point of the particle with dimer basis set
| 50> $new_job
| 51> %base "2-85_DFT_B"
| 52> ! wB97X-D3 def2-TZVP TIGHTSCF CHELPG PMODEL
| 53>
| 54> %scf
| 55> MaxIter 1000
| 56> end
| 57>
| 58> * xyz 0 1
| 59>   C                    : 3.109948             -9.032840            -10.902030
| 60>   O                    : 3.398500             -8.189306            -9.812126
| 61>   H                    : 2.667794             -8.164677            -9.192085
| 62>   H                    : 2.527054             -9.914284            -10.648775
| 63>   H                    : 2.584791             -8.426579            -11.676514
| 64>   H                    : 4.025159             -9.343973            -11.343113
| 65>   C                      3.118028             -2.909420            -8.815179
| 66>   O                      2.921235             -4.211740            -8.271025
| 67>   H                      2.762177             -4.229352            -7.346329
| 68>   H                      4.051495             -2.430580            -8.568322
| 69>   H                      3.014902             -2.938263            -9.858857
| 70>   H                      2.322442             -2.251747            -8.442012
| 71> *
| 72>
| 73>                          ****END OF INPUT****
 Total Charge           Charge          ....    0
 Multiplicity           Mult            ....    1
 Number of Electrons    NEL             ....   36
Dispersion correction           -0.000698631
FINAL SINGLE POINT ENERGY      -231.468309002637
Dispersion correction           -0.000244312
FINAL SINGLE POINT ENERGY      -115.735482306724

CARTESIAN COORDINATES (ANGSTROEM)
---------------------------------
  C      3.109948   -9.032840  -10.902030
  O      3.398500   -8.189306   -9.812126
  H      2.667794   -8.164677   -9.192085
  H      2.527054   -9.914284  -10.648775
  H      2.584791   -8.426579  -11.676514
  H      4.025159   -9.343973  -11.343113
  C      3.118028   -2.909420   -8.815179
  O      2.921235   -4.211740   -8.271025
  H      2.762177   -4.229352   -7.346329
  H      4.051495   -2.430580   -8.568322
  H      3.014902   -2.938263   -9.858857
  H      2.322442   -2.251747   -8.442012

 Multiplicity           Mult            ....    1
 Number of Electrons    NEL             ....   18
 Basis Dimension        Dim             ....  172

ORBITAL ENERGIES
----------------

  NO   OCC          E(Eh)            E(eV)
   0   2.0000     -19.224769      -523.1326
   1   2.0000     -10.308983      -280.5217
   2   2.0000      -1.131889       -30.8003
   3   2.0000      -0.806151       -21.9365
   4   2.0000      -0.613839       -16.7034
   5   2.0000      -0.539178       -14.6718
   6   2.0000      -0.534146       -14.5349
   7   2.0000      -0.428184       -11.6515
   8   2.0000      -0.373837       -10.1726
   9   0.0000       0.094724         2.5776
  10   0.0000       0.118787         3.2324
  11   0.0000       0.153539         4.1780
  12   0.0000       0.178051         4.8450
  13   0.0000       0.203335         5.5330

MULLIKEN ATOMIC CHARGES
-----------------------
   0 C :   -0.000007
   1 O :   -0.000148
   2 H :   -0.000514
   3 H :    0.000000
   4 H :   -0.000010
   5 H :    0.000006
   6 C :   -0.153712
   7 O :   -0.490118
   8 H :    0.313585
   9 H :    0.102631
  10 H :    0.126439
  11 H :    0.101847
Sum of atomic charges:   -0.0000000

LOEWDIN ATOMIC CHARGES
----------------------
   0 C :   -0.000013
   1 O :   -0.000161
   2 H :   -0.000377
   3 H :   -0.000000
   4 H :   -0.000001
   5 H :   -0.000000
   6 C :   -0.363200
   7 O :   -0.076414
   8 H :    0.151124
   9 H :    0.091469
  10 H :    0.099392
  11 H :    0.098182

  Mayer bond orders larger than 0.1
B(  6-C ,  7-O ) :   0.9924 B(  6-C ,  9-H ) :   0.9698 B(  6-C , 10-H ) :   0.9742
B(  6-C , 11-H ) :   0.9858 B(  7-O ,  8-H ) :   0.9005

Dispersion correction           -0.000253923
FINAL SINGLE POINT ENERGY      -115.733436233980

DIPOLE MOMENT
-------------
                                X             Y             Z
Electronic contribution:     -0.13922      -1.70984       0.53052
Nuclear contribution   :      0.10410       2.25663      -0.15889
                        -----------------------------------------
Total Dipole Moment    :     -0.03512       0.54679       0.37163
                        -----------------------------------------
Magnitude (a.u.)       :      0.66206
Magnitude (Debye)      :      1.68281

Rotational constants in cm-1:     4.577057     0.813815     0.790015
Rotational constants in MHz : 137216.721882 24397.572143 23684.045289

                             ****ORCA TERMINATED NORMALLY****
TOTAL RUN TIME: 0 days 0 hours 6 minutes 5 seconds 285 msec
