                         Program Version 4.1.2  - RELEASE  -
|  1> #Run DFT-D3 single point of the dimer
|  2> ! wB97X-D3 def2-TZVP TIGHTSCF CHELPG PMODEL PAL8
|  3>
|  4> %base "11-27_DFT_AB"
|  5>
|  6> %scf
|  7> MaxIter 1000
|  8> end
|  9>
| 10> * xyz 0 1
| 11>   C                      -8.448119            2.442185             -5.118233
| 12>   O                      -7.831945            1.753476             -4.059607
| 13>   H                      -8.251878            0.862124             -3.916511
| 14>   H                      -9.518605            2.289483             -5.032777
| 15>   H                      -8.197066            3.464053             -5.152794
| 16>   H                      -8.176135            2.038059             -6.035437
| 17>   C                      -10.601700           -1.340153            -6.515866
| 18>   O                      -9.853865            -2.173804            -5.554064
| 19>   H                      -10.156461           -2.016928            -4.673614
| 20>   H                      -10.217419           -0.365535            -6.397053
| 21>   H                      -10.391301           -1.669020            -7.565933
| 22>   H                      -11.635919           -1.467223            -6.354808
| 23> *
| 24>
| 25> #Run DFT-D3 single point of the molecule with dimer basis set
| 26> $new_job
| 27> %base "11-27_DFT_A"
| 28> ! wB97X-D3 def2-TZVP TIGHTSCF CHELPG PMODEL
| 29>
| 30> %scf
| 31> MaxIter 1000
| 32> end
| 33>
| 34> * xyz 0 1
| 35>   C                      -8.448119            2.442185             -5.118233
| 36>   O                      -7.831945            1.753476             -4.059607
| 37>   H                      -8.251878            0.862124             -3.916511
| 38>   H                      -9.518605            2.289483             -5.032777
| 39>   H                      -8.197066            3.464053             -5.152794
| 40>   H                      -8.176135            2.038059             -6.035437
| 41>   C                    : -10.601700           -1.340153            -6.515866
| 42>   O                    : -9.853865            -2.173804            -5.554064
| 43>   H                    : -10.156461           -2.016928            -4.673614
| 44>   H                    : -10.217419           -0.365535            -6.397053
| 45>   H                    : -10.391301           -1.669020            -7.565933
| 46>   H                    : -11.635919           -1.467223            -6.354808
| 47> *
| 48>
| 49> #Run DFT-D3 single point of the particle with dimer basis set
| 50> $new_job
| 51> %base "11-27_DFT_B"
| 52> ! wB97X-D3 def2-TZVP TIGHTSCF CHELPG PMODEL
| 53>
| 54> %scf
| 55> MaxIter 1000
| 56> end
| 57>
| 58> * xyz 0 1
| 59>   C                    : -8.448119            2.442185             -5.118233
| 60>   O                    : -7.831945            1.753476             -4.059607
| 61>   H                    : -8.251878            0.862124             -3.916511
| 62>   H                    : -9.518605            2.289483             -5.032777
| 63>   H                    : -8.197066            3.464053             -5.152794
| 64>   H                    : -8.176135            2.038059             -6.035437
| 65>   C                      -10.601700           -1.340153            -6.515866
| 66>   O                      -9.853865            -2.173804            -5.554064
| 67>   H                      -10.156461           -2.016928            -4.673614
| 68>   H                      -10.217419           -0.365535            -6.397053
| 69>   H                      -10.391301           -1.669020            -7.565933
| 70>   H                      -11.635919           -1.467223            -6.354808
| 71> *
| 72>
| 73>                          ****END OF INPUT****
 Total Charge           Charge          ....    0
 Multiplicity           Mult            ....    1
 Number of Electrons    NEL             ....   36
Dispersion correction           -0.001255642
FINAL SINGLE POINT ENERGY      -231.460819929812
Dispersion correction           -0.000222118
FINAL SINGLE POINT ENERGY      -115.730024794697

CARTESIAN COORDINATES (ANGSTROEM)
---------------------------------
  C     -8.448119    2.442185   -5.118233
  O     -7.831945    1.753476   -4.059607
  H     -8.251878    0.862124   -3.916511
  H     -9.518605    2.289483   -5.032777
  H     -8.197066    3.464053   -5.152794
  H     -8.176135    2.038059   -6.035437
  C    -10.601700   -1.340153   -6.515866
  O     -9.853865   -2.173804   -5.554064
  H    -10.156461   -2.016928   -4.673614
  H    -10.217419   -0.365535   -6.397053
  H    -10.391301   -1.669020   -7.565933
  H    -11.635919   -1.467223   -6.354808

 Multiplicity           Mult            ....    1
 Number of Electrons    NEL             ....   18
 Basis Dimension        Dim             ....  172

ORBITAL ENERGIES
----------------

  NO   OCC          E(Eh)            E(eV)
   0   2.0000     -19.221773      -523.0510
   1   2.0000     -10.313273      -280.6384
   2   2.0000      -1.117289       -30.4030
   3   2.0000      -0.802976       -21.8501
   4   2.0000      -0.596672       -16.2363
   5   2.0000      -0.554305       -15.0834
   6   2.0000      -0.519391       -14.1334
   7   2.0000      -0.427646       -11.6368
   8   2.0000      -0.375008       -10.2045
   9   0.0000       0.081483         2.2173
  10   0.0000       0.123072         3.3490
  11   0.0000       0.150193         4.0870
  12   0.0000       0.174180         4.7397
  13   0.0000       0.184988         5.0338

MULLIKEN ATOMIC CHARGES
-----------------------
   0 C :    0.001294
   1 O :    0.000138
   2 H :   -0.001580
   3 H :   -0.000697
   4 H :    0.000089
   5 H :   -0.000210
   6 C :   -0.165678
   7 O :   -0.498590
   8 H :    0.310170
   9 H :    0.117254
  10 H :    0.118321
  11 H :    0.119490
Sum of atomic charges:    0.0000000

LOEWDIN ATOMIC CHARGES
----------------------
   0 C :   -0.000937
   1 O :   -0.000030
   2 H :   -0.000951
   3 H :   -0.000579
   4 H :   -0.000002
   5 H :   -0.000314
   6 C :   -0.325034
   7 O :   -0.119382
   8 H :    0.149853
   9 H :    0.091293
  10 H :    0.115849
  11 H :    0.090234

  Mayer bond orders larger than 0.1
B(  6-C ,  7-O ) :   0.9798 B(  6-C ,  9-H ) :   0.9789 B(  6-C , 10-H ) :   0.9723
B(  6-C , 11-H ) :   0.9804 B(  7-O ,  8-H ) :   0.9035

Dispersion correction           -0.000245449
FINAL SINGLE POINT ENERGY      -115.730235831334

DIPOLE MOMENT
-------------
                                X             Y             Z
Electronic contribution:      0.84908      -0.95403       1.04445
Nuclear contribution   :     -1.39107       1.42632      -0.91636
                        -----------------------------------------
Total Dipole Moment    :     -0.54199       0.47229       0.12808
                        -----------------------------------------
Magnitude (a.u.)       :      0.73021
Magnitude (Debye)      :      1.85606

Rotational constants in cm-1:     4.383027     0.780076     0.758963
Rotational constants in MHz : 131399.855905 23386.099631 22753.148282

                             ****ORCA TERMINATED NORMALLY****
TOTAL RUN TIME: 0 days 0 hours 1 minutes 13 seconds 338 msec
