                         Program Version 4.1.2  - RELEASE  -
|  1> #Run DFT-D3 single point of the dimer
|  2> ! wB97X-D3 def2-TZVP TIGHTSCF CHELPG PMODEL PAL8
|  3>
|  4> %base "17-100_DFT_AB"
|  5>
|  6> %scf
|  7> MaxIter 1000
|  8> end
|  9>
| 10> * xyz 0 1
| 11>   C                      -3.510231            -1.086601            -3.537600
| 12>   O                      -4.343705            -1.752611            -4.437602
| 13>   H                      -5.224240            -1.403687            -4.477860
| 14>   H                      -4.049414            -0.835512            -2.615135
| 15>   H                      -2.571821            -1.682410            -3.278911
| 16>   H                      -3.190376            -0.068218            -3.952758
| 17>   C                      -6.565968            -3.021015            -0.286961
| 18>   O                      -7.870317            -2.524230            -0.457635
| 19>   H                      -8.464050            -3.263168            -0.428365
| 20>   H                      -6.375784            -3.424887            0.682798
| 21>   H                      -6.358553            -3.812381            -1.019314
| 22>   H                      -5.921900            -2.184792            -0.507281
| 23> *
| 24>
| 25> #Run DFT-D3 single point of the molecule with dimer basis set
| 26> $new_job
| 27> %base "17-100_DFT_A"
| 28> ! wB97X-D3 def2-TZVP TIGHTSCF CHELPG PMODEL
| 29>
| 30> %scf
| 31> MaxIter 1000
| 32> end
| 33>
| 34> * xyz 0 1
| 35>   C                      -3.510231            -1.086601            -3.537600
| 36>   O                      -4.343705            -1.752611            -4.437602
| 37>   H                      -5.224240            -1.403687            -4.477860
| 38>   H                      -4.049414            -0.835512            -2.615135
| 39>   H                      -2.571821            -1.682410            -3.278911
| 40>   H                      -3.190376            -0.068218            -3.952758
| 41>   C                    : -6.565968            -3.021015            -0.286961
| 42>   O                    : -7.870317            -2.524230            -0.457635
| 43>   H                    : -8.464050            -3.263168            -0.428365
| 44>   H                    : -6.375784            -3.424887            0.682798
| 45>   H                    : -6.358553            -3.812381            -1.019314
| 46>   H                    : -5.921900            -2.184792            -0.507281
| 47> *
| 48>
| 49> #Run DFT-D3 single point of the particle with dimer basis set
| 50> $new_job
| 51> %base "17-100_DFT_B"
| 52> ! wB97X-D3 def2-TZVP TIGHTSCF CHELPG PMODEL
| 53>
| 54> %scf
| 55> MaxIter 1000
| 56> end
| 57>
| 58> * xyz 0 1
| 59>   C                    : -3.510231            -1.086601            -3.537600
| 60>   O                    : -4.343705            -1.752611            -4.437602
| 61>   H                    : -5.224240            -1.403687            -4.477860
| 62>   H                    : -4.049414            -0.835512            -2.615135
| 63>   H                    : -2.571821            -1.682410            -3.278911
| 64>   H                    : -3.190376            -0.068218            -3.952758
| 65>   C                      -6.565968            -3.021015            -0.286961
| 66>   O                      -7.870317            -2.524230            -0.457635
| 67>   H                      -8.464050            -3.263168            -0.428365
| 68>   H                      -6.375784            -3.424887            0.682798
| 69>   H                      -6.358553            -3.812381            -1.019314
| 70>   H                      -5.921900            -2.184792            -0.507281
| 71> *
| 72>
| 73>                          ****END OF INPUT****
 Total Charge           Charge          ....    0
 Multiplicity           Mult            ....    1
 Number of Electrons    NEL             ....   36
Dispersion correction           -0.000941236
FINAL SINGLE POINT ENERGY      -231.469313709206
Dispersion correction           -0.000257141
FINAL SINGLE POINT ENERGY      -115.732154838671

CARTESIAN COORDINATES (ANGSTROEM)
---------------------------------
  C     -3.510231   -1.086601   -3.537600
  O     -4.343705   -1.752611   -4.437602
  H     -5.224240   -1.403687   -4.477860
  H     -4.049414   -0.835512   -2.615135
  H     -2.571821   -1.682410   -3.278911
  H     -3.190376   -0.068218   -3.952758
  C     -6.565968   -3.021015   -0.286961
  O     -7.870317   -2.524230   -0.457635
  H     -8.464050   -3.263168   -0.428365
  H     -6.375784   -3.424887    0.682798
  H     -6.358553   -3.812381   -1.019314
  H     -5.921900   -2.184792   -0.507281

 Multiplicity           Mult            ....    1
 Number of Electrons    NEL             ....   18
 Basis Dimension        Dim             ....  172

ORBITAL ENERGIES
----------------

  NO   OCC          E(Eh)            E(eV)
   0   2.0000     -19.227398      -523.2041
   1   2.0000     -10.307480      -280.4808
   2   2.0000      -1.140448       -31.0332
   3   2.0000      -0.798008       -21.7149
   4   2.0000      -0.615945       -16.7607
   5   2.0000      -0.544405       -14.8140
   6   2.0000      -0.525847       -14.3090
   7   2.0000      -0.436887       -11.8883
   8   2.0000      -0.373579       -10.1656
   9   0.0000       0.086116         2.3433
  10   0.0000       0.118315         3.2195
  11   0.0000       0.156927         4.2702
  12   0.0000       0.164169         4.4673
  13   0.0000       0.182564         4.9678

MULLIKEN ATOMIC CHARGES
-----------------------
   0 C :   -0.000122
   1 O :    0.000022
   2 H :    0.000013
   3 H :   -0.000162
   4 H :    0.000006
   5 H :   -0.000003
   6 C :   -0.156654
   7 O :   -0.471832
   8 H :    0.309508
   9 H :    0.100425
  10 H :    0.096995
  11 H :    0.121803
Sum of atomic charges:    0.0000000

LOEWDIN ATOMIC CHARGES
----------------------
   0 C :   -0.000271
   1 O :   -0.000009
   2 H :   -0.000012
   3 H :   -0.000573
   4 H :   -0.000005
   5 H :   -0.000001
   6 C :   -0.384080
   7 O :   -0.066025
   8 H :    0.159821
   9 H :    0.087589
  10 H :    0.095360
  11 H :    0.108208

  Mayer bond orders larger than 0.1
B(  6-C ,  7-O ) :   1.0015 B(  6-C ,  9-H ) :   0.9706 B(  6-C , 10-H ) :   0.9817
B(  6-C , 11-H ) :   0.9761 B(  7-O ,  8-H ) :   0.9047

Dispersion correction           -0.000224002
FINAL SINGLE POINT ENERGY      -115.736205474759

DIPOLE MOMENT
-------------
                                X             Y             Z
Electronic contribution:     -1.59492       0.75793      -0.13438
Nuclear contribution   :      1.73243      -1.41994       0.21664
                        -----------------------------------------
Total Dipole Moment    :      0.13751      -0.66201       0.08226
                        -----------------------------------------
Magnitude (a.u.)       :      0.68113
Magnitude (Debye)      :      1.73129

Rotational constants in cm-1:     4.345829     0.848471     0.815834
Rotational constants in MHz : 130284.663838 25436.535620 24458.101378

                             ****ORCA TERMINATED NORMALLY****
TOTAL RUN TIME: 0 days 0 hours 1 minutes 1 seconds 646 msec
