                         Program Version 4.1.2  - RELEASE  -
|  1> #Run DFT-D3 single point of the dimer
|  2> ! wB97X-D3 def2-TZVP TIGHTSCF CHELPG PMODEL PAL8
|  3>
|  4> %base "8-32_DFT_AB"
|  5>
|  6> %scf
|  7> MaxIter 1000
|  8> end
|  9>
| 10> * xyz 0 1
| 11>   C                      1.242681             -1.490844            -1.242399
| 12>   O                      2.017750             -2.223303            -0.392427
| 13>   H                      2.854270             -2.385998            -0.915143
| 14>   H                      0.235646             -1.382705            -0.890573
| 15>   H                      1.563453             -0.460555            -1.422829
| 16>   H                      1.015853             -1.921014            -2.215583
| 17>   C                      4.675669             -2.819953            -2.455573
| 18>   O                      4.967275             -2.728420            -1.051334
| 19>   H                      5.809846             -3.177151            -0.928841
| 20>   H                      3.781209             -2.190699            -2.703473
| 21>   H                      5.494284             -2.357504            -3.049618
| 22>   H                      4.571858             -3.756048            -2.910539
| 23> *
| 24>
| 25> #Run DFT-D3 single point of the molecule with dimer basis set
| 26> $new_job
| 27> %base "8-32_DFT_A"
| 28> ! wB97X-D3 def2-TZVP TIGHTSCF CHELPG PMODEL
| 29>
| 30> %scf
| 31> MaxIter 1000
| 32> end
| 33>
| 34> * xyz 0 1
| 35>   C                      1.242681             -1.490844            -1.242399
| 36>   O                      2.017750             -2.223303            -0.392427
| 37>   H                      2.854270             -2.385998            -0.915143
| 38>   H                      0.235646             -1.382705            -0.890573
| 39>   H                      1.563453             -0.460555            -1.422829
| 40>   H                      1.015853             -1.921014            -2.215583
| 41>   C                    : 4.675669             -2.819953            -2.455573
| 42>   O                    : 4.967275             -2.728420            -1.051334
| 43>   H                    : 5.809846             -3.177151            -0.928841
| 44>   H                    : 3.781209             -2.190699            -2.703473
| 45>   H                    : 5.494284             -2.357504            -3.049618
| 46>   H                    : 4.571858             -3.756048            -2.910539
| 47> *
| 48>
| 49> #Run DFT-D3 single point of the particle with dimer basis set
| 50> $new_job
| 51> %base "8-32_DFT_B"
| 52> ! wB97X-D3 def2-TZVP TIGHTSCF CHELPG PMODEL
| 53>
| 54> %scf
| 55> MaxIter 1000
| 56> end
| 57>
| 58> * xyz 0 1
| 59>   C                    : 1.242681             -1.490844            -1.242399
| 60>   O                    : 2.017750             -2.223303            -0.392427
| 61>   H                    : 2.854270             -2.385998            -0.915143
| 62>   H                    : 0.235646             -1.382705            -0.890573
| 63>   H                    : 1.563453             -0.460555            -1.422829
| 64>   H                    : 1.015853             -1.921014            -2.215583
| 65>   C                      4.675669             -2.819953            -2.455573
| 66>   O                      4.967275             -2.728420            -1.051334
| 67>   H                      5.809846             -3.177151            -0.928841
| 68>   H                      3.781209             -2.190699            -2.703473
| 69>   H                      5.494284             -2.357504            -3.049618
| 70>   H                      4.571858             -3.756048            -2.910539
| 71> *
| 72>
| 73>                          ****END OF INPUT****
 Total Charge           Charge          ....    0
 Multiplicity           Mult            ....    1
 Number of Electrons    NEL             ....   36
Dispersion correction           -0.001895652
FINAL SINGLE POINT ENERGY      -231.464169224262
Dispersion correction           -0.000235095
FINAL SINGLE POINT ENERGY      -115.730013652538

CARTESIAN COORDINATES (ANGSTROEM)
---------------------------------
  C      1.242681   -1.490844   -1.242399
  O      2.017750   -2.223303   -0.392427
  H      2.854270   -2.385998   -0.915143
  H      0.235646   -1.382705   -0.890573
  H      1.563453   -0.460555   -1.422829
  H      1.015853   -1.921014   -2.215583
  C      4.675669   -2.819953   -2.455573
  O      4.967275   -2.728420   -1.051334
  H      5.809846   -3.177151   -0.928841
  H      3.781209   -2.190699   -2.703473
  H      5.494284   -2.357504   -3.049618
  H      4.571858   -3.756048   -2.910539

 Multiplicity           Mult            ....    1
 Number of Electrons    NEL             ....   18
 Basis Dimension        Dim             ....  172

ORBITAL ENERGIES
----------------

  NO   OCC          E(Eh)            E(eV)
   0   2.0000     -19.235397      -523.4218
   1   2.0000     -10.314687      -280.6769
   2   2.0000      -1.132041       -30.8044
   3   2.0000      -0.798529       -21.7291
   4   2.0000      -0.613258       -16.6876
   5   2.0000      -0.534478       -14.5439
   6   2.0000      -0.521124       -14.1805
   7   2.0000      -0.440928       -11.9982
   8   2.0000      -0.376048       -10.2328
   9   0.0000       0.093563         2.5460
  10   0.0000       0.120174         3.2701
  11   0.0000       0.150887         4.1058
  12   0.0000       0.189156         5.1472
  13   0.0000       0.196979         5.3601

MULLIKEN ATOMIC CHARGES
-----------------------
   0 C :   -0.000477
   1 O :   -0.001154
   2 H :    0.004002
   3 H :    0.000045
   4 H :   -0.000341
   5 H :   -0.000483
   6 C :   -0.191748
   7 O :   -0.461512
   8 H :    0.309331
   9 H :    0.121738
  10 H :    0.104324
  11 H :    0.116275
Sum of atomic charges:   -0.0000000

LOEWDIN ATOMIC CHARGES
----------------------
   0 C :   -0.004637
   1 O :   -0.002960
   2 H :   -0.023418
   3 H :   -0.000025
   4 H :   -0.000258
   5 H :   -0.000905
   6 C :   -0.368624
   7 O :   -0.073936
   8 H :    0.169313
   9 H :    0.122313
  10 H :    0.099554
  11 H :    0.083584

  Mayer bond orders larger than 0.1
B(  6-C ,  7-O ) :   1.0004 B(  6-C ,  9-H ) :   0.9816 B(  6-C , 10-H ) :   0.9789
B(  6-C , 11-H ) :   0.9647 B(  7-O ,  8-H ) :   0.9006

Dispersion correction           -0.000257793
FINAL SINGLE POINT ENERGY      -115.731266692150

DIPOLE MOMENT
-------------
                                X             Y             Z
Electronic contribution:      0.18349       0.01632       1.93700
Nuclear contribution   :      0.23813      -0.33607      -2.43246
                        -----------------------------------------
Total Dipole Moment    :      0.42163      -0.31975      -0.49545
                        -----------------------------------------
Magnitude (a.u.)       :      0.72490
Magnitude (Debye)      :      1.84255

Rotational constants in cm-1:     4.400221     0.805836     0.770291
Rotational constants in MHz : 131915.299437 24158.369126 23092.751241

                             ****ORCA TERMINATED NORMALLY****
TOTAL RUN TIME: 0 days 0 hours 0 minutes 47 seconds 705 msec
