                         Program Version 4.1.2  - RELEASE  -
|  1> #Run DFT-D3 single point of the dimer
|  2> ! wB97X-D3 def2-TZVP TIGHTSCF CHELPG PMODEL PAL8
|  3>
|  4> %base "5-88_DFT_AB"
|  5>
|  6> %scf
|  7> MaxIter 1000
|  8> end
|  9>
| 10> * xyz 0 1
| 11>   C                      3.523408             -5.923778            2.070169
| 12>   O                      3.834441             -4.576411            1.836301
| 13>   H                      4.763971             -4.562166            1.509061
| 14>   H                      2.729272             -5.991882            2.856450
| 15>   H                      3.330591             -6.484672            1.252621
| 16>   H                      4.446997             -6.457884            2.510366
| 17>   C                      6.493591             -7.114689            5.665414
| 18>   O                      7.749158             -7.200561            5.023627
| 19>   H                      8.417499             -7.256658            5.702624
| 20>   H                      6.411173             -7.828988            6.442911
| 21>   H                      6.322881             -6.124128            6.161306
| 22>   H                      5.695959             -7.314876            5.013645
| 23> *
| 24>
| 25> #Run DFT-D3 single point of the molecule with dimer basis set
| 26> $new_job
| 27> %base "5-88_DFT_A"
| 28> ! wB97X-D3 def2-TZVP TIGHTSCF CHELPG PMODEL
| 29>
| 30> %scf
| 31> MaxIter 1000
| 32> end
| 33>
| 34> * xyz 0 1
| 35>   C                      3.523408             -5.923778            2.070169
| 36>   O                      3.834441             -4.576411            1.836301
| 37>   H                      4.763971             -4.562166            1.509061
| 38>   H                      2.729272             -5.991882            2.856450
| 39>   H                      3.330591             -6.484672            1.252621
| 40>   H                      4.446997             -6.457884            2.510366
| 41>   C                    : 6.493591             -7.114689            5.665414
| 42>   O                    : 7.749158             -7.200561            5.023627
| 43>   H                    : 8.417499             -7.256658            5.702624
| 44>   H                    : 6.411173             -7.828988            6.442911
| 45>   H                    : 6.322881             -6.124128            6.161306
| 46>   H                    : 5.695959             -7.314876            5.013645
| 47> *
| 48>
| 49> #Run DFT-D3 single point of the particle with dimer basis set
| 50> $new_job
| 51> %base "5-88_DFT_B"
| 52> ! wB97X-D3 def2-TZVP TIGHTSCF CHELPG PMODEL
| 53>
| 54> %scf
| 55> MaxIter 1000
| 56> end
| 57>
| 58> * xyz 0 1
| 59>   C                    : 3.523408             -5.923778            2.070169
| 60>   O                    : 3.834441             -4.576411            1.836301
| 61>   H                    : 4.763971             -4.562166            1.509061
| 62>   H                    : 2.729272             -5.991882            2.856450
| 63>   H                    : 3.330591             -6.484672            1.252621
| 64>   H                    : 4.446997             -6.457884            2.510366
| 65>   C                      6.493591             -7.114689            5.665414
| 66>   O                      7.749158             -7.200561            5.023627
| 67>   H                      8.417499             -7.256658            5.702624
| 68>   H                      6.411173             -7.828988            6.442911
| 69>   H                      6.322881             -6.124128            6.161306
| 70>   H                      5.695959             -7.314876            5.013645
| 71> *
| 72>
| 73>                          ****END OF INPUT****
 Total Charge           Charge          ....    0
 Multiplicity           Mult            ....    1
 Number of Electrons    NEL             ....   36
Dispersion correction           -0.000926382
FINAL SINGLE POINT ENERGY      -231.461138652038
Dispersion correction           -0.000230739
FINAL SINGLE POINT ENERGY      -115.726354315918

CARTESIAN COORDINATES (ANGSTROEM)
---------------------------------
  C      3.523408   -5.923778    2.070169
  O      3.834441   -4.576411    1.836301
  H      4.763971   -4.562166    1.509061
  H      2.729272   -5.991882    2.856450
  H      3.330591   -6.484672    1.252621
  H      4.446997   -6.457884    2.510366
  C      6.493591   -7.114689    5.665414
  O      7.749158   -7.200561    5.023627
  H      8.417499   -7.256658    5.702624
  H      6.411173   -7.828988    6.442911
  H      6.322881   -6.124128    6.161306
  H      5.695959   -7.314876    5.013645

 Multiplicity           Mult            ....    1
 Number of Electrons    NEL             ....   18
 Basis Dimension        Dim             ....  172

ORBITAL ENERGIES
----------------

  NO   OCC          E(Eh)            E(eV)
   0   2.0000     -19.230045      -523.2761
   1   2.0000     -10.307321      -280.4765
   2   2.0000      -1.137838       -30.9621
   3   2.0000      -0.801592       -21.8124
   4   2.0000      -0.614349       -16.7173
   5   2.0000      -0.539227       -14.6731
   6   2.0000      -0.533446       -14.5158
   7   2.0000      -0.437328       -11.9003
   8   2.0000      -0.373078       -10.1520
   9   0.0000       0.089079         2.4240
  10   0.0000       0.117935         3.2092
  11   0.0000       0.152300         4.1443
  12   0.0000       0.170328         4.6349
  13   0.0000       0.188199         5.1211

MULLIKEN ATOMIC CHARGES
-----------------------
   0 C :   -0.000864
   1 O :    0.000005
   2 H :   -0.000002
   3 H :    0.000018
   4 H :    0.000051
   5 H :    0.001354
   6 C :   -0.164975
   7 O :   -0.473502
   8 H :    0.314257
   9 H :    0.104946
  10 H :    0.094231
  11 H :    0.124481
Sum of atomic charges:    0.0000000

LOEWDIN ATOMIC CHARGES
----------------------
   0 C :   -0.000349
   1 O :   -0.000004
   2 H :   -0.000002
   3 H :   -0.000028
   4 H :   -0.000001
   5 H :   -0.000720
   6 C :   -0.379368
   7 O :   -0.071509
   8 H :    0.166293
   9 H :    0.087834
  10 H :    0.099580
  11 H :    0.098274

  Mayer bond orders larger than 0.1
B(  6-C ,  7-O ) :   1.0051 B(  6-C ,  9-H ) :   0.9837 B(  6-C , 10-H ) :   0.9760
B(  6-C , 11-H ) :   0.9725 B(  7-O ,  8-H ) :   0.9014

Dispersion correction           -0.000235109
FINAL SINGLE POINT ENERGY      -115.733867171312

DIPOLE MOMENT
-------------
                                X             Y             Z
Electronic contribution:      1.54289      -0.14335      -1.04930
Nuclear contribution   :     -1.62767       0.10626       1.73783
                        -----------------------------------------
Total Dipole Moment    :     -0.08478      -0.03710       0.68853
                        -----------------------------------------
Magnitude (a.u.)       :      0.69472
Magnitude (Debye)      :      1.76584

Rotational constants in cm-1:     4.474906     0.830584     0.803300
Rotational constants in MHz : 134154.310583 24900.282434 24082.338874

                             ****ORCA TERMINATED NORMALLY****
TOTAL RUN TIME: 0 days 0 hours 1 minutes 2 seconds 386 msec
