                         Program Version 4.1.2  - RELEASE  -
|  1> #Run DFT-D3 single point of the dimer
|  2> ! wB97X-D3 def2-TZVP TIGHTSCF CHELPG PMODEL PAL8
|  3>
|  4> %base "21-149_DFT_AB"
|  5>
|  6> %scf
|  7> MaxIter 1000
|  8> end
|  9>
| 10> * xyz 0 1
| 11>   C                      -4.797981            5.631424             -2.623240
| 12>   O                      -5.237484            5.394242             -4.010165
| 13>   H                      -5.022059            6.181057             -4.583868
| 14>   H                      -3.706506            5.559531             -2.455493
| 15>   H                      -5.119891            6.579351             -2.201764
| 16>   H                      -5.126361            4.857216             -1.992728
| 17>   C                      -4.889492            5.088213             -7.807620
| 18>   O                      -5.284673            6.187908             -6.949680
| 19>   H                      -4.981875            6.985051             -7.422708
| 20>   H                      -5.218055            5.066944             -8.850541
| 21>   H                      -3.803294            5.005692             -7.858541
| 22>   H                      -5.186663            4.075918             -7.382525
| 23> *
| 24>
| 25> #Run DFT-D3 single point of the molecule with dimer basis set
| 26> $new_job
| 27> %base "21-149_DFT_A"
| 28> ! wB97X-D3 def2-TZVP TIGHTSCF CHELPG PMODEL
| 29>
| 30> %scf
| 31> MaxIter 1000
| 32> end
| 33>
| 34> * xyz 0 1
| 35>   C                      -4.797981            5.631424             -2.623240
| 36>   O                      -5.237484            5.394242             -4.010165
| 37>   H                      -5.022059            6.181057             -4.583868
| 38>   H                      -3.706506            5.559531             -2.455493
| 39>   H                      -5.119891            6.579351             -2.201764
| 40>   H                      -5.126361            4.857216             -1.992728
| 41>   C                    : -4.889492            5.088213             -7.807620
| 42>   O                    : -5.284673            6.187908             -6.949680
| 43>   H                    : -4.981875            6.985051             -7.422708
| 44>   H                    : -5.218055            5.066944             -8.850541
| 45>   H                    : -3.803294            5.005692             -7.858541
| 46>   H                    : -5.186663            4.075918             -7.382525
| 47> *
| 48>
| 49> #Run DFT-D3 single point of the particle with dimer basis set
| 50> $new_job
| 51> %base "21-149_DFT_B"
| 52> ! wB97X-D3 def2-TZVP TIGHTSCF CHELPG PMODEL
| 53>
| 54> %scf
| 55> MaxIter 1000
| 56> end
| 57>
| 58> * xyz 0 1
| 59>   C                    : -4.797981            5.631424             -2.623240
| 60>   O                    : -5.237484            5.394242             -4.010165
| 61>   H                    : -5.022059            6.181057             -4.583868
| 62>   H                    : -3.706506            5.559531             -2.455493
| 63>   H                    : -5.119891            6.579351             -2.201764
| 64>   H                    : -5.126361            4.857216             -1.992728
| 65>   C                      -4.889492            5.088213             -7.807620
| 66>   O                      -5.284673            6.187908             -6.949680
| 67>   H                      -4.981875            6.985051             -7.422708
| 68>   H                      -5.218055            5.066944             -8.850541
| 69>   H                      -3.803294            5.005692             -7.858541
| 70>   H                      -5.186663            4.075918             -7.382525
| 71> *
| 72>
| 73>                          ****END OF INPUT****
 Total Charge           Charge          ....    0
 Multiplicity           Mult            ....    1
 Number of Electrons    NEL             ....   36
Dispersion correction           -0.001429646
FINAL SINGLE POINT ENERGY      -231.463994471053
Dispersion correction           -0.000297283
FINAL SINGLE POINT ENERGY      -115.729475803787

CARTESIAN COORDINATES (ANGSTROEM)
---------------------------------
  C     -4.797981    5.631424   -2.623240
  O     -5.237484    5.394242   -4.010165
  H     -5.022059    6.181057   -4.583868
  H     -3.706506    5.559531   -2.455493
  H     -5.119891    6.579351   -2.201764
  H     -5.126361    4.857216   -1.992728
  C     -4.889492    5.088213   -7.807620
  O     -5.284673    6.187908   -6.949680
  H     -4.981875    6.985051   -7.422708
  H     -5.218055    5.066944   -8.850541
  H     -3.803294    5.005692   -7.858541
  H     -5.186663    4.075918   -7.382525

 Multiplicity           Mult            ....    1
 Number of Electrons    NEL             ....   18
 Basis Dimension        Dim             ....  172

ORBITAL ENERGIES
----------------

  NO   OCC          E(Eh)            E(eV)
   0   2.0000     -19.239223      -523.5259
   1   2.0000     -10.320657      -280.8394
   2   2.0000      -1.127979       -30.6939
   3   2.0000      -0.794733       -21.6258
   4   2.0000      -0.606028       -16.4909
   5   2.0000      -0.533826       -14.5261
   6   2.0000      -0.519081       -14.1249
   7   2.0000      -0.439454       -11.9582
   8   2.0000      -0.378176       -10.2907
   9   0.0000       0.097020         2.6401
  10   0.0000       0.115971         3.1557
  11   0.0000       0.144385         3.9289
  12   0.0000       0.184979         5.0335
  13   0.0000       0.200947         5.4680

MULLIKEN ATOMIC CHARGES
-----------------------
   0 C :    0.000806
   1 O :    0.000541
   2 H :   -0.009775
   3 H :   -0.000029
   4 H :   -0.000013
   5 H :   -0.000005
   6 C :   -0.188077
   7 O :   -0.459571
   8 H :    0.314876
   9 H :    0.111322
  10 H :    0.110890
  11 H :    0.119035
Sum of atomic charges:   -0.0000000

LOEWDIN ATOMIC CHARGES
----------------------
   0 C :   -0.000131
   1 O :   -0.003675
   2 H :   -0.018063
   3 H :   -0.000003
   4 H :   -0.000001
   5 H :   -0.000004
   6 C :   -0.379010
   7 O :   -0.084251
   8 H :    0.178163
   9 H :    0.095467
  10 H :    0.094115
  11 H :    0.117393

  Mayer bond orders larger than 0.1
B(  6-C ,  7-O ) :   0.9963 B(  6-C ,  9-H ) :   0.9623 B(  6-C , 10-H ) :   0.9776
B(  6-C , 11-H ) :   0.9755 B(  7-O ,  8-H ) :   0.8973

Dispersion correction           -0.000276928
FINAL SINGLE POINT ENERGY      -115.731033989368

DIPOLE MOMENT
-------------
                                X             Y             Z
Electronic contribution:     -0.68189       1.45659       1.18181
Nuclear contribution   :      1.03925      -1.41249      -1.83388
                        -----------------------------------------
Total Dipole Moment    :      0.35736       0.04410      -0.65207
                        -----------------------------------------
Magnitude (a.u.)       :      0.74489
Magnitude (Debye)      :      1.89335

Rotational constants in cm-1:     4.337783     0.786360     0.754803
Rotational constants in MHz : 130043.466662 23574.475377 22628.410189

                             ****ORCA TERMINATED NORMALLY****
TOTAL RUN TIME: 0 days 0 hours 1 minutes 4 seconds 683 msec
