                         Program Version 4.1.2  - RELEASE  -
|  1> #Run DFT-D3 single point of the dimer
|  2> ! wB97X-D3 def2-TZVP TIGHTSCF CHELPG PMODEL PAL8
|  3>
|  4> %base "18-10_DFT_AB"
|  5>
|  6> %scf
|  7> MaxIter 1000
|  8> end
|  9>
| 10> * xyz 0 1
| 11>   C                      0.886549             0.822237             10.406532
| 12>   O                      -0.359793            0.971877             9.692236
| 13>   H                      -0.550626            0.048280             9.716713
| 14>   H                      1.518922             1.710716             10.116938
| 15>   H                      0.664286             0.723875             11.450918
| 16>   H                      1.397309             -0.146132            10.165140
| 17>   C                      5.262110             -1.486866            11.091563
| 18>   O                      4.170420             -2.310943            11.136274
| 19>   H                      4.160591             -2.782107            10.353779
| 20>   H                      6.141356             -2.132353            11.097841
| 21>   H                      5.284140             -0.796770            10.273896
| 22>   H                      5.331895             -0.844729            11.976190
| 23> *
| 24>
| 25> #Run DFT-D3 single point of the molecule with dimer basis set
| 26> $new_job
| 27> %base "18-10_DFT_A"
| 28> ! wB97X-D3 def2-TZVP TIGHTSCF CHELPG PMODEL
| 29>
| 30> %scf
| 31> MaxIter 1000
| 32> end
| 33>
| 34> * xyz 0 1
| 35>   C                      0.886549             0.822237             10.406532
| 36>   O                      -0.359793            0.971877             9.692236
| 37>   H                      -0.550626            0.048280             9.716713
| 38>   H                      1.518922             1.710716             10.116938
| 39>   H                      0.664286             0.723875             11.450918
| 40>   H                      1.397309             -0.146132            10.165140
| 41>   C                    : 5.262110             -1.486866            11.091563
| 42>   O                    : 4.170420             -2.310943            11.136274
| 43>   H                    : 4.160591             -2.782107            10.353779
| 44>   H                    : 6.141356             -2.132353            11.097841
| 45>   H                    : 5.284140             -0.796770            10.273896
| 46>   H                    : 5.331895             -0.844729            11.976190
| 47> *
| 48>
| 49> #Run DFT-D3 single point of the particle with dimer basis set
| 50> $new_job
| 51> %base "18-10_DFT_B"
| 52> ! wB97X-D3 def2-TZVP TIGHTSCF CHELPG PMODEL
| 53>
| 54> %scf
| 55> MaxIter 1000
| 56> end
| 57>
| 58> * xyz 0 1
| 59>   C                    : 0.886549             0.822237             10.406532
| 60>   O                    : -0.359793            0.971877             9.692236
| 61>   H                    : -0.550626            0.048280             9.716713
| 62>   H                    : 1.518922             1.710716             10.116938
| 63>   H                    : 0.664286             0.723875             11.450918
| 64>   H                    : 1.397309             -0.146132            10.165140
| 65>   C                      5.262110             -1.486866            11.091563
| 66>   O                      4.170420             -2.310943            11.136274
| 67>   H                      4.160591             -2.782107            10.353779
| 68>   H                      6.141356             -2.132353            11.097841
| 69>   H                      5.284140             -0.796770            10.273896
| 70>   H                      5.331895             -0.844729            11.976190
| 71> *
| 72>
| 73>                          ****END OF INPUT****
 Total Charge           Charge          ....    0
 Multiplicity           Mult            ....    1
 Number of Electrons    NEL             ....   36
Dispersion correction           -0.000816763
FINAL SINGLE POINT ENERGY      -231.458340475325
Dispersion correction           -0.000209488
FINAL SINGLE POINT ENERGY      -115.725854058981

CARTESIAN COORDINATES (ANGSTROEM)
---------------------------------
  C      0.886549    0.822237   10.406532
  O     -0.359793    0.971877    9.692236
  H     -0.550626    0.048280    9.716713
  H      1.518922    1.710716   10.116938
  H      0.664286    0.723875   11.450918
  H      1.397309   -0.146132   10.165140
  C      5.262110   -1.486866   11.091563
  O      4.170420   -2.310943   11.136274
  H      4.160591   -2.782107   10.353779
  H      6.141356   -2.132353   11.097841
  H      5.284140   -0.796770   10.273896
  H      5.331895   -0.844729   11.976190

 Multiplicity           Mult            ....    1
 Number of Electrons    NEL             ....   18
 Basis Dimension        Dim             ....  172

ORBITAL ENERGIES
----------------

  NO   OCC          E(Eh)            E(eV)
   0   2.0000     -19.225839      -523.1617
   1   2.0000     -10.306437      -280.4524
   2   2.0000      -1.161695       -31.6113
   3   2.0000      -0.800334       -21.7782
   4   2.0000      -0.623932       -16.9780
   5   2.0000      -0.556144       -15.1334
   6   2.0000      -0.534526       -14.5452
   7   2.0000      -0.429684       -11.6923
   8   2.0000      -0.373904       -10.1745
   9   0.0000       0.090704         2.4682
  10   0.0000       0.121176         3.2974
  11   0.0000       0.158446         4.3115
  12   0.0000       0.174782         4.7561
  13   0.0000       0.197594         5.3768

MULLIKEN ATOMIC CHARGES
-----------------------
   0 C :    0.001865
   1 O :   -0.000030
   2 H :   -0.000013
   3 H :   -0.000046
   4 H :   -0.000187
   5 H :   -0.004371
   6 C :   -0.150716
   7 O :   -0.455322
   8 H :    0.306797
   9 H :    0.093970
  10 H :    0.096708
  11 H :    0.111344
Sum of atomic charges:    0.0000000

LOEWDIN ATOMIC CHARGES
----------------------
   0 C :   -0.000357
   1 O :   -0.000008
   2 H :   -0.000001
   3 H :   -0.000008
   4 H :   -0.000020
   5 H :   -0.001689
   6 C :   -0.414013
   7 O :   -0.018977
   8 H :    0.143174
   9 H :    0.094904
  10 H :    0.087583
  11 H :    0.109412

  Mayer bond orders larger than 0.1
B(  6-C ,  7-O ) :   0.9963 B(  6-C ,  9-H ) :   0.9895 B(  6-C , 10-H ) :   0.9750
B(  6-C , 11-H ) :   0.9737 B(  7-O ,  8-H ) :   0.9098

Dispersion correction           -0.000207810
FINAL SINGLE POINT ENERGY      -115.731429021503

DIPOLE MOMENT
-------------
                                X             Y             Z
Electronic contribution:     -1.52727      -1.02832       0.11127
Nuclear contribution   :      1.93057       1.03928      -0.62815
                        -----------------------------------------
Total Dipole Moment    :      0.40330       0.01096      -0.51688
                        -----------------------------------------
Magnitude (a.u.)       :      0.65569
Magnitude (Debye)      :      1.66664

Rotational constants in cm-1:     4.469932     0.877168     0.852312
Rotational constants in MHz : 134005.199550 26296.826710 25551.677697

                             ****ORCA TERMINATED NORMALLY****
TOTAL RUN TIME: 0 days 0 hours 1 minutes 0 seconds 736 msec
