                         Program Version 4.1.2  - RELEASE  -
|  1> #Run DFT-D3 single point of the dimer
|  2> ! wB97X-D3 def2-TZVP TIGHTSCF  CHELPG PAL8
|  3>
|  4> %base "8_charges"
|  5>
|  6> %scf
|  7> MaxIter 1000
|  8> end
|  9> %output
| 10>   Print[ P_Mayer ] 1
| 11>   Print[ P_NatPop ] 1
| 12>   Print[ P_Hirshfeld ] 1
| 13>   Print[ P_Mulliken ] 1
| 14>   Print [ P_Loewdin ] 1
| 15> end
| 16>
| 17> * xyz 0 1
| 18>   C                      -2.167007            -10.646403           -9.489901
| 19>   O                      -1.790585            -9.423796            -8.772435
| 20>   H                      -1.624378            -8.735287            -9.393046
| 21>   H                      -1.305870            -11.277748           -9.880389
| 22>   H                      -2.845331            -11.264121           -8.957655
| 23>   H                      -2.849802            -10.436802           -10.297164
| 24> *
| 25>
| 26>                          ****END OF INPUT****

CARTESIAN COORDINATES (ANGSTROEM)
---------------------------------
  C     -2.167007  -10.646403   -9.489901
  O     -1.790585   -9.423796   -8.772435
  H     -1.624378   -8.735287   -9.393046
  H     -1.305870  -11.277748   -9.880389
  H     -2.845331  -11.264121   -8.957655
  H     -2.849802  -10.436802  -10.297164

 Total Charge           Charge          ....    0
 Multiplicity           Mult            ....    1
 Number of Electrons    NEL             ....   18
 Basis Dimension        Dim             ....   86

ORBITAL ENERGIES
----------------

  NO   OCC          E(Eh)            E(eV)
   0   2.0000     -19.231242      -523.3087
   1   2.0000     -10.317847      -280.7629
   2   2.0000      -1.124787       -30.6070
   3   2.0000      -0.805145       -21.9091
   4   2.0000      -0.605414       -16.4741
   5   2.0000      -0.540247       -14.7009
   6   2.0000      -0.519188       -14.1278
   7   2.0000      -0.429116       -11.6768
   8   2.0000      -0.381141       -10.3714
   9   0.0000       0.118702         3.2300
  10   0.0000       0.145305         3.9540
  11   0.0000       0.199688         5.4338
  12   0.0000       0.207961         5.6589
  13   0.0000       0.221665         6.0318

MULLIKEN ATOMIC CHARGES
-----------------------
   0 C :   -0.179289
   1 O :   -0.479911
   2 H :    0.313999
   3 H :    0.109865
   4 H :    0.124335
   5 H :    0.111000
Sum of atomic charges:   -0.0000000

LOEWDIN ATOMIC CHARGES
----------------------
   0 C :   -0.355630
   1 O :   -0.101487
   2 H :    0.153196
   3 H :    0.106557
   4 H :    0.100901
   5 H :    0.096463

  Mayer bond orders larger than 0.1
B(  0-C ,  1-O ) :   1.0016 B(  0-C ,  3-H ) :   0.9691 B(  0-C ,  4-H ) :   0.9719
B(  0-C ,  5-H ) :   0.9781 B(  1-O ,  2-H ) :   0.9034

Dispersion correction           -0.000289287
FINAL SINGLE POINT ENERGY      -115.726559807669

DIPOLE MOMENT
-------------
                                X             Y             Z
Electronic contribution:      0.55316       1.49680       1.09079
Nuclear contribution   :     -0.66759      -1.56738      -1.80516
                        -----------------------------------------
Total Dipole Moment    :     -0.11443      -0.07059      -0.71436
                        -----------------------------------------
Magnitude (a.u.)       :      0.72690
Magnitude (Debye)      :      1.84764

Rotational constants in cm-1:     4.508360     0.761681     0.753925
Rotational constants in MHz : 135157.245657 22834.615775 22602.110685

                             ****ORCA TERMINATED NORMALLY****
TOTAL RUN TIME: 0 days 0 hours 0 minutes 40 seconds 8 msec
