                         Program Version 4.1.2  - RELEASE  -
|  1> #Run DFT-D3 single point of the dimer
|  2> ! wB97X-D3 def2-TZVP TIGHTSCF CHELPG PMODEL PAL8
|  3>
|  4> %base "15-94_DFT_AB"
|  5>
|  6> %scf
|  7> MaxIter 1000
|  8> end
|  9>
| 10> * xyz 0 1
| 11>   C                      -9.298286            -3.963653            -8.912593
| 12>   O                      -9.166355            -4.048198            -10.336452
| 13>   H                      -8.265125            -4.216737            -10.593542
| 14>   H                      -8.442000            -3.655143            -8.442609
| 15>   H                      -10.045310           -3.234867            -8.637548
| 16>   H                      -9.578055            -4.961619            -8.479259
| 17>   C                      -8.434257            -8.662063            -7.240890
| 18>   O                      -9.041980            -7.554061            -7.848441
| 19>   H                      -8.633785            -7.403437            -8.746424
| 20>   H                      -9.058435            -9.181365            -6.554952
| 21>   H                      -8.244810            -9.360434            -8.007413
| 22>   H                      -7.428427            -8.455265            -6.819534
| 23> *
| 24>
| 25> #Run DFT-D3 single point of the molecule with dimer basis set
| 26> $new_job
| 27> %base "15-94_DFT_A"
| 28> ! wB97X-D3 def2-TZVP TIGHTSCF CHELPG PMODEL
| 29>
| 30> %scf
| 31> MaxIter 1000
| 32> end
| 33>
| 34> * xyz 0 1
| 35>   C                      -9.298286            -3.963653            -8.912593
| 36>   O                      -9.166355            -4.048198            -10.336452
| 37>   H                      -8.265125            -4.216737            -10.593542
| 38>   H                      -8.442000            -3.655143            -8.442609
| 39>   H                      -10.045310           -3.234867            -8.637548
| 40>   H                      -9.578055            -4.961619            -8.479259
| 41>   C                    : -8.434257            -8.662063            -7.240890
| 42>   O                    : -9.041980            -7.554061            -7.848441
| 43>   H                    : -8.633785            -7.403437            -8.746424
| 44>   H                    : -9.058435            -9.181365            -6.554952
| 45>   H                    : -8.244810            -9.360434            -8.007413
| 46>   H                    : -7.428427            -8.455265            -6.819534
| 47> *
| 48>
| 49> #Run DFT-D3 single point of the particle with dimer basis set
| 50> $new_job
| 51> %base "15-94_DFT_B"
| 52> ! wB97X-D3 def2-TZVP TIGHTSCF CHELPG PMODEL
| 53>
| 54> %scf
| 55> MaxIter 1000
| 56> end
| 57>
| 58> * xyz 0 1
| 59>   C                    : -9.298286            -3.963653            -8.912593
| 60>   O                    : -9.166355            -4.048198            -10.336452
| 61>   H                    : -8.265125            -4.216737            -10.593542
| 62>   H                    : -8.442000            -3.655143            -8.442609
| 63>   H                    : -10.045310           -3.234867            -8.637548
| 64>   H                    : -9.578055            -4.961619            -8.479259
| 65>   C                      -8.434257            -8.662063            -7.240890
| 66>   O                      -9.041980            -7.554061            -7.848441
| 67>   H                      -8.633785            -7.403437            -8.746424
| 68>   H                      -9.058435            -9.181365            -6.554952
| 69>   H                      -8.244810            -9.360434            -8.007413
| 70>   H                      -7.428427            -8.455265            -6.819534
| 71> *
| 72>
| 73>                          ****END OF INPUT****
 Total Charge           Charge          ....    0
 Multiplicity           Mult            ....    1
 Number of Electrons    NEL             ....   36
Dispersion correction           -0.001273293
FINAL SINGLE POINT ENERGY      -231.462825467477
Dispersion correction           -0.000255864
FINAL SINGLE POINT ENERGY      -115.731742674807

CARTESIAN COORDINATES (ANGSTROEM)
---------------------------------
  C     -9.298286   -3.963653   -8.912593
  O     -9.166355   -4.048198  -10.336452
  H     -8.265125   -4.216737  -10.593542
  H     -8.442000   -3.655143   -8.442609
  H    -10.045310   -3.234867   -8.637548
  H     -9.578055   -4.961619   -8.479259
  C     -8.434257   -8.662063   -7.240890
  O     -9.041980   -7.554061   -7.848441
  H     -8.633785   -7.403437   -8.746424
  H     -9.058435   -9.181365   -6.554952
  H     -8.244810   -9.360434   -8.007413
  H     -7.428427   -8.455265   -6.819534

 Multiplicity           Mult            ....    1
 Number of Electrons    NEL             ....   18
 Basis Dimension        Dim             ....  172

ORBITAL ENERGIES
----------------

  NO   OCC          E(Eh)            E(eV)
   0   2.0000     -19.232643      -523.3468
   1   2.0000     -10.306207      -280.4461
   2   2.0000      -1.132514       -30.8173
   3   2.0000      -0.797553       -21.7025
   4   2.0000      -0.612191       -16.6586
   5   2.0000      -0.543628       -14.7929
   6   2.0000      -0.533024       -14.5043
   7   2.0000      -0.429007       -11.6739
   8   2.0000      -0.371301       -10.1036
   9   0.0000       0.084845         2.3088
  10   0.0000       0.121057         3.2941
  11   0.0000       0.154297         4.1986
  12   0.0000       0.168115         4.5747
  13   0.0000       0.201502         5.4831

MULLIKEN ATOMIC CHARGES
-----------------------
   0 C :   -0.001158
   1 O :    0.000111
   2 H :    0.000007
   3 H :    0.000441
   4 H :   -0.000310
   5 H :   -0.005912
   6 C :   -0.157510
   7 O :   -0.476039
   8 H :    0.323756
   9 H :    0.121851
  10 H :    0.102076
  11 H :    0.092687
Sum of atomic charges:    0.0000000

LOEWDIN ATOMIC CHARGES
----------------------
   0 C :   -0.002878
   1 O :   -0.000047
   2 H :   -0.000053
   3 H :   -0.000102
   4 H :   -0.000029
   5 H :   -0.006892
   6 C :   -0.390541
   7 O :   -0.081158
   8 H :    0.194592
   9 H :    0.100979
  10 H :    0.089066
  11 H :    0.097063

  Mayer bond orders larger than 0.1
B(  6-C ,  7-O ) :   0.9990 B(  6-C ,  9-H ) :   0.9732 B(  6-C , 10-H ) :   0.9901
B(  6-C , 11-H ) :   0.9708 B(  7-O ,  8-H ) :   0.8873

Dispersion correction           -0.000233123
FINAL SINGLE POINT ENERGY      -115.729897173685

DIPOLE MOMENT
-------------
                                X             Y             Z
Electronic contribution:     -0.95475       1.47175      -0.53525
Nuclear contribution   :      1.43880      -1.86487       0.17921
                        -----------------------------------------
Total Dipole Moment    :      0.48405      -0.39313      -0.35604
                        -----------------------------------------
Magnitude (a.u.)       :      0.71807
Magnitude (Debye)      :      1.82518

Rotational constants in cm-1:     4.418692     0.839340     0.809566
Rotational constants in MHz : 132469.046783 25162.774619 24270.183391

                             ****ORCA TERMINATED NORMALLY****
TOTAL RUN TIME: 0 days 0 hours 0 minutes 45 seconds 994 msec
