                         Program Version 4.1.2  - RELEASE  -
|  1> #Run DFT-D3 single point of the dimer
|  2> ! wB97X-D3 def2-TZVP TIGHTSCF CHELPG PMODEL PAL8
|  3>
|  4> %base "1-49_DFT_AB"
|  5>
|  6> %scf
|  7> MaxIter 1000
|  8> end
|  9>
| 10> * xyz 0 1
| 11>   C                      -5.018804            -11.394211           4.335101
| 12>   O                      -4.125954            -10.858784           5.383765
| 13>   H                      -3.702437            -10.083851           5.035189
| 14>   H                      -5.527582            -10.505104           3.828122
| 15>   H                      -4.441818            -11.900742           3.519998
| 16>   H                      -5.719270            -12.198359           4.600835
| 17>   C                      0.147487             -10.878635           5.552531
| 18>   O                      -0.847567            -10.263458           6.365772
| 19>   H                      -1.074027            -9.403888            6.015301
| 20>   H                      -0.429552            -11.525158           4.836190
| 21>   H                      0.745412             -10.186834           4.917920
| 22>   H                      0.793972             -11.591896           6.171292
| 23> *
| 24>
| 25> #Run DFT-D3 single point of the molecule with dimer basis set
| 26> $new_job
| 27> %base "1-49_DFT_A"
| 28> ! wB97X-D3 def2-TZVP TIGHTSCF CHELPG PMODEL
| 29>
| 30> %scf
| 31> MaxIter 1000
| 32> end
| 33>
| 34> * xyz 0 1
| 35>   C                      -5.018804            -11.394211           4.335101
| 36>   O                      -4.125954            -10.858784           5.383765
| 37>   H                      -3.702437            -10.083851           5.035189
| 38>   H                      -5.527582            -10.505104           3.828122
| 39>   H                      -4.441818            -11.900742           3.519998
| 40>   H                      -5.719270            -12.198359           4.600835
| 41>   C                    : 0.147487             -10.878635           5.552531
| 42>   O                    : -0.847567            -10.263458           6.365772
| 43>   H                    : -1.074027            -9.403888            6.015301
| 44>   H                    : -0.429552            -11.525158           4.836190
| 45>   H                    : 0.745412             -10.186834           4.917920
| 46>   H                    : 0.793972             -11.591896           6.171292
| 47> *
| 48>
| 49> #Run DFT-D3 single point of the particle with dimer basis set
| 50> $new_job
| 51> %base "1-49_DFT_B"
| 52> ! wB97X-D3 def2-TZVP TIGHTSCF CHELPG PMODEL
| 53>
| 54> %scf
| 55> MaxIter 1000
| 56> end
| 57>
| 58> * xyz 0 1
| 59>   C                    : -5.018804            -11.394211           4.335101
| 60>   O                    : -4.125954            -10.858784           5.383765
| 61>   H                    : -3.702437            -10.083851           5.035189
| 62>   H                    : -5.527582            -10.505104           3.828122
| 63>   H                    : -4.441818            -11.900742           3.519998
| 64>   H                    : -5.719270            -12.198359           4.600835
| 65>   C                      0.147487             -10.878635           5.552531
| 66>   O                      -0.847567            -10.263458           6.365772
| 67>   H                      -1.074027            -9.403888            6.015301
| 68>   H                      -0.429552            -11.525158           4.836190
| 69>   H                      0.745412             -10.186834           4.917920
| 70>   H                      0.793972             -11.591896           6.171292
| 71> *
| 72>
| 73>                          ****END OF INPUT****
 Total Charge           Charge          ....    0
 Multiplicity           Mult            ....    1
 Number of Electrons    NEL             ....   36
Dispersion correction           -0.001307921
FINAL SINGLE POINT ENERGY      -231.455910524312
Dispersion correction           -0.000282966
FINAL SINGLE POINT ENERGY      -115.726426640084

CARTESIAN COORDINATES (ANGSTROEM)
---------------------------------
  C     -5.018804  -11.394211    4.335101
  O     -4.125954  -10.858784    5.383765
  H     -3.702437  -10.083851    5.035189
  H     -5.527582  -10.505104    3.828122
  H     -4.441818  -11.900742    3.519998
  H     -5.719270  -12.198359    4.600835
  C      0.147487  -10.878635    5.552531
  O     -0.847567  -10.263458    6.365772
  H     -1.074027   -9.403888    6.015301
  H     -0.429552  -11.525158    4.836190
  H      0.745412  -10.186834    4.917920
  H      0.793972  -11.591896    6.171292

 Multiplicity           Mult            ....    1
 Number of Electrons    NEL             ....   18
 Basis Dimension        Dim             ....  172

ORBITAL ENERGIES
----------------

  NO   OCC          E(Eh)            E(eV)
   0   2.0000     -19.230429      -523.2866
   1   2.0000     -10.325844      -280.9805
   2   2.0000      -1.133746       -30.8508
   3   2.0000      -0.789996       -21.4969
   4   2.0000      -0.611239       -16.6327
   5   2.0000      -0.529903       -14.4194
   6   2.0000      -0.524541       -14.2735
   7   2.0000      -0.437359       -11.9012
   8   2.0000      -0.368371       -10.0239
   9   0.0000       0.085826         2.3354
  10   0.0000       0.117093         3.1862
  11   0.0000       0.147809         4.0221
  12   0.0000       0.175403         4.7729
  13   0.0000       0.187975         5.1151

MULLIKEN ATOMIC CHARGES
-----------------------
   0 C :    0.000472
   1 O :   -0.000242
   2 H :   -0.005190
   3 H :   -0.000005
   4 H :   -0.000041
   5 H :    0.000032
   6 C :   -0.169069
   7 O :   -0.473251
   8 H :    0.316904
   9 H :    0.104061
  10 H :    0.108081
  11 H :    0.118248
Sum of atomic charges:   -0.0000000

LOEWDIN ATOMIC CHARGES
----------------------
   0 C :   -0.000116
   1 O :   -0.002129
   2 H :   -0.003639
   3 H :   -0.000002
   4 H :   -0.000015
   5 H :   -0.000001
   6 C :   -0.389326
   7 O :   -0.082604
   8 H :    0.164302
   9 H :    0.100726
  10 H :    0.097774
  11 H :    0.115032

  Mayer bond orders larger than 0.1
B(  6-C ,  7-O ) :   0.9994 B(  6-C ,  9-H ) :   0.9808 B(  6-C , 10-H ) :   0.9726
B(  6-C , 11-H ) :   0.9698 B(  7-O ,  8-H ) :   0.8969

Dispersion correction           -0.000263625
FINAL SINGLE POINT ENERGY      -115.731478074014

DIPOLE MOMENT
-------------
                                X             Y             Z
Electronic contribution:     -1.14577       0.81001       1.18323
Nuclear contribution   :      1.40293      -0.48688      -1.73864
                        -----------------------------------------
Total Dipole Moment    :      0.25717       0.32313      -0.55541
                        -----------------------------------------
Magnitude (a.u.)       :      0.69212
Magnitude (Debye)      :      1.75924

Rotational constants in cm-1:     4.116344     0.817158     0.781406
Rotational constants in MHz : 123404.887114 24497.772239 23425.975096

                             ****ORCA TERMINATED NORMALLY****
TOTAL RUN TIME: 0 days 0 hours 5 minutes 37 seconds 428 msec
