                         Program Version 4.1.2  - RELEASE  -
|  1> #Run DFT-D3 single point of the dimer
|  2> ! wB97X-D3 def2-TZVP TIGHTSCF CHELPG PMODEL PAL8
|  3>
|  4> %base "4-93_DFT_AB"
|  5>
|  6> %scf
|  7> MaxIter 1000
|  8> end
|  9>
| 10> * xyz 0 1
| 11>   C                      8.304697             0.773642             -7.879795
| 12>   O                      7.697569             -0.052126            -8.879199
| 13>   H                      7.046114             -0.492704            -8.416586
| 14>   H                      8.728058             0.224718             -7.058519
| 15>   H                      9.138744             1.205424             -8.296531
| 16>   H                      7.608282             1.530593             -7.478363
| 17>   C                      4.293375             1.042256             -8.567956
| 18>   O                      3.206793             1.745476             -9.168027
| 19>   H                      2.373809             1.405135             -8.839542
| 20>   H                      4.153393             -0.071177            -8.618395
| 21>   H                      5.216379             1.289821             -9.122041
| 22>   H                      4.380283             1.258665             -7.539011
| 23> *
| 24>
| 25> #Run DFT-D3 single point of the molecule with dimer basis set
| 26> $new_job
| 27> %base "4-93_DFT_A"
| 28> ! wB97X-D3 def2-TZVP TIGHTSCF CHELPG PMODEL
| 29>
| 30> %scf
| 31> MaxIter 1000
| 32> end
| 33>
| 34> * xyz 0 1
| 35>   C                      8.304697             0.773642             -7.879795
| 36>   O                      7.697569             -0.052126            -8.879199
| 37>   H                      7.046114             -0.492704            -8.416586
| 38>   H                      8.728058             0.224718             -7.058519
| 39>   H                      9.138744             1.205424             -8.296531
| 40>   H                      7.608282             1.530593             -7.478363
| 41>   C                    : 4.293375             1.042256             -8.567956
| 42>   O                    : 3.206793             1.745476             -9.168027
| 43>   H                    : 2.373809             1.405135             -8.839542
| 44>   H                    : 4.153393             -0.071177            -8.618395
| 45>   H                    : 5.216379             1.289821             -9.122041
| 46>   H                    : 4.380283             1.258665             -7.539011
| 47> *
| 48>
| 49> #Run DFT-D3 single point of the particle with dimer basis set
| 50> $new_job
| 51> %base "4-93_DFT_B"
| 52> ! wB97X-D3 def2-TZVP TIGHTSCF CHELPG PMODEL
| 53>
| 54> %scf
| 55> MaxIter 1000
| 56> end
| 57>
| 58> * xyz 0 1
| 59>   C                    : 8.304697             0.773642             -7.879795
| 60>   O                    : 7.697569             -0.052126            -8.879199
| 61>   H                    : 7.046114             -0.492704            -8.416586
| 62>   H                    : 8.728058             0.224718             -7.058519
| 63>   H                    : 9.138744             1.205424             -8.296531
| 64>   H                    : 7.608282             1.530593             -7.478363
| 65>   C                      4.293375             1.042256             -8.567956
| 66>   O                      3.206793             1.745476             -9.168027
| 67>   H                      2.373809             1.405135             -8.839542
| 68>   H                      4.153393             -0.071177            -8.618395
| 69>   H                      5.216379             1.289821             -9.122041
| 70>   H                      4.380283             1.258665             -7.539011
| 71> *
| 72>
| 73>                          ****END OF INPUT****
 Total Charge           Charge          ....    0
 Multiplicity           Mult            ....    1
 Number of Electrons    NEL             ....   36
Dispersion correction           -0.001710555
FINAL SINGLE POINT ENERGY      -231.466591205586
Dispersion correction           -0.000227093
FINAL SINGLE POINT ENERGY      -115.730472341285

CARTESIAN COORDINATES (ANGSTROEM)
---------------------------------
  C      8.304697    0.773642   -7.879795
  O      7.697569   -0.052126   -8.879199
  H      7.046114   -0.492704   -8.416586
  H      8.728058    0.224718   -7.058519
  H      9.138744    1.205424   -8.296531
  H      7.608282    1.530593   -7.478363
  C      4.293375    1.042256   -8.567956
  O      3.206793    1.745476   -9.168027
  H      2.373809    1.405135   -8.839542
  H      4.153393   -0.071177   -8.618395
  H      5.216379    1.289821   -9.122041
  H      4.380283    1.258665   -7.539011

 Multiplicity           Mult            ....    1
 Number of Electrons    NEL             ....   18
 Basis Dimension        Dim             ....  172

ORBITAL ENERGIES
----------------

  NO   OCC          E(Eh)            E(eV)
   0   2.0000     -19.228586      -523.2364
   1   2.0000     -10.314366      -280.6682
   2   2.0000      -1.130925       -30.7740
   3   2.0000      -0.796918       -21.6852
   4   2.0000      -0.611361       -16.6360
   5   2.0000      -0.539946       -14.6927
   6   2.0000      -0.523154       -14.2358
   7   2.0000      -0.434079       -11.8119
   8   2.0000      -0.373276       -10.1574
   9   0.0000       0.084100         2.2885
  10   0.0000       0.116216         3.1624
  11   0.0000       0.148895         4.0516
  12   0.0000       0.178773         4.8647
  13   0.0000       0.179804         4.8927

MULLIKEN ATOMIC CHARGES
-----------------------
   0 C :   -0.000151
   1 O :   -0.000228
   2 H :   -0.000303
   3 H :   -0.000049
   4 H :    0.000039
   5 H :   -0.000509
   6 C :   -0.161808
   7 O :   -0.481658
   8 H :    0.313802
   9 H :    0.097950
  10 H :    0.124393
  11 H :    0.108522
Sum of atomic charges:    0.0000000

LOEWDIN ATOMIC CHARGES
----------------------
   0 C :   -0.001899
   1 O :   -0.001626
   2 H :   -0.002306
   3 H :   -0.000014
   4 H :   -0.000016
   5 H :   -0.001021
   6 C :   -0.371950
   7 O :   -0.086485
   8 H :    0.164627
   9 H :    0.100091
  10 H :    0.114449
  11 H :    0.086148

  Mayer bond orders larger than 0.1
B(  6-C ,  7-O ) :   0.9955 B(  6-C ,  9-H ) :   0.9766 B(  6-C , 10-H ) :   0.9729
B(  6-C , 11-H ) :   0.9715 B(  7-O ,  8-H ) :   0.8988

Dispersion correction           -0.000247046
FINAL SINGLE POINT ENERGY      -115.735148728490

DIPOLE MOMENT
-------------
                                X             Y             Z
Electronic contribution:     -1.25865       1.04555      -0.78256
Nuclear contribution   :      1.16763      -1.54737       1.24523
                        -----------------------------------------
Total Dipole Moment    :     -0.09102      -0.50182       0.46267
                        -----------------------------------------
Magnitude (a.u.)       :      0.68860
Magnitude (Debye)      :      1.75029

Rotational constants in cm-1:     4.307396     0.820227     0.785938
Rotational constants in MHz : 129132.485413 24589.799174 23561.825164

                             ****ORCA TERMINATED NORMALLY****
TOTAL RUN TIME: 0 days 0 hours 1 minutes 31 seconds 434 msec
