                         Program Version 4.1.2  - RELEASE  -
|  1> #Run DFT-D3 single point of the dimer
|  2> ! wB97X-D3 def2-TZVP TIGHTSCF CHELPG PMODEL PAL8
|  3>
|  4> %base "11-158_DFT_AB"
|  5>
|  6> %scf
|  7> MaxIter 1000
|  8> end
|  9>
| 10> * xyz 0 1
| 11>   C                      -6.890285            -0.651512            -6.912674
| 12>   O                      -7.229241            -1.200924            -5.604162
| 13>   H                      -8.080898            -1.626156            -5.709926
| 14>   H                      -6.749683            -1.458813            -7.604666
| 15>   H                      -7.653449            0.054767             -7.336818
| 16>   H                      -5.976611            -0.051108            -6.957047
| 17>   C                      -10.601700           -1.340153            -6.515866
| 18>   O                      -9.853865            -2.173804            -5.554064
| 19>   H                      -10.156461           -2.016928            -4.673614
| 20>   H                      -10.217419           -0.365535            -6.397053
| 21>   H                      -10.391301           -1.669020            -7.565933
| 22>   H                      -11.635919           -1.467223            -6.354808
| 23> *
| 24>
| 25> #Run DFT-D3 single point of the molecule with dimer basis set
| 26> $new_job
| 27> %base "11-158_DFT_A"
| 28> ! wB97X-D3 def2-TZVP TIGHTSCF CHELPG PMODEL
| 29>
| 30> %scf
| 31> MaxIter 1000
| 32> end
| 33>
| 34> * xyz 0 1
| 35>   C                      -6.890285            -0.651512            -6.912674
| 36>   O                      -7.229241            -1.200924            -5.604162
| 37>   H                      -8.080898            -1.626156            -5.709926
| 38>   H                      -6.749683            -1.458813            -7.604666
| 39>   H                      -7.653449            0.054767             -7.336818
| 40>   H                      -5.976611            -0.051108            -6.957047
| 41>   C                    : -10.601700           -1.340153            -6.515866
| 42>   O                    : -9.853865            -2.173804            -5.554064
| 43>   H                    : -10.156461           -2.016928            -4.673614
| 44>   H                    : -10.217419           -0.365535            -6.397053
| 45>   H                    : -10.391301           -1.669020            -7.565933
| 46>   H                    : -11.635919           -1.467223            -6.354808
| 47> *
| 48>
| 49> #Run DFT-D3 single point of the particle with dimer basis set
| 50> $new_job
| 51> %base "11-158_DFT_B"
| 52> ! wB97X-D3 def2-TZVP TIGHTSCF CHELPG PMODEL
| 53>
| 54> %scf
| 55> MaxIter 1000
| 56> end
| 57>
| 58> * xyz 0 1
| 59>   C                    : -6.890285            -0.651512            -6.912674
| 60>   O                    : -7.229241            -1.200924            -5.604162
| 61>   H                    : -8.080898            -1.626156            -5.709926
| 62>   H                    : -6.749683            -1.458813            -7.604666
| 63>   H                    : -7.653449            0.054767             -7.336818
| 64>   H                    : -5.976611            -0.051108            -6.957047
| 65>   C                      -10.601700           -1.340153            -6.515866
| 66>   O                      -9.853865            -2.173804            -5.554064
| 67>   H                      -10.156461           -2.016928            -4.673614
| 68>   H                      -10.217419           -0.365535            -6.397053
| 69>   H                      -10.391301           -1.669020            -7.565933
| 70>   H                      -11.635919           -1.467223            -6.354808
| 71> *
| 72>
| 73>                          ****END OF INPUT****
 Total Charge           Charge          ....    0
 Multiplicity           Mult            ....    1
 Number of Electrons    NEL             ....   36
Dispersion correction           -0.002145967
FINAL SINGLE POINT ENERGY      -231.471701187618
Dispersion correction           -0.000267374
FINAL SINGLE POINT ENERGY      -115.732315254806

CARTESIAN COORDINATES (ANGSTROEM)
---------------------------------
  C     -6.890285   -0.651512   -6.912674
  O     -7.229241   -1.200924   -5.604162
  H     -8.080898   -1.626156   -5.709926
  H     -6.749683   -1.458813   -7.604666
  H     -7.653449    0.054767   -7.336818
  H     -5.976611   -0.051108   -6.957047
  C    -10.601700   -1.340153   -6.515866
  O     -9.853865   -2.173804   -5.554064
  H    -10.156461   -2.016928   -4.673614
  H    -10.217419   -0.365535   -6.397053
  H    -10.391301   -1.669020   -7.565933
  H    -11.635919   -1.467223   -6.354808

 Multiplicity           Mult            ....    1
 Number of Electrons    NEL             ....   18
 Basis Dimension        Dim             ....  172

ORBITAL ENERGIES
----------------

  NO   OCC          E(Eh)            E(eV)
   0   2.0000     -19.222849      -523.0803
   1   2.0000     -10.313632      -280.6482
   2   2.0000      -1.117917       -30.4201
   3   2.0000      -0.803374       -21.8609
   4   2.0000      -0.597218       -16.2511
   5   2.0000      -0.554740       -15.0952
   6   2.0000      -0.519810       -14.1447
   7   2.0000      -0.428248       -11.6532
   8   2.0000      -0.375653       -10.2220
   9   0.0000       0.095043         2.5862
  10   0.0000       0.126843         3.4516
  11   0.0000       0.151914         4.1338
  12   0.0000       0.186392         5.0720
  13   0.0000       0.194715         5.2985

MULLIKEN ATOMIC CHARGES
-----------------------
   0 C :    0.001598
   1 O :   -0.003548
   2 H :   -0.007793
   3 H :   -0.000463
   4 H :   -0.000023
   5 H :    0.000089
   6 C :   -0.172193
   7 O :   -0.496430
   8 H :    0.311133
   9 H :    0.123346
  10 H :    0.119580
  11 H :    0.124704
Sum of atomic charges:    0.0000000

LOEWDIN ATOMIC CHARGES
----------------------
   0 C :   -0.002736
   1 O :   -0.008439
   2 H :   -0.053856
   3 H :   -0.000117
   4 H :   -0.001028
   5 H :   -0.000020
   6 C :   -0.320958
   7 O :   -0.066518
   8 H :    0.151074
   9 H :    0.093732
  10 H :    0.117105
  11 H :    0.091761

  Mayer bond orders larger than 0.1
B(  6-C ,  7-O ) :   0.9576 B(  6-C ,  9-H ) :   0.9836 B(  6-C , 10-H ) :   0.9741
B(  6-C , 11-H ) :   0.9725 B(  7-O ,  8-H ) :   0.9014

Dispersion correction           -0.000245449
FINAL SINGLE POINT ENERGY      -115.730625575770

DIPOLE MOMENT
-------------
                                X             Y             Z
Electronic contribution:      0.83930      -0.95242       1.04176
Nuclear contribution   :     -1.39107       1.42632      -0.91636
                        -----------------------------------------
Total Dipole Moment    :     -0.55177       0.47390       0.12540
                        -----------------------------------------
Magnitude (a.u.)       :      0.73808
Magnitude (Debye)      :      1.87604

Rotational constants in cm-1:     4.383027     0.780076     0.758963
Rotational constants in MHz : 131399.855905 23386.099631 22753.148282

                             ****ORCA TERMINATED NORMALLY****
TOTAL RUN TIME: 0 days 0 hours 1 minutes 13 seconds 402 msec
