                         Program Version 4.1.2  - RELEASE  -
|  1> #Run DFT-D3 single point of the dimer
|  2> ! wB97X-D3 def2-TZVP TIGHTSCF CHELPG PMODEL PAL8
|  3>
|  4> %base "6-181_DFT_AB"
|  5>
|  6> %scf
|  7> MaxIter 1000
|  8> end
|  9>
| 10> * xyz 0 1
| 11>   C                      -4.140601            4.017611             -3.706493
| 12>   O                      -4.263904            3.967901             -2.364951
| 13>   H                      -5.079723            4.217883             -1.945731
| 14>   H                      -4.671570            3.223314             -4.151186
| 15>   H                      -4.523097            4.919380             -4.129298
| 16>   H                      -3.104929            3.963434             -3.947013
| 17>   C                      -1.975254            6.692017             -1.033404
| 18>   O                      -2.120310            5.270043             -0.797083
| 19>   H                      -2.657110            4.902343             -1.459374
| 20>   H                      -2.902032            7.264502             -1.136159
| 21>   H                      -1.451563            7.112902             -0.276647
| 22>   H                      -1.472944            6.901009             -1.961477
| 23> *
| 24>
| 25> #Run DFT-D3 single point of the molecule with dimer basis set
| 26> $new_job
| 27> %base "6-181_DFT_A"
| 28> ! wB97X-D3 def2-TZVP TIGHTSCF CHELPG PMODEL
| 29>
| 30> %scf
| 31> MaxIter 1000
| 32> end
| 33>
| 34> * xyz 0 1
| 35>   C                      -4.140601            4.017611             -3.706493
| 36>   O                      -4.263904            3.967901             -2.364951
| 37>   H                      -5.079723            4.217883             -1.945731
| 38>   H                      -4.671570            3.223314             -4.151186
| 39>   H                      -4.523097            4.919380             -4.129298
| 40>   H                      -3.104929            3.963434             -3.947013
| 41>   C                    : -1.975254            6.692017             -1.033404
| 42>   O                    : -2.120310            5.270043             -0.797083
| 43>   H                    : -2.657110            4.902343             -1.459374
| 44>   H                    : -2.902032            7.264502             -1.136159
| 45>   H                    : -1.451563            7.112902             -0.276647
| 46>   H                    : -1.472944            6.901009             -1.961477
| 47> *
| 48>
| 49> #Run DFT-D3 single point of the particle with dimer basis set
| 50> $new_job
| 51> %base "6-181_DFT_B"
| 52> ! wB97X-D3 def2-TZVP TIGHTSCF CHELPG PMODEL
| 53>
| 54> %scf
| 55> MaxIter 1000
| 56> end
| 57>
| 58> * xyz 0 1
| 59>   C                    : -4.140601            4.017611             -3.706493
| 60>   O                    : -4.263904            3.967901             -2.364951
| 61>   H                    : -5.079723            4.217883             -1.945731
| 62>   H                    : -4.671570            3.223314             -4.151186
| 63>   H                    : -4.523097            4.919380             -4.129298
| 64>   H                    : -3.104929            3.963434             -3.947013
| 65>   C                      -1.975254            6.692017             -1.033404
| 66>   O                      -2.120310            5.270043             -0.797083
| 67>   H                      -2.657110            4.902343             -1.459374
| 68>   H                      -2.902032            7.264502             -1.136159
| 69>   H                      -1.451563            7.112902             -0.276647
| 70>   H                      -1.472944            6.901009             -1.961477
| 71> *
| 72>
| 73>                          ****END OF INPUT****
 Total Charge           Charge          ....    0
 Multiplicity           Mult            ....    1
 Number of Electrons    NEL             ....   36
Dispersion correction           -0.001750694
FINAL SINGLE POINT ENERGY      -231.466339281106
Dispersion correction           -0.000224283
FINAL SINGLE POINT ENERGY      -115.729767538818

CARTESIAN COORDINATES (ANGSTROEM)
---------------------------------
  C     -4.140601    4.017611   -3.706493
  O     -4.263904    3.967901   -2.364951
  H     -5.079723    4.217883   -1.945731
  H     -4.671570    3.223314   -4.151186
  H     -4.523097    4.919380   -4.129298
  H     -3.104929    3.963434   -3.947013
  C     -1.975254    6.692017   -1.033404
  O     -2.120310    5.270043   -0.797083
  H     -2.657110    4.902343   -1.459374
  H     -2.902032    7.264502   -1.136159
  H     -1.451563    7.112902   -0.276647
  H     -1.472944    6.901009   -1.961477

 Multiplicity           Mult            ....    1
 Number of Electrons    NEL             ....   18
 Basis Dimension        Dim             ....  172

ORBITAL ENERGIES
----------------

  NO   OCC          E(Eh)            E(eV)
   0   2.0000     -19.228979      -523.2471
   1   2.0000     -10.305824      -280.4357
   2   2.0000      -1.132021       -30.8039
   3   2.0000      -0.811375       -22.0786
   4   2.0000      -0.613729       -16.7004
   5   2.0000      -0.537969       -14.6389
   6   2.0000      -0.528356       -14.3773
   7   2.0000      -0.444170       -12.0865
   8   2.0000      -0.376059       -10.2331
   9   0.0000       0.069729         1.8974
  10   0.0000       0.139805         3.8043
  11   0.0000       0.149914         4.0794
  12   0.0000       0.159545         4.3414
  13   0.0000       0.193301         5.2600

MULLIKEN ATOMIC CHARGES
-----------------------
   0 C :   -0.001960
   1 O :   -0.002495
   2 H :   -0.000688
   3 H :   -0.000148
   4 H :    0.000209
   5 H :   -0.000767
   6 C :   -0.169548
   7 O :   -0.470712
   8 H :    0.304445
   9 H :    0.101674
  10 H :    0.132511
  11 H :    0.107480
Sum of atomic charges:   -0.0000000

LOEWDIN ATOMIC CHARGES
----------------------
   0 C :   -0.004609
   1 O :   -0.013292
   2 H :   -0.001619
   3 H :   -0.000122
   4 H :   -0.000089
   5 H :   -0.001003
   6 C :   -0.342782
   7 O :   -0.068530
   8 H :    0.149277
   9 H :    0.098077
  10 H :    0.089827
  11 H :    0.094864

  Mayer bond orders larger than 0.1
B(  6-C ,  7-O ) :   0.9895 B(  6-C ,  9-H ) :   0.9705 B(  6-C , 10-H ) :   0.9774
B(  6-C , 11-H ) :   0.9792 B(  7-O ,  8-H ) :   0.9184

Dispersion correction           -0.000256595
FINAL SINGLE POINT ENERGY      -115.729939772379

DIPOLE MOMENT
-------------
                                X             Y             Z
Electronic contribution:     -0.06551      -1.79013       0.49641
Nuclear contribution   :     -0.20683       2.17254      -1.01486
                        -----------------------------------------
Total Dipole Moment    :     -0.27234       0.38241      -0.51844
                        -----------------------------------------
Magnitude (a.u.)       :      0.69942
Magnitude (Debye)      :      1.77779

Rotational constants in cm-1:     4.682675     0.797423     0.770995
Rotational constants in MHz : 140383.072462 23906.134077 23113.835367

                             ****ORCA TERMINATED NORMALLY****
TOTAL RUN TIME: 0 days 0 hours 1 minutes 8 seconds 232 msec
