                         Program Version 4.1.2  - RELEASE  -
|  1> #Run DFT-D3 single point of the dimer
|  2> ! wB97X-D3 def2-TZVP TIGHTSCF CHELPG PMODEL PAL8
|  3>
|  4> %base "14-43_DFT_AB"
|  5>
|  6> %scf
|  7> MaxIter 1000
|  8> end
|  9>
| 10> * xyz 0 1
| 11>   C                      10.841088            -7.127061            -6.891285
| 12>   O                      10.495546            -7.092162            -5.484353
| 13>   H                      9.956987             -6.291068            -5.245316
| 14>   H                      9.927392             -6.872766            -7.502368
| 15>   H                      11.640231            -6.359361            -7.120319
| 16>   H                      11.277844            -8.122326            -7.267426
| 17>   C                      6.017581             -6.453415            -8.567214
| 18>   O                      5.229039             -5.915533            -9.588859
| 19>   H                      5.694986             -5.160984            -9.970381
| 20>   H                      5.702481             -7.454117            -8.465420
| 21>   H                      7.041725             -6.565009            -8.829998
| 22>   H                      6.066577             -5.873545            -7.571626
| 23> *
| 24>
| 25> #Run DFT-D3 single point of the molecule with dimer basis set
| 26> $new_job
| 27> %base "14-43_DFT_A"
| 28> ! wB97X-D3 def2-TZVP TIGHTSCF CHELPG PMODEL
| 29>
| 30> %scf
| 31> MaxIter 1000
| 32> end
| 33>
| 34> * xyz 0 1
| 35>   C                      10.841088            -7.127061            -6.891285
| 36>   O                      10.495546            -7.092162            -5.484353
| 37>   H                      9.956987             -6.291068            -5.245316
| 38>   H                      9.927392             -6.872766            -7.502368
| 39>   H                      11.640231            -6.359361            -7.120319
| 40>   H                      11.277844            -8.122326            -7.267426
| 41>   C                    : 6.017581             -6.453415            -8.567214
| 42>   O                    : 5.229039             -5.915533            -9.588859
| 43>   H                    : 5.694986             -5.160984            -9.970381
| 44>   H                    : 5.702481             -7.454117            -8.465420
| 45>   H                    : 7.041725             -6.565009            -8.829998
| 46>   H                    : 6.066577             -5.873545            -7.571626
| 47> *
| 48>
| 49> #Run DFT-D3 single point of the particle with dimer basis set
| 50> $new_job
| 51> %base "14-43_DFT_B"
| 52> ! wB97X-D3 def2-TZVP TIGHTSCF CHELPG PMODEL
| 53>
| 54> %scf
| 55> MaxIter 1000
| 56> end
| 57>
| 58> * xyz 0 1
| 59>   C                    : 10.841088            -7.127061            -6.891285
| 60>   O                    : 10.495546            -7.092162            -5.484353
| 61>   H                    : 9.956987             -6.291068            -5.245316
| 62>   H                    : 9.927392             -6.872766            -7.502368
| 63>   H                    : 11.640231            -6.359361            -7.120319
| 64>   H                    : 11.277844            -8.122326            -7.267426
| 65>   C                      6.017581             -6.453415            -8.567214
| 66>   O                      5.229039             -5.915533            -9.588859
| 67>   H                      5.694986             -5.160984            -9.970381
| 68>   H                      5.702481             -7.454117            -8.465420
| 69>   H                      7.041725             -6.565009            -8.829998
| 70>   H                      6.066577             -5.873545            -7.571626
| 71> *
| 72>
| 73>                          ****END OF INPUT****
 Total Charge           Charge          ....    0
 Multiplicity           Mult            ....    1
 Number of Electrons    NEL             ....   36
Dispersion correction           -0.000873262
FINAL SINGLE POINT ENERGY      -231.458901236930
Dispersion correction           -0.000287305
FINAL SINGLE POINT ENERGY      -115.728152997188

CARTESIAN COORDINATES (ANGSTROEM)
---------------------------------
  C     10.841088   -7.127061   -6.891285
  O     10.495546   -7.092162   -5.484353
  H      9.956987   -6.291068   -5.245316
  H      9.927392   -6.872766   -7.502368
  H     11.640231   -6.359361   -7.120319
  H     11.277844   -8.122326   -7.267426
  C      6.017581   -6.453415   -8.567214
  O      5.229039   -5.915533   -9.588859
  H      5.694986   -5.160984   -9.970381
  H      5.702481   -7.454117   -8.465420
  H      7.041725   -6.565009   -8.829998
  H      6.066577   -5.873545   -7.571626

 Multiplicity           Mult            ....    1
 Number of Electrons    NEL             ....   18
 Basis Dimension        Dim             ....  172

ORBITAL ENERGIES
----------------

  NO   OCC          E(Eh)            E(eV)
   0   2.0000     -19.233377      -523.3668
   1   2.0000     -10.309455      -280.5345
   2   2.0000      -1.141316       -31.0568
   3   2.0000      -0.798329       -21.7236
   4   2.0000      -0.619118       -16.8471
   5   2.0000      -0.540730       -14.7140
   6   2.0000      -0.523141       -14.2354
   7   2.0000      -0.436065       -11.8659
   8   2.0000      -0.374167       -10.1816
   9   0.0000       0.081191         2.2093
  10   0.0000       0.116069         3.1584
  11   0.0000       0.146471         3.9857
  12   0.0000       0.158350         4.3089
  13   0.0000       0.186083         5.0636

MULLIKEN ATOMIC CHARGES
-----------------------
   0 C :    0.000410
   1 O :   -0.000005
   2 H :   -0.000023
   3 H :   -0.000959
   4 H :   -0.000020
   5 H :   -0.000015
   6 C :   -0.160422
   7 O :   -0.469680
   8 H :    0.315221
   9 H :    0.120256
  10 H :    0.104936
  11 H :    0.090301
Sum of atomic charges:   -0.0000000

LOEWDIN ATOMIC CHARGES
----------------------
   0 C :   -0.000110
   1 O :   -0.000004
   2 H :   -0.000014
   3 H :   -0.000794
   4 H :   -0.000001
   5 H :   -0.000001
   6 C :   -0.401998
   7 O :   -0.062825
   8 H :    0.172836
   9 H :    0.101795
  10 H :    0.088025
  11 H :    0.103090

  Mayer bond orders larger than 0.1
B(  6-C ,  7-O ) :   1.0098 B(  6-C ,  9-H ) :   0.9756 B(  6-C , 10-H ) :   0.9795
B(  6-C , 11-H ) :   0.9662 B(  7-O ,  8-H ) :   0.8987

Dispersion correction           -0.000252050
FINAL SINGLE POINT ENERGY      -115.730644463437

DIPOLE MOMENT
-------------
                                X             Y             Z
Electronic contribution:     -1.20023       0.62194      -1.33678
Nuclear contribution   :      1.82863      -0.38095       1.44074
                        -----------------------------------------
Total Dipole Moment    :      0.62840       0.24099       0.10396
                        -----------------------------------------
Magnitude (a.u.)       :      0.68101
Magnitude (Debye)      :      1.73098

Rotational constants in cm-1:     4.397374     0.838767     0.811900
Rotational constants in MHz : 131829.948873 25145.605470 24340.145944

                             ****ORCA TERMINATED NORMALLY****
TOTAL RUN TIME: 0 days 0 hours 1 minutes 1 seconds 451 msec
