                         Program Version 4.1.2  - RELEASE  -
|  1> #Run DFT-D3 single point of the dimer
|  2> ! wB97X-D3 def2-TZVP TIGHTSCF CHELPG PMODEL PAL8
|  3>
|  4> %base "17-154_DFT_AB"
|  5>
|  6> %scf
|  7> MaxIter 1000
|  8> end
|  9>
| 10> * xyz 0 1
| 11>   C                      -0.014004            -8.914242            3.677463
| 12>   O                      -0.243283            -7.666548            3.192443
| 13>   H                      -0.330893            -7.706242            2.229205
| 14>   H                      0.478737             -9.580093            2.996806
| 15>   H                      0.624726             -8.936190            4.581951
| 16>   H                      -0.910941            -9.473797            3.977538
| 17>   C                      -1.692294            -11.103944           0.083471
| 18>   O                      -2.566443            -10.003785           0.122804
| 19>   H                      -2.003418            -9.254620            0.347593
| 20>   H                      -1.189588            -11.109790           -0.845956
| 21>   H                      -0.864345            -11.074299           0.771556
| 22>   H                      -2.283105            -12.055055           0.103385
| 23> *
| 24>
| 25> #Run DFT-D3 single point of the molecule with dimer basis set
| 26> $new_job
| 27> %base "17-154_DFT_A"
| 28> ! wB97X-D3 def2-TZVP TIGHTSCF CHELPG PMODEL
| 29>
| 30> %scf
| 31> MaxIter 1000
| 32> end
| 33>
| 34> * xyz 0 1
| 35>   C                      -0.014004            -8.914242            3.677463
| 36>   O                      -0.243283            -7.666548            3.192443
| 37>   H                      -0.330893            -7.706242            2.229205
| 38>   H                      0.478737             -9.580093            2.996806
| 39>   H                      0.624726             -8.936190            4.581951
| 40>   H                      -0.910941            -9.473797            3.977538
| 41>   C                    : -1.692294            -11.103944           0.083471
| 42>   O                    : -2.566443            -10.003785           0.122804
| 43>   H                    : -2.003418            -9.254620            0.347593
| 44>   H                    : -1.189588            -11.109790           -0.845956
| 45>   H                    : -0.864345            -11.074299           0.771556
| 46>   H                    : -2.283105            -12.055055           0.103385
| 47> *
| 48>
| 49> #Run DFT-D3 single point of the particle with dimer basis set
| 50> $new_job
| 51> %base "17-154_DFT_B"
| 52> ! wB97X-D3 def2-TZVP TIGHTSCF CHELPG PMODEL
| 53>
| 54> %scf
| 55> MaxIter 1000
| 56> end
| 57>
| 58> * xyz 0 1
| 59>   C                    : -0.014004            -8.914242            3.677463
| 60>   O                    : -0.243283            -7.666548            3.192443
| 61>   H                    : -0.330893            -7.706242            2.229205
| 62>   H                    : 0.478737             -9.580093            2.996806
| 63>   H                    : 0.624726             -8.936190            4.581951
| 64>   H                    : -0.910941            -9.473797            3.977538
| 65>   C                      -1.692294            -11.103944           0.083471
| 66>   O                      -2.566443            -10.003785           0.122804
| 67>   H                      -2.003418            -9.254620            0.347593
| 68>   H                      -1.189588            -11.109790           -0.845956
| 69>   H                      -0.864345            -11.074299           0.771556
| 70>   H                      -2.283105            -12.055055           0.103385
| 71> *
| 72>
| 73>                          ****END OF INPUT****
 Total Charge           Charge          ....    0
 Multiplicity           Mult            ....    1
 Number of Electrons    NEL             ....   36
Dispersion correction           -0.001372533
FINAL SINGLE POINT ENERGY      -231.462972064017
Dispersion correction           -0.000240954
FINAL SINGLE POINT ENERGY      -115.732493638510

CARTESIAN COORDINATES (ANGSTROEM)
---------------------------------
  C     -0.014004   -8.914242    3.677463
  O     -0.243283   -7.666548    3.192443
  H     -0.330893   -7.706242    2.229205
  H      0.478737   -9.580093    2.996806
  H      0.624726   -8.936190    4.581951
  H     -0.910941   -9.473797    3.977538
  C     -1.692294  -11.103944    0.083471
  O     -2.566443  -10.003785    0.122804
  H     -2.003418   -9.254620    0.347593
  H     -1.189588  -11.109790   -0.845956
  H     -0.864345  -11.074299    0.771556
  H     -2.283105  -12.055055    0.103385

 Multiplicity           Mult            ....    1
 Number of Electrons    NEL             ....   18
 Basis Dimension        Dim             ....  172

ORBITAL ENERGIES
----------------

  NO   OCC          E(Eh)            E(eV)
   0   2.0000     -19.231777      -523.3233
   1   2.0000     -10.308355      -280.5046
   2   2.0000      -1.140697       -31.0399
   3   2.0000      -0.796501       -21.6739
   4   2.0000      -0.618764       -16.8374
   5   2.0000      -0.536533       -14.5998
   6   2.0000      -0.525917       -14.3109
   7   2.0000      -0.444881       -12.1058
   8   2.0000      -0.369517       -10.0551
   9   0.0000       0.070707         1.9240
  10   0.0000       0.126369         3.4387
  11   0.0000       0.147010         4.0003
  12   0.0000       0.175404         4.7730
  13   0.0000       0.183777         5.0008

MULLIKEN ATOMIC CHARGES
-----------------------
   0 C :   -0.000449
   1 O :    0.000212
   2 H :   -0.000527
   3 H :   -0.000237
   4 H :    0.000047
   5 H :    0.000011
   6 C :   -0.170539
   7 O :   -0.464616
   8 H :    0.312267
   9 H :    0.104088
  10 H :    0.103487
  11 H :    0.116256
Sum of atomic charges:    0.0000000

LOEWDIN ATOMIC CHARGES
----------------------
   0 C :   -0.000773
   1 O :   -0.000053
   2 H :   -0.000822
   3 H :   -0.000836
   4 H :   -0.000021
   5 H :   -0.000109
   6 C :   -0.393647
   7 O :   -0.070134
   8 H :    0.173191
   9 H :    0.087279
  10 H :    0.090945
  11 H :    0.114980

  Mayer bond orders larger than 0.1
B(  6-C ,  7-O ) :   0.9995 B(  6-C ,  9-H ) :   0.9819 B(  6-C , 10-H ) :   0.9741
B(  6-C , 11-H ) :   0.9749 B(  7-O ,  8-H ) :   0.9031

Dispersion correction           -0.000224209
FINAL SINGLE POINT ENERGY      -115.731337190163

DIPOLE MOMENT
-------------
                                X             Y             Z
Electronic contribution:     -1.27277       1.35085       0.14388
Nuclear contribution   :      1.98289      -1.29757      -0.03842
                        -----------------------------------------
Total Dipole Moment    :      0.71011       0.05328       0.10546
                        -----------------------------------------
Magnitude (a.u.)       :      0.71988
Magnitude (Debye)      :      1.82978

Rotational constants in cm-1:     4.348497     0.852191     0.803089
Rotational constants in MHz : 130364.659118 25548.036986 24075.988840

                             ****ORCA TERMINATED NORMALLY****
TOTAL RUN TIME: 0 days 0 hours 1 minutes 11 seconds 618 msec
