                         Program Version 4.1.2  - RELEASE  -
|  1> #Run DFT-D3 single point of the dimer
|  2> ! wB97X-D3 def2-TZVP TIGHTSCF CHELPG PMODEL PAL8
|  3>
|  4> %base "7-77_DFT_AB"
|  5>
|  6> %scf
|  7> MaxIter 1000
|  8> end
|  9>
| 10> * xyz 0 1
| 11>   C                      7.285926             0.821066             2.316241
| 12>   O                      7.532912             0.471736             1.007627
| 13>   H                      8.045949             -0.406475            0.930814
| 14>   H                      7.486048             -0.087081            3.004934
| 15>   H                      7.841240             1.695538             2.765298
| 16>   H                      6.188296             0.937388             2.320612
| 17>   C                      4.789831             4.842195             4.673636
| 18>   O                      4.834256             4.522513             3.376665
| 19>   H                      5.779525             4.363818             3.227645
| 20>   H                      3.778847             5.077454             4.981349
| 21>   H                      5.025754             4.006608             5.322962
| 22>   H                      5.505143             5.687903             4.910589
| 23> *
| 24>
| 25> #Run DFT-D3 single point of the molecule with dimer basis set
| 26> $new_job
| 27> %base "7-77_DFT_A"
| 28> ! wB97X-D3 def2-TZVP TIGHTSCF CHELPG PMODEL
| 29>
| 30> %scf
| 31> MaxIter 1000
| 32> end
| 33>
| 34> * xyz 0 1
| 35>   C                      7.285926             0.821066             2.316241
| 36>   O                      7.532912             0.471736             1.007627
| 37>   H                      8.045949             -0.406475            0.930814
| 38>   H                      7.486048             -0.087081            3.004934
| 39>   H                      7.841240             1.695538             2.765298
| 40>   H                      6.188296             0.937388             2.320612
| 41>   C                    : 4.789831             4.842195             4.673636
| 42>   O                    : 4.834256             4.522513             3.376665
| 43>   H                    : 5.779525             4.363818             3.227645
| 44>   H                    : 3.778847             5.077454             4.981349
| 45>   H                    : 5.025754             4.006608             5.322962
| 46>   H                    : 5.505143             5.687903             4.910589
| 47> *
| 48>
| 49> #Run DFT-D3 single point of the particle with dimer basis set
| 50> $new_job
| 51> %base "7-77_DFT_B"
| 52> ! wB97X-D3 def2-TZVP TIGHTSCF CHELPG PMODEL
| 53>
| 54> %scf
| 55> MaxIter 1000
| 56> end
| 57>
| 58> * xyz 0 1
| 59>   C                    : 7.285926             0.821066             2.316241
| 60>   O                    : 7.532912             0.471736             1.007627
| 61>   H                    : 8.045949             -0.406475            0.930814
| 62>   H                    : 7.486048             -0.087081            3.004934
| 63>   H                    : 7.841240             1.695538             2.765298
| 64>   H                    : 6.188296             0.937388             2.320612
| 65>   C                      4.789831             4.842195             4.673636
| 66>   O                      4.834256             4.522513             3.376665
| 67>   H                      5.779525             4.363818             3.227645
| 68>   H                      3.778847             5.077454             4.981349
| 69>   H                      5.025754             4.006608             5.322962
| 70>   H                      5.505143             5.687903             4.910589
| 71> *
| 72>
| 73>                          ****END OF INPUT****
 Total Charge           Charge          ....    0
 Multiplicity           Mult            ....    1
 Number of Electrons    NEL             ....   36
Dispersion correction           -0.000863985
FINAL SINGLE POINT ENERGY      -231.453369130481
Dispersion correction           -0.000256815
FINAL SINGLE POINT ENERGY      -115.723442127548

CARTESIAN COORDINATES (ANGSTROEM)
---------------------------------
  C      7.285926    0.821066    2.316241
  O      7.532912    0.471736    1.007627
  H      8.045949   -0.406475    0.930814
  H      7.486048   -0.087081    3.004934
  H      7.841240    1.695538    2.765298
  H      6.188296    0.937388    2.320612
  C      4.789831    4.842195    4.673636
  O      4.834256    4.522513    3.376665
  H      5.779525    4.363818    3.227645
  H      3.778847    5.077454    4.981349
  H      5.025754    4.006608    5.322962
  H      5.505143    5.687903    4.910589

 Multiplicity           Mult            ....    1
 Number of Electrons    NEL             ....   18
 Basis Dimension        Dim             ....  172

ORBITAL ENERGIES
----------------

  NO   OCC          E(Eh)            E(eV)
   0   2.0000     -19.233878      -523.3804
   1   2.0000     -10.307977      -280.4943
   2   2.0000      -1.166496       -31.7420
   3   2.0000      -0.788429       -21.4542
   4   2.0000      -0.624445       -16.9920
   5   2.0000      -0.554112       -15.0781
   6   2.0000      -0.537432       -14.6243
   7   2.0000      -0.431937       -11.7536
   8   2.0000      -0.368668       -10.0320
   9   0.0000       0.078751         2.1429
  10   0.0000       0.115384         3.1398
  11   0.0000       0.155087         4.2201
  12   0.0000       0.173586         4.7235
  13   0.0000       0.195534         5.3208

MULLIKEN ATOMIC CHARGES
-----------------------
   0 C :    0.000168
   1 O :   -0.000027
   2 H :   -0.000005
   3 H :   -0.000068
   4 H :   -0.000200
   5 H :   -0.001243
   6 C :   -0.157315
   7 O :   -0.443865
   8 H :    0.320189
   9 H :    0.107257
  10 H :    0.090053
  11 H :    0.085056
Sum of atomic charges:    0.0000000

LOEWDIN ATOMIC CHARGES
----------------------
   0 C :   -0.000570
   1 O :   -0.000009
   2 H :   -0.000003
   3 H :   -0.000004
   4 H :   -0.000237
   5 H :   -0.000508
   6 C :   -0.456733
   7 O :   -0.018165
   8 H :    0.187078
   9 H :    0.104412
  10 H :    0.087736
  11 H :    0.097004

  Mayer bond orders larger than 0.1
B(  6-C ,  7-O ) :   1.0157 B(  6-C ,  9-H ) :   0.9739 B(  6-C , 10-H ) :   0.9743
B(  6-C , 11-H ) :   0.9848 B(  7-O ,  8-H ) :   0.8952

Dispersion correction           -0.000198086
FINAL SINGLE POINT ENERGY      -115.729576876601

DIPOLE MOMENT
-------------
                                X             Y             Z
Electronic contribution:     -0.13309      -0.41278      -1.87347
Nuclear contribution   :      0.67932       0.40567       2.21408
                        -----------------------------------------
Total Dipole Moment    :      0.54623      -0.00712       0.34061
                        -----------------------------------------
Magnitude (a.u.)       :      0.64376
Magnitude (Debye)      :      1.63632

Rotational constants in cm-1:     4.228231     0.916407     0.875575
Rotational constants in MHz : 126759.183605 27473.202489 26249.068342

                             ****ORCA TERMINATED NORMALLY****
TOTAL RUN TIME: 0 days 0 hours 1 minutes 1 seconds 776 msec
