                         Program Version 4.1.2  - RELEASE  -
|  1> #Run DFT-D3 single point of the dimer
|  2> ! wB97X-D3 def2-TZVP TIGHTSCF CHELPG PMODEL PAL8
|  3>
|  4> %base "12-3_DFT_AB"
|  5>
|  6> %scf
|  7> MaxIter 1000
|  8> end
|  9>
| 10> * xyz 0 1
| 11>   C                      -3.318311            -0.619609            -4.975786
| 12>   O                      -2.848868            -0.188945            -3.711665
| 13>   H                      -2.709265            0.711760             -3.772373
| 14>   H                      -2.662649            -0.195860            -5.703031
| 15>   H                      -3.228268            -1.702189            -5.124246
| 16>   H                      -4.392851            -0.308560            -5.145854
| 17>   C                      -0.727275            1.563052             -0.967298
| 18>   O                      0.096966             0.363734             -0.938946
| 19>   H                      0.008853             -0.073685            -1.808591
| 20>   H                      -1.797823            1.336049             -1.111129
| 21>   H                      -0.641607            2.169287             -0.038777
| 22>   H                      -0.399857            2.277220             -1.734787
| 23> *
| 24>
| 25> #Run DFT-D3 single point of the molecule with dimer basis set
| 26> $new_job
| 27> %base "12-3_DFT_A"
| 28> ! wB97X-D3 def2-TZVP TIGHTSCF CHELPG PMODEL
| 29>
| 30> %scf
| 31> MaxIter 1000
| 32> end
| 33>
| 34> * xyz 0 1
| 35>   C                      -3.318311            -0.619609            -4.975786
| 36>   O                      -2.848868            -0.188945            -3.711665
| 37>   H                      -2.709265            0.711760             -3.772373
| 38>   H                      -2.662649            -0.195860            -5.703031
| 39>   H                      -3.228268            -1.702189            -5.124246
| 40>   H                      -4.392851            -0.308560            -5.145854
| 41>   C                    : -0.727275            1.563052             -0.967298
| 42>   O                    : 0.096966             0.363734             -0.938946
| 43>   H                    : 0.008853             -0.073685            -1.808591
| 44>   H                    : -1.797823            1.336049             -1.111129
| 45>   H                    : -0.641607            2.169287             -0.038777
| 46>   H                    : -0.399857            2.277220             -1.734787
| 47> *
| 48>
| 49> #Run DFT-D3 single point of the particle with dimer basis set
| 50> $new_job
| 51> %base "12-3_DFT_B"
| 52> ! wB97X-D3 def2-TZVP TIGHTSCF CHELPG PMODEL
| 53>
| 54> %scf
| 55> MaxIter 1000
| 56> end
| 57>
| 58> * xyz 0 1
| 59>   C                    : -3.318311            -0.619609            -4.975786
| 60>   O                    : -2.848868            -0.188945            -3.711665
| 61>   H                    : -2.709265            0.711760             -3.772373
| 62>   H                    : -2.662649            -0.195860            -5.703031
| 63>   H                    : -3.228268            -1.702189            -5.124246
| 64>   H                    : -4.392851            -0.308560            -5.145854
| 65>   C                      -0.727275            1.563052             -0.967298
| 66>   O                      0.096966             0.363734             -0.938946
| 67>   H                      0.008853             -0.073685            -1.808591
| 68>   H                      -1.797823            1.336049             -1.111129
| 69>   H                      -0.641607            2.169287             -0.038777
| 70>   H                      -0.399857            2.277220             -1.734787
| 71> *
| 72>
| 73>                          ****END OF INPUT****
 Total Charge           Charge          ....    0
 Multiplicity           Mult            ....    1
 Number of Electrons    NEL             ....   36
Dispersion correction           -0.001309229
FINAL SINGLE POINT ENERGY      -231.467268900466
Dispersion correction           -0.000229502
FINAL SINGLE POINT ENERGY      -115.731784630205

CARTESIAN COORDINATES (ANGSTROEM)
---------------------------------
  C     -3.318311   -0.619609   -4.975786
  O     -2.848868   -0.188945   -3.711665
  H     -2.709265    0.711760   -3.772373
  H     -2.662649   -0.195860   -5.703031
  H     -3.228268   -1.702189   -5.124246
  H     -4.392851   -0.308560   -5.145854
  C     -0.727275    1.563052   -0.967298
  O      0.096966    0.363734   -0.938946
  H      0.008853   -0.073685   -1.808591
  H     -1.797823    1.336049   -1.111129
  H     -0.641607    2.169287   -0.038777
  H     -0.399857    2.277220   -1.734787

 Multiplicity           Mult            ....    1
 Number of Electrons    NEL             ....   18
 Basis Dimension        Dim             ....  172

ORBITAL ENERGIES
----------------

  NO   OCC          E(Eh)            E(eV)
   0   2.0000     -19.233806      -523.3785
   1   2.0000     -10.320163      -280.8259
   2   2.0000      -1.121395       -30.5147
   3   2.0000      -0.794506       -21.6196
   4   2.0000      -0.599922       -16.3247
   5   2.0000      -0.538396       -14.6505
   6   2.0000      -0.520225       -14.1560
   7   2.0000      -0.432763       -11.7761
   8   2.0000      -0.376646       -10.2491
   9   0.0000       0.076119         2.0713
  10   0.0000       0.115178         3.1341
  11   0.0000       0.143079         3.8934
  12   0.0000       0.177685         4.8351
  13   0.0000       0.189783         5.1643

MULLIKEN ATOMIC CHARGES
-----------------------
   0 C :    0.000036
   1 O :    0.000143
   2 H :   -0.000303
   3 H :    0.000002
   4 H :    0.000002
   5 H :   -0.000008
   6 C :   -0.185926
   7 O :   -0.479741
   8 H :    0.316843
   9 H :    0.111518
  10 H :    0.127362
  11 H :    0.110072
Sum of atomic charges:   -0.0000000

LOEWDIN ATOMIC CHARGES
----------------------
   0 C :   -0.000047
   1 O :   -0.000646
   2 H :   -0.001155
   3 H :   -0.000001
   4 H :   -0.000001
   5 H :   -0.000001
   6 C :   -0.367699
   7 O :   -0.113504
   8 H :    0.176387
   9 H :    0.097144
  10 H :    0.112906
  11 H :    0.096617

  Mayer bond orders larger than 0.1
B(  6-C ,  7-O ) :   0.9957 B(  6-C ,  9-H ) :   0.9718 B(  6-C , 10-H ) :   0.9718
B(  6-C , 11-H ) :   0.9741 B(  7-O ,  8-H ) :   0.8969

Dispersion correction           -0.000273636
FINAL SINGLE POINT ENERGY      -115.733715054183

DIPOLE MOMENT
-------------
                                X             Y             Z
Electronic contribution:      1.08359      -1.55423       0.17737
Nuclear contribution   :     -1.47386       1.79302      -0.72839
                        -----------------------------------------
Total Dipole Moment    :     -0.39027       0.23879      -0.55102
                        -----------------------------------------
Magnitude (a.u.)       :      0.71621
Magnitude (Debye)      :      1.82045

Rotational constants in cm-1:     4.281722     0.781134     0.757064
Rotational constants in MHz : 128362.803249 23417.810073 22696.210214

                             ****ORCA TERMINATED NORMALLY****
TOTAL RUN TIME: 0 days 0 hours 1 minutes 10 seconds 90 msec
