                         Program Version 4.1.2  - RELEASE  -
|  1> #Run DFT-D3 single point of the dimer
|  2> ! wB97X-D3 def2-TZVP TIGHTSCF CHELPG PMODEL PAL8
|  3>
|  4> %base "22-172_DFT_AB"
|  5>
|  6> %scf
|  7> MaxIter 1000
|  8> end
|  9>
| 10> * xyz 0 1
| 11>   C                      -2.118689            0.321967             -9.233789
| 12>   O                      -0.686353            0.207449             -9.084393
| 13>   H                      -0.339038            -0.012212            -9.988232
| 14>   H                      -2.415583            0.895879             -10.122930
| 15>   H                      -2.525093            -0.664378            -9.362829
| 16>   H                      -2.652580            0.790706             -8.397814
| 17>   C                      1.442386             -2.274042            -9.890710
| 18>   O                      0.592274             -2.089816            -8.804962
| 19>   H                      0.747935             -1.204462            -8.573068
| 20>   H                      1.681016             -1.319483            -10.309592
| 21>   H                      2.439277             -2.726638            -9.619208
| 22>   H                      0.897639             -2.841825            -10.695493
| 23> *
| 24>
| 25> #Run DFT-D3 single point of the molecule with dimer basis set
| 26> $new_job
| 27> %base "22-172_DFT_A"
| 28> ! wB97X-D3 def2-TZVP TIGHTSCF CHELPG PMODEL
| 29>
| 30> %scf
| 31> MaxIter 1000
| 32> end
| 33>
| 34> * xyz 0 1
| 35>   C                      -2.118689            0.321967             -9.233789
| 36>   O                      -0.686353            0.207449             -9.084393
| 37>   H                      -0.339038            -0.012212            -9.988232
| 38>   H                      -2.415583            0.895879             -10.122930
| 39>   H                      -2.525093            -0.664378            -9.362829
| 40>   H                      -2.652580            0.790706             -8.397814
| 41>   C                    : 1.442386             -2.274042            -9.890710
| 42>   O                    : 0.592274             -2.089816            -8.804962
| 43>   H                    : 0.747935             -1.204462            -8.573068
| 44>   H                    : 1.681016             -1.319483            -10.309592
| 45>   H                    : 2.439277             -2.726638            -9.619208
| 46>   H                    : 0.897639             -2.841825            -10.695493
| 47> *
| 48>
| 49> #Run DFT-D3 single point of the particle with dimer basis set
| 50> $new_job
| 51> %base "22-172_DFT_B"
| 52> ! wB97X-D3 def2-TZVP TIGHTSCF CHELPG PMODEL
| 53>
| 54> %scf
| 55> MaxIter 1000
| 56> end
| 57>
| 58> * xyz 0 1
| 59>   C                    : -2.118689            0.321967             -9.233789
| 60>   O                    : -0.686353            0.207449             -9.084393
| 61>   H                    : -0.339038            -0.012212            -9.988232
| 62>   H                    : -2.415583            0.895879             -10.122930
| 63>   H                    : -2.525093            -0.664378            -9.362829
| 64>   H                    : -2.652580            0.790706             -8.397814
| 65>   C                      1.442386             -2.274042            -9.890710
| 66>   O                      0.592274             -2.089816            -8.804962
| 67>   H                      0.747935             -1.204462            -8.573068
| 68>   H                      1.681016             -1.319483            -10.309592
| 69>   H                      2.439277             -2.726638            -9.619208
| 70>   H                      0.897639             -2.841825            -10.695493
| 71> *
| 72>
| 73>                          ****END OF INPUT****
 Total Charge           Charge          ....    0
 Multiplicity           Mult            ....    1
 Number of Electrons    NEL             ....   36
Dispersion correction           -0.001826393
FINAL SINGLE POINT ENERGY      -231.463136119910
Dispersion correction           -0.000250475
FINAL SINGLE POINT ENERGY      -115.732917873706

CARTESIAN COORDINATES (ANGSTROEM)
---------------------------------
  C     -2.118689    0.321967   -9.233789
  O     -0.686353    0.207449   -9.084393
  H     -0.339038   -0.012212   -9.988232
  H     -2.415583    0.895879  -10.122930
  H     -2.525093   -0.664378   -9.362829
  H     -2.652580    0.790706   -8.397814
  C      1.442386   -2.274042   -9.890710
  O      0.592274   -2.089816   -8.804962
  H      0.747935   -1.204462   -8.573068
  H      1.681016   -1.319483  -10.309592
  H      2.439277   -2.726638   -9.619208
  H      0.897639   -2.841825  -10.695493

 Multiplicity           Mult            ....    1
 Number of Electrons    NEL             ....   18
 Basis Dimension        Dim             ....  172

ORBITAL ENERGIES
----------------

  NO   OCC          E(Eh)            E(eV)
   0   2.0000     -19.230675      -523.2933
   1   2.0000     -10.316519      -280.7268
   2   2.0000      -1.155956       -31.4552
   3   2.0000      -0.791779       -21.5454
   4   2.0000      -0.624116       -16.9830
   5   2.0000      -0.544618       -14.8198
   6   2.0000      -0.526885       -14.3373
   7   2.0000      -0.437164       -11.8958
   8   2.0000      -0.375962       -10.2304
   9   0.0000       0.083227         2.2647
  10   0.0000       0.126013         3.4290
  11   0.0000       0.153693         4.1822
  12   0.0000       0.180547         4.9129
  13   0.0000       0.190466         5.1829

MULLIKEN ATOMIC CHARGES
-----------------------
   0 C :   -0.002188
   1 O :   -0.007643
   2 H :   -0.001525
   3 H :    0.000013
   4 H :   -0.002157
   5 H :    0.000105
   6 C :   -0.169137
   7 O :   -0.441544
   8 H :    0.310667
   9 H :    0.099044
  10 H :    0.101618
  11 H :    0.112747
Sum of atomic charges:   -0.0000000

LOEWDIN ATOMIC CHARGES
----------------------
   0 C :   -0.004183
   1 O :   -0.022065
   2 H :   -0.008202
   3 H :   -0.000057
   4 H :   -0.001201
   5 H :   -0.000068
   6 C :   -0.403884
   7 O :   -0.022168
   8 H :    0.158384
   9 H :    0.090169
  10 H :    0.101476
  11 H :    0.111800

  Mayer bond orders larger than 0.1
B(  6-C ,  7-O ) :   1.0038 B(  6-C ,  9-H ) :   0.9909 B(  6-C , 10-H ) :   0.9706
B(  6-C , 11-H ) :   0.9753 B(  7-O ,  8-H ) :   0.9097

Dispersion correction           -0.000225630
FINAL SINGLE POINT ENERGY      -115.731118360951

DIPOLE MOMENT
-------------
                                X             Y             Z
Electronic contribution:     -1.16991       0.04776       1.45716
Nuclear contribution   :      1.58361       0.47890      -1.72684
                        -----------------------------------------
Total Dipole Moment    :      0.41371       0.52667      -0.26968
                        -----------------------------------------
Magnitude (a.u.)       :      0.72198
Magnitude (Debye)      :      1.83513

Rotational constants in cm-1:     4.212356     0.856371     0.831468
Rotational constants in MHz : 126283.269012 25673.355546 24926.772506

                             ****ORCA TERMINATED NORMALLY****
TOTAL RUN TIME: 0 days 0 hours 1 minutes 8 seconds 795 msec
