                         Program Version 4.1.2  - RELEASE  -
|  1> #Run DFT-D3 single point of the dimer
|  2> ! wB97X-D3 def2-TZVP TIGHTSCF CHELPG PMODEL PAL8
|  3>
|  4> %base "13-126_DFT_AB"
|  5>
|  6> %scf
|  7> MaxIter 1000
|  8> end
|  9>
| 10> * xyz 0 1
| 11>   C                      -4.441860            0.252273             -10.388572
| 12>   O                      -5.831980            0.272758             -10.110588
| 13>   H                      -6.199616            0.251479             -11.006176
| 14>   H                      -4.139284            1.101493             -11.007962
| 15>   H                      -3.881177            0.211888             -9.421861
| 16>   H                      -4.225145            -0.703041            -10.844103
| 17>   C                      -5.327028            -3.737644            -10.916953
| 18>   O                      -6.686805            -3.922386            -10.764566
| 19>   H                      -7.035594            -3.516897            -9.995624
| 20>   H                      -4.830893            -4.641144            -11.129134
| 21>   H                      -5.065660            -3.079523            -11.746128
| 22>   H                      -4.908711            -3.149937            -10.049908
| 23> *
| 24>
| 25> #Run DFT-D3 single point of the molecule with dimer basis set
| 26> $new_job
| 27> %base "13-126_DFT_A"
| 28> ! wB97X-D3 def2-TZVP TIGHTSCF CHELPG PMODEL
| 29>
| 30> %scf
| 31> MaxIter 1000
| 32> end
| 33>
| 34> * xyz 0 1
| 35>   C                      -4.441860            0.252273             -10.388572
| 36>   O                      -5.831980            0.272758             -10.110588
| 37>   H                      -6.199616            0.251479             -11.006176
| 38>   H                      -4.139284            1.101493             -11.007962
| 39>   H                      -3.881177            0.211888             -9.421861
| 40>   H                      -4.225145            -0.703041            -10.844103
| 41>   C                    : -5.327028            -3.737644            -10.916953
| 42>   O                    : -6.686805            -3.922386            -10.764566
| 43>   H                    : -7.035594            -3.516897            -9.995624
| 44>   H                    : -4.830893            -4.641144            -11.129134
| 45>   H                    : -5.065660            -3.079523            -11.746128
| 46>   H                    : -4.908711            -3.149937            -10.049908
| 47> *
| 48>
| 49> #Run DFT-D3 single point of the particle with dimer basis set
| 50> $new_job
| 51> %base "13-126_DFT_B"
| 52> ! wB97X-D3 def2-TZVP TIGHTSCF CHELPG PMODEL
| 53>
| 54> %scf
| 55> MaxIter 1000
| 56> end
| 57>
| 58> * xyz 0 1
| 59>   C                    : -4.441860            0.252273             -10.388572
| 60>   O                    : -5.831980            0.272758             -10.110588
| 61>   H                    : -6.199616            0.251479             -11.006176
| 62>   H                    : -4.139284            1.101493             -11.007962
| 63>   H                    : -3.881177            0.211888             -9.421861
| 64>   H                    : -4.225145            -0.703041            -10.844103
| 65>   C                      -5.327028            -3.737644            -10.916953
| 66>   O                      -6.686805            -3.922386            -10.764566
| 67>   H                      -7.035594            -3.516897            -9.995624
| 68>   H                      -4.830893            -4.641144            -11.129134
| 69>   H                      -5.065660            -3.079523            -11.746128
| 70>   H                      -4.908711            -3.149937            -10.049908
| 71> *
| 72>
| 73>                          ****END OF INPUT****
 Total Charge           Charge          ....    0
 Multiplicity           Mult            ....    1
 Number of Electrons    NEL             ....   36
Dispersion correction           -0.001579065
FINAL SINGLE POINT ENERGY      -231.465906258636
Dispersion correction           -0.000213209
FINAL SINGLE POINT ENERGY      -115.733683141120

CARTESIAN COORDINATES (ANGSTROEM)
---------------------------------
  C     -4.441860    0.252273  -10.388572
  O     -5.831980    0.272758  -10.110588
  H     -6.199616    0.251479  -11.006176
  H     -4.139284    1.101493  -11.007962
  H     -3.881177    0.211888   -9.421861
  H     -4.225145   -0.703041  -10.844103
  C     -5.327028   -3.737644  -10.916953
  O     -6.686805   -3.922386  -10.764566
  H     -7.035594   -3.516897   -9.995624
  H     -4.830893   -4.641144  -11.129134
  H     -5.065660   -3.079523  -11.746128
  H     -4.908711   -3.149937  -10.049908

 Multiplicity           Mult            ....    1
 Number of Electrons    NEL             ....   18
 Basis Dimension        Dim             ....  172

ORBITAL ENERGIES
----------------

  NO   OCC          E(Eh)            E(eV)
   0   2.0000     -19.226078      -523.1682
   1   2.0000     -10.309547      -280.5370
   2   2.0000      -1.147655       -31.2293
   3   2.0000      -0.801745       -21.8166
   4   2.0000      -0.621899       -16.9227
   5   2.0000      -0.548669       -14.9301
   6   2.0000      -0.532872       -14.5002
   7   2.0000      -0.425235       -11.5712
   8   2.0000      -0.370020       -10.0688
   9   0.0000       0.080431         2.1886
  10   0.0000       0.121092         3.2951
  11   0.0000       0.153554         4.1784
  12   0.0000       0.163322         4.4442
  13   0.0000       0.189488         5.1562

MULLIKEN ATOMIC CHARGES
-----------------------
   0 C :    0.003720
   1 O :    0.000114
   2 H :   -0.000057
   3 H :   -0.000167
   4 H :   -0.000424
   5 H :   -0.006203
   6 C :   -0.153873
   7 O :   -0.474384
   8 H :    0.319780
   9 H :    0.114030
  10 H :    0.100837
  11 H :    0.096627
Sum of atomic charges:   -0.0000000

LOEWDIN ATOMIC CHARGES
----------------------
   0 C :   -0.002037
   1 O :   -0.000104
   2 H :   -0.000129
   3 H :   -0.000013
   4 H :   -0.000104
   5 H :   -0.003642
   6 C :   -0.403022
   7 O :   -0.041860
   8 H :    0.156584
   9 H :    0.092801
  10 H :    0.096793
  11 H :    0.104732

  Mayer bond orders larger than 0.1
B(  6-C ,  7-O ) :   1.0137 B(  6-C ,  9-H ) :   0.9735 B(  6-C , 10-H ) :   0.9747
B(  6-C , 11-H ) :   0.9901 B(  7-O ,  8-H ) :   0.8986

Dispersion correction           -0.000243355
FINAL SINGLE POINT ENERGY      -115.730086900036

DIPOLE MOMENT
-------------
                                X             Y             Z
Electronic contribution:     -1.81125      -0.46023       0.12553
Nuclear contribution   :      2.10118       0.80632       0.32789
                        -----------------------------------------
Total Dipole Moment    :      0.28993       0.34610       0.45341
                        -----------------------------------------
Magnitude (a.u.)       :      0.63986
Magnitude (Debye)      :      1.62640

Rotational constants in cm-1:     4.483932     0.860810     0.820894
Rotational constants in MHz : 134424.904482 25806.448834 24609.768351

                             ****ORCA TERMINATED NORMALLY****
TOTAL RUN TIME: 0 days 0 hours 1 minutes 1 seconds 962 msec
