                         Program Version 4.1.2  - RELEASE  -
|  1> #Run DFT-D3 single point of the dimer
|  2> ! wB97X-D3 def2-TZVP TIGHTSCF CHELPG PMODEL PAL8
|  3>
|  4> %base "22-87_DFT_AB"
|  5>
|  6> %scf
|  7> MaxIter 1000
|  8> end
|  9>
| 10> * xyz 0 1
| 11>   C                      2.808889             0.844054             -8.414163
| 12>   O                      2.751306             -0.322919            -7.643315
| 13>   H                      2.321928             -0.062151            -6.767259
| 14>   H                      3.391022             0.885911             -9.374107
| 15>   H                      1.750066             0.987597             -8.760820
| 16>   H                      3.044555             1.683032             -7.747926
| 17>   C                      -2.118689            0.321967             -9.233789
| 18>   O                      -0.686353            0.207449             -9.084393
| 19>   H                      -0.339038            -0.012212            -9.988232
| 20>   H                      -2.415583            0.895879             -10.122930
| 21>   H                      -2.525093            -0.664378            -9.362829
| 22>   H                      -2.652580            0.790706             -8.397814
| 23> *
| 24>
| 25> #Run DFT-D3 single point of the molecule with dimer basis set
| 26> $new_job
| 27> %base "22-87_DFT_A"
| 28> ! wB97X-D3 def2-TZVP TIGHTSCF CHELPG PMODEL
| 29>
| 30> %scf
| 31> MaxIter 1000
| 32> end
| 33>
| 34> * xyz 0 1
| 35>   C                      2.808889             0.844054             -8.414163
| 36>   O                      2.751306             -0.322919            -7.643315
| 37>   H                      2.321928             -0.062151            -6.767259
| 38>   H                      3.391022             0.885911             -9.374107
| 39>   H                      1.750066             0.987597             -8.760820
| 40>   H                      3.044555             1.683032             -7.747926
| 41>   C                    : -2.118689            0.321967             -9.233789
| 42>   O                    : -0.686353            0.207449             -9.084393
| 43>   H                    : -0.339038            -0.012212            -9.988232
| 44>   H                    : -2.415583            0.895879             -10.122930
| 45>   H                    : -2.525093            -0.664378            -9.362829
| 46>   H                    : -2.652580            0.790706             -8.397814
| 47> *
| 48>
| 49> #Run DFT-D3 single point of the particle with dimer basis set
| 50> $new_job
| 51> %base "22-87_DFT_B"
| 52> ! wB97X-D3 def2-TZVP TIGHTSCF CHELPG PMODEL
| 53>
| 54> %scf
| 55> MaxIter 1000
| 56> end
| 57>
| 58> * xyz 0 1
| 59>   C                    : 2.808889             0.844054             -8.414163
| 60>   O                    : 2.751306             -0.322919            -7.643315
| 61>   H                    : 2.321928             -0.062151            -6.767259
| 62>   H                    : 3.391022             0.885911             -9.374107
| 63>   H                    : 1.750066             0.987597             -8.760820
| 64>   H                    : 3.044555             1.683032             -7.747926
| 65>   C                      -2.118689            0.321967             -9.233789
| 66>   O                      -0.686353            0.207449             -9.084393
| 67>   H                      -0.339038            -0.012212            -9.988232
| 68>   H                      -2.415583            0.895879             -10.122930
| 69>   H                      -2.525093            -0.664378            -9.362829
| 70>   H                      -2.652580            0.790706             -8.397814
| 71> *
| 72>
| 73>                          ****END OF INPUT****
 Total Charge           Charge          ....    0
 Multiplicity           Mult            ....    1
 Number of Electrons    NEL             ....   36
Dispersion correction           -0.001317643
FINAL SINGLE POINT ENERGY      -231.457701298948
Dispersion correction           -0.000226306
FINAL SINGLE POINT ENERGY      -115.723832483561

CARTESIAN COORDINATES (ANGSTROEM)
---------------------------------
  C      2.808889    0.844054   -8.414163
  O      2.751306   -0.322919   -7.643315
  H      2.321928   -0.062151   -6.767259
  H      3.391022    0.885911   -9.374107
  H      1.750066    0.987597   -8.760820
  H      3.044555    1.683032   -7.747926
  C     -2.118689    0.321967   -9.233789
  O     -0.686353    0.207449   -9.084393
  H     -0.339038   -0.012212   -9.988232
  H     -2.415583    0.895879  -10.122930
  H     -2.525093   -0.664378   -9.362829
  H     -2.652580    0.790706   -8.397814

 Multiplicity           Mult            ....    1
 Number of Electrons    NEL             ....   18
 Basis Dimension        Dim             ....  172

ORBITAL ENERGIES
----------------

  NO   OCC          E(Eh)            E(eV)
   0   2.0000     -19.235191      -523.4161
   1   2.0000     -10.314709      -280.6775
   2   2.0000      -1.122990       -30.5581
   3   2.0000      -0.795705       -21.6522
   4   2.0000      -0.601263       -16.3612
   5   2.0000      -0.539629       -14.6840
   6   2.0000      -0.525557       -14.3011
   7   2.0000      -0.436202       -11.8697
   8   2.0000      -0.374119       -10.1803
   9   0.0000       0.094426         2.5695
  10   0.0000       0.120323         3.2742
  11   0.0000       0.150582         4.0975
  12   0.0000       0.174076         4.7369
  13   0.0000       0.199697         5.4340

MULLIKEN ATOMIC CHARGES
-----------------------
   0 C :    0.006756
   1 O :   -0.000334
   2 H :   -0.000511
   3 H :   -0.000178
   4 H :   -0.015401
   5 H :   -0.000368
   6 C :   -0.184219
   7 O :   -0.465996
   8 H :    0.319636
   9 H :    0.106193
  10 H :    0.108612
  11 H :    0.125811
Sum of atomic charges:    0.0000000

LOEWDIN ATOMIC CHARGES
----------------------
   0 C :   -0.003316
   1 O :   -0.000278
   2 H :   -0.000321
   3 H :   -0.000022
   4 H :   -0.010412
   5 H :   -0.000026
   6 C :   -0.369312
   7 O :   -0.103953
   8 H :    0.189793
   9 H :    0.096450
  10 H :    0.092204
  11 H :    0.109193

  Mayer bond orders larger than 0.1
B(  6-C ,  7-O ) :   0.9933 B(  6-C ,  9-H ) :   0.9768 B(  6-C , 10-H ) :   0.9768
B(  6-C , 11-H ) :   0.9722 B(  7-O ,  8-H ) :   0.8920

Dispersion correction           -0.000250475
FINAL SINGLE POINT ENERGY      -115.732567035542

DIPOLE MOMENT
-------------
                                X             Y             Z
Electronic contribution:      1.82958      -0.07838       0.42232
Nuclear contribution   :     -2.22864      -0.01403      -1.04656
                        -----------------------------------------
Total Dipole Moment    :     -0.39906      -0.09241      -0.62424
                        -----------------------------------------
Magnitude (a.u.)       :      0.74663
Magnitude (Debye)      :      1.89778

Rotational constants in cm-1:     4.327423     0.798761     0.767741
Rotational constants in MHz : 129732.870179 23946.259368 23016.300896

                             ****ORCA TERMINATED NORMALLY****
TOTAL RUN TIME: 0 days 0 hours 0 minutes 57 seconds 546 msec
