                         Program Version 4.1.2  - RELEASE  -
|  1> #Run DFT-D3 single point of the dimer
|  2> ! wB97X-D3 def2-TZVP TIGHTSCF CHELPG PMODEL PAL8
|  3>
|  4> %base "10-122_DFT_AB"
|  5>
|  6> %scf
|  7> MaxIter 1000
|  8> end
|  9>
| 10> * xyz 0 1
| 11>   C                      -2.543772            11.097149            -5.925851
| 12>   O                      -3.388210            10.718351            -4.863969
| 13>   H                      -2.857181            10.590265            -4.086998
| 14>   H                      -3.183957            11.399977            -6.794502
| 15>   H                      -2.030645            11.987127            -5.722639
| 16>   H                      -1.844225            10.332951            -6.223363
| 17>   C                      -6.288479            10.601294            -8.344791
| 18>   O                      -7.071195            9.587159             -7.758031
| 19>   H                      -7.987267            9.886105             -7.871034
| 20>   H                      -6.472828            11.539576            -7.794615
| 21>   H                      -5.195671            10.418681            -8.199799
| 22>   H                      -6.465789            10.708528            -9.434871
| 23> *
| 24>
| 25> #Run DFT-D3 single point of the molecule with dimer basis set
| 26> $new_job
| 27> %base "10-122_DFT_A"
| 28> ! wB97X-D3 def2-TZVP TIGHTSCF CHELPG PMODEL
| 29>
| 30> %scf
| 31> MaxIter 1000
| 32> end
| 33>
| 34> * xyz 0 1
| 35>   C                      -2.543772            11.097149            -5.925851
| 36>   O                      -3.388210            10.718351            -4.863969
| 37>   H                      -2.857181            10.590265            -4.086998
| 38>   H                      -3.183957            11.399977            -6.794502
| 39>   H                      -2.030645            11.987127            -5.722639
| 40>   H                      -1.844225            10.332951            -6.223363
| 41>   C                    : -6.288479            10.601294            -8.344791
| 42>   O                    : -7.071195            9.587159             -7.758031
| 43>   H                    : -7.987267            9.886105             -7.871034
| 44>   H                    : -6.472828            11.539576            -7.794615
| 45>   H                    : -5.195671            10.418681            -8.199799
| 46>   H                    : -6.465789            10.708528            -9.434871
| 47> *
| 48>
| 49> #Run DFT-D3 single point of the particle with dimer basis set
| 50> $new_job
| 51> %base "10-122_DFT_B"
| 52> ! wB97X-D3 def2-TZVP TIGHTSCF CHELPG PMODEL
| 53>
| 54> %scf
| 55> MaxIter 1000
| 56> end
| 57>
| 58> * xyz 0 1
| 59>   C                    : -2.543772            11.097149            -5.925851
| 60>   O                    : -3.388210            10.718351            -4.863969
| 61>   H                    : -2.857181            10.590265            -4.086998
| 62>   H                    : -3.183957            11.399977            -6.794502
| 63>   H                    : -2.030645            11.987127            -5.722639
| 64>   H                    : -1.844225            10.332951            -6.223363
| 65>   C                      -6.288479            10.601294            -8.344791
| 66>   O                      -7.071195            9.587159             -7.758031
| 67>   H                      -7.987267            9.886105             -7.871034
| 68>   H                      -6.472828            11.539576            -7.794615
| 69>   H                      -5.195671            10.418681            -8.199799
| 70>   H                      -6.465789            10.708528            -9.434871
| 71> *
| 72>
| 73>                          ****END OF INPUT****
 Total Charge           Charge          ....    0
 Multiplicity           Mult            ....    1
 Number of Electrons    NEL             ....   36
Dispersion correction           -0.001119040
FINAL SINGLE POINT ENERGY      -231.468955906046
Dispersion correction           -0.000235421
FINAL SINGLE POINT ENERGY      -115.734177263016

CARTESIAN COORDINATES (ANGSTROEM)
---------------------------------
  C     -2.543772   11.097149   -5.925851
  O     -3.388210   10.718351   -4.863969
  H     -2.857181   10.590265   -4.086998
  H     -3.183957   11.399977   -6.794502
  H     -2.030645   11.987127   -5.722639
  H     -1.844225   10.332951   -6.223363
  C     -6.288479   10.601294   -8.344791
  O     -7.071195    9.587159   -7.758031
  H     -7.987267    9.886105   -7.871034
  H     -6.472828   11.539576   -7.794615
  H     -5.195671   10.418681   -8.199799
  H     -6.465789   10.708528   -9.434871

 Multiplicity           Mult            ....    1
 Number of Electrons    NEL             ....   18
 Basis Dimension        Dim             ....  172

ORBITAL ENERGIES
----------------

  NO   OCC          E(Eh)            E(eV)
   0   2.0000     -19.231974      -523.3286
   1   2.0000     -10.317512      -280.7538
   2   2.0000      -1.138316       -30.9751
   3   2.0000      -0.789035       -21.4707
   4   2.0000      -0.606281       -16.4978
   5   2.0000      -0.546533       -14.8719
   6   2.0000      -0.526233       -14.3195
   7   2.0000      -0.430377       -11.7111
   8   2.0000      -0.374149       -10.1811
   9   0.0000       0.087169         2.3720
  10   0.0000       0.115055         3.1308
  11   0.0000       0.148275         4.0348
  12   0.0000       0.172907         4.7050
  13   0.0000       0.187445         5.1006

MULLIKEN ATOMIC CHARGES
-----------------------
   0 C :    0.000886
   1 O :   -0.000022
   2 H :    0.000002
   3 H :   -0.001542
   4 H :   -0.000046
   5 H :   -0.000112
   6 C :   -0.175702
   7 O :   -0.467852
   8 H :    0.316934
   9 H :    0.102393
  10 H :    0.121660
  11 H :    0.103399
Sum of atomic charges:    0.0000000

LOEWDIN ATOMIC CHARGES
----------------------
   0 C :   -0.001041
   1 O :   -0.000011
   2 H :   -0.000001
   3 H :   -0.002221
   4 H :   -0.000004
   5 H :   -0.000022
   6 C :   -0.400919
   7 O :   -0.079596
   8 H :    0.177380
   9 H :    0.096936
  10 H :    0.113215
  11 H :    0.096285

  Mayer bond orders larger than 0.1
B(  6-C ,  7-O ) :   1.0026 B(  6-C ,  9-H ) :   0.9827 B(  6-C , 10-H ) :   0.9711
B(  6-C , 11-H ) :   0.9685 B(  7-O ,  8-H ) :   0.8976

Dispersion correction           -0.000234037
FINAL SINGLE POINT ENERGY      -115.734867102520

DIPOLE MOMENT
-------------
                                X             Y             Z
Electronic contribution:     -0.92538      -1.43876       0.74710
Nuclear contribution   :      0.66771       2.01383      -1.03049
                        -----------------------------------------
Total Dipole Moment    :     -0.25767       0.57507      -0.28339
                        -----------------------------------------
Magnitude (a.u.)       :      0.69095
Magnitude (Debye)      :      1.75625

Rotational constants in cm-1:     4.166403     0.832485     0.807005
Rotational constants in MHz : 124905.612593 24957.281733 24193.400680

                             ****ORCA TERMINATED NORMALLY****
TOTAL RUN TIME: 0 days 0 hours 1 minutes 0 seconds 439 msec
