                         Program Version 4.1.2  - RELEASE  -
|  1> #Run DFT-D3 single point of the dimer
|  2> ! wB97X-D3 def2-TZVP TIGHTSCF CHELPG PMODEL PAL8
|  3>
|  4> %base "22-162_DFT_AB"
|  5>
|  6> %scf
|  7> MaxIter 1000
|  8> end
|  9>
| 10> * xyz 0 1
| 11>   C                      -8.533005            9.425008             2.244899
| 12>   O                      -8.767148            8.486847             3.339499
| 13>   H                      -8.878157            7.567461             3.034750
| 14>   H                      -7.497985            9.385551             1.820937
| 15>   H                      -9.222402            9.301168             1.459743
| 16>   H                      -8.738443            10.375658            2.569069
| 17>   C                      -5.506794            8.611930             4.184798
| 18>   O                      -6.479007            8.906728             5.131169
| 19>   H                      -7.302872            8.683236             4.672547
| 20>   H                      -5.553290            7.539341             3.965251
| 21>   H                      -5.779102            9.096801             3.189210
| 22>   H                      -4.532839            8.961888             4.495857
| 23> *
| 24>
| 25> #Run DFT-D3 single point of the molecule with dimer basis set
| 26> $new_job
| 27> %base "22-162_DFT_A"
| 28> ! wB97X-D3 def2-TZVP TIGHTSCF CHELPG PMODEL
| 29>
| 30> %scf
| 31> MaxIter 1000
| 32> end
| 33>
| 34> * xyz 0 1
| 35>   C                      -8.533005            9.425008             2.244899
| 36>   O                      -8.767148            8.486847             3.339499
| 37>   H                      -8.878157            7.567461             3.034750
| 38>   H                      -7.497985            9.385551             1.820937
| 39>   H                      -9.222402            9.301168             1.459743
| 40>   H                      -8.738443            10.375658            2.569069
| 41>   C                    : -5.506794            8.611930             4.184798
| 42>   O                    : -6.479007            8.906728             5.131169
| 43>   H                    : -7.302872            8.683236             4.672547
| 44>   H                    : -5.553290            7.539341             3.965251
| 45>   H                    : -5.779102            9.096801             3.189210
| 46>   H                    : -4.532839            8.961888             4.495857
| 47> *
| 48>
| 49> #Run DFT-D3 single point of the particle with dimer basis set
| 50> $new_job
| 51> %base "22-162_DFT_B"
| 52> ! wB97X-D3 def2-TZVP TIGHTSCF CHELPG PMODEL
| 53>
| 54> %scf
| 55> MaxIter 1000
| 56> end
| 57>
| 58> * xyz 0 1
| 59>   C                    : -8.533005            9.425008             2.244899
| 60>   O                    : -8.767148            8.486847             3.339499
| 61>   H                    : -8.878157            7.567461             3.034750
| 62>   H                    : -7.497985            9.385551             1.820937
| 63>   H                    : -9.222402            9.301168             1.459743
| 64>   H                    : -8.738443            10.375658            2.569069
| 65>   C                      -5.506794            8.611930             4.184798
| 66>   O                      -6.479007            8.906728             5.131169
| 67>   H                      -7.302872            8.683236             4.672547
| 68>   H                      -5.553290            7.539341             3.965251
| 69>   H                      -5.779102            9.096801             3.189210
| 70>   H                      -4.532839            8.961888             4.495857
| 71> *
| 72>
| 73>                          ****END OF INPUT****
 Total Charge           Charge          ....    0
 Multiplicity           Mult            ....    1
 Number of Electrons    NEL             ....   36
Dispersion correction           -0.002285348
FINAL SINGLE POINT ENERGY      -231.471628624636
Dispersion correction           -0.000276394
FINAL SINGLE POINT ENERGY      -115.729618931912

CARTESIAN COORDINATES (ANGSTROEM)
---------------------------------
  C     -8.533005    9.425008    2.244899
  O     -8.767148    8.486847    3.339499
  H     -8.878157    7.567461    3.034750
  H     -7.497985    9.385551    1.820937
  H     -9.222402    9.301168    1.459743
  H     -8.738443   10.375658    2.569069
  C     -5.506794    8.611930    4.184798
  O     -6.479007    8.906728    5.131169
  H     -7.302872    8.683236    4.672547
  H     -5.553290    7.539341    3.965251
  H     -5.779102    9.096801    3.189210
  H     -4.532839    8.961888    4.495857

 Multiplicity           Mult            ....    1
 Number of Electrons    NEL             ....   18
 Basis Dimension        Dim             ....  172

ORBITAL ENERGIES
----------------

  NO   OCC          E(Eh)            E(eV)
   0   2.0000     -19.232413      -523.3406
   1   2.0000     -10.315565      -280.7008
   2   2.0000      -1.147492       -31.2249
   3   2.0000      -0.788044       -21.4438
   4   2.0000      -0.615814       -16.7571
   5   2.0000      -0.543772       -14.7968
   6   2.0000      -0.530714       -14.4415
   7   2.0000      -0.440624       -11.9900
   8   2.0000      -0.367891       -10.0108
   9   0.0000       0.067781         1.8444
  10   0.0000       0.136065         3.7025
  11   0.0000       0.149256         4.0615
  12   0.0000       0.162793         4.4298
  13   0.0000       0.195644         5.3238

MULLIKEN ATOMIC CHARGES
-----------------------
   0 C :   -0.002501
   1 O :   -0.002536
   2 H :   -0.000289
   3 H :   -0.000717
   4 H :    0.000148
   5 H :    0.000401
   6 C :   -0.166610
   7 O :   -0.453983
   8 H :    0.314448
   9 H :    0.103172
  10 H :    0.086373
  11 H :    0.122093
Sum of atomic charges:    0.0000000

LOEWDIN ATOMIC CHARGES
----------------------
   0 C :   -0.009356
   1 O :   -0.016752
   2 H :   -0.001301
   3 H :   -0.006404
   4 H :   -0.000110
   5 H :   -0.000333
   6 C :   -0.404022
   7 O :   -0.052361
   8 H :    0.186987
   9 H :    0.095175
  10 H :    0.104452
  11 H :    0.104026

  Mayer bond orders larger than 0.1
B(  6-C ,  7-O ) :   0.9945 B(  6-C ,  9-H ) :   0.9823 B(  6-C , 10-H ) :   0.9792
B(  6-C , 11-H ) :   0.9715 B(  7-O ,  8-H ) :   0.9077

Dispersion correction           -0.000205613
FINAL SINGLE POINT ENERGY      -115.732739713932

DIPOLE MOMENT
-------------
                                X             Y             Z
Electronic contribution:     -1.02326       0.44130       1.49327
Nuclear contribution   :      0.87934      -0.68664      -2.10752
                        -----------------------------------------
Total Dipole Moment    :     -0.14391      -0.24533      -0.61425
                        -----------------------------------------
Magnitude (a.u.)       :      0.67691
Magnitude (Debye)      :      1.72057

Rotational constants in cm-1:     4.112720     0.869957     0.827930
Rotational constants in MHz : 123296.246922 26080.642801 24820.725273

                             ****ORCA TERMINATED NORMALLY****
TOTAL RUN TIME: 0 days 0 hours 1 minutes 9 seconds 908 msec
