                         Program Version 4.1.2  - RELEASE  -
|  1> #Run DFT-D3 single point of the dimer
|  2> ! wB97X-D3 def2-TZVP TIGHTSCF CHELPG PMODEL PAL8
|  3>
|  4> %base "12-194_DFT_AB"
|  5>
|  6> %scf
|  7> MaxIter 1000
|  8> end
|  9>
| 10> * xyz 0 1
| 11>   C                      10.961346            2.850851             -5.350093
| 12>   O                      9.971114             2.798636             -4.283877
| 13>   H                      9.843896             1.898025             -4.011744
| 14>   H                      11.948840            2.543303             -5.002153
| 15>   H                      10.830491            2.248679             -6.269059
| 16>   H                      11.163429            3.825260             -5.675786
| 17>   C                      10.052280            5.452050             -1.503370
| 18>   O                      10.973635            4.329790             -1.606083
| 19>   H                      10.599673            3.696722             -2.185244
| 20>   H                      9.397262             5.643016             -2.412208
| 21>   H                      9.391628             5.350623             -0.707857
| 22>   H                      10.655890            6.370214             -1.350950
| 23> *
| 24>
| 25> #Run DFT-D3 single point of the molecule with dimer basis set
| 26> $new_job
| 27> %base "12-194_DFT_A"
| 28> ! wB97X-D3 def2-TZVP TIGHTSCF CHELPG PMODEL
| 29>
| 30> %scf
| 31> MaxIter 1000
| 32> end
| 33>
| 34> * xyz 0 1
| 35>   C                      10.961346            2.850851             -5.350093
| 36>   O                      9.971114             2.798636             -4.283877
| 37>   H                      9.843896             1.898025             -4.011744
| 38>   H                      11.948840            2.543303             -5.002153
| 39>   H                      10.830491            2.248679             -6.269059
| 40>   H                      11.163429            3.825260             -5.675786
| 41>   C                    : 10.052280            5.452050             -1.503370
| 42>   O                    : 10.973635            4.329790             -1.606083
| 43>   H                    : 10.599673            3.696722             -2.185244
| 44>   H                    : 9.397262             5.643016             -2.412208
| 45>   H                    : 9.391628             5.350623             -0.707857
| 46>   H                    : 10.655890            6.370214             -1.350950
| 47> *
| 48>
| 49> #Run DFT-D3 single point of the particle with dimer basis set
| 50> $new_job
| 51> %base "12-194_DFT_B"
| 52> ! wB97X-D3 def2-TZVP TIGHTSCF CHELPG PMODEL
| 53>
| 54> %scf
| 55> MaxIter 1000
| 56> end
| 57>
| 58> * xyz 0 1
| 59>   C                    : 10.961346            2.850851             -5.350093
| 60>   O                    : 9.971114             2.798636             -4.283877
| 61>   H                    : 9.843896             1.898025             -4.011744
| 62>   H                    : 11.948840            2.543303             -5.002153
| 63>   H                    : 10.830491            2.248679             -6.269059
| 64>   H                    : 11.163429            3.825260             -5.675786
| 65>   C                      10.052280            5.452050             -1.503370
| 66>   O                      10.973635            4.329790             -1.606083
| 67>   H                      10.599673            3.696722             -2.185244
| 68>   H                      9.397262             5.643016             -2.412208
| 69>   H                      9.391628             5.350623             -0.707857
| 70>   H                      10.655890            6.370214             -1.350950
| 71> *
| 72>
| 73>                          ****END OF INPUT****
 Total Charge           Charge          ....    0
 Multiplicity           Mult            ....    1
 Number of Electrons    NEL             ....   36
Dispersion correction           -0.001651011
FINAL SINGLE POINT ENERGY      -231.466930661786
Dispersion correction           -0.000289611
FINAL SINGLE POINT ENERGY      -115.729481929789

CARTESIAN COORDINATES (ANGSTROEM)
---------------------------------
  C     10.961346    2.850851   -5.350093
  O      9.971114    2.798636   -4.283877
  H      9.843896    1.898025   -4.011744
  H     11.948840    2.543303   -5.002153
  H     10.830491    2.248679   -6.269059
  H     11.163429    3.825260   -5.675786
  C     10.052280    5.452050   -1.503370
  O     10.973635    4.329790   -1.606083
  H     10.599673    3.696722   -2.185244
  H      9.397262    5.643016   -2.412208
  H      9.391628    5.350623   -0.707857
  H     10.655890    6.370214   -1.350950

 Multiplicity           Mult            ....    1
 Number of Electrons    NEL             ....   18
 Basis Dimension        Dim             ....  172

ORBITAL ENERGIES
----------------

  NO   OCC          E(Eh)            E(eV)
   0   2.0000     -19.230210      -523.2806
   1   2.0000     -10.317198      -280.7452
   2   2.0000      -1.129725       -30.7414
   3   2.0000      -0.801149       -21.8004
   4   2.0000      -0.608616       -16.5613
   5   2.0000      -0.540170       -14.6988
   6   2.0000      -0.517523       -14.0825
   7   2.0000      -0.438223       -11.9247
   8   2.0000      -0.378687       -10.3046
   9   0.0000       0.071959         1.9581
  10   0.0000       0.129395         3.5210
  11   0.0000       0.145864         3.9692
  12   0.0000       0.170091         4.6284
  13   0.0000       0.185142         5.0380

MULLIKEN ATOMIC CHARGES
-----------------------
   0 C :   -0.004298
   1 O :   -0.000547
   2 H :   -0.000310
   3 H :    0.000380
   4 H :   -0.000125
   5 H :    0.000458
   6 C :   -0.176527
   7 O :   -0.472138
   8 H :    0.308208
   9 H :    0.105185
  10 H :    0.118071
  11 H :    0.121642
Sum of atomic charges:    0.0000000

LOEWDIN ATOMIC CHARGES
----------------------
   0 C :   -0.002378
   1 O :   -0.006102
   2 H :   -0.001007
   3 H :   -0.000207
   4 H :   -0.000073
   5 H :   -0.000126
   6 C :   -0.353685
   7 O :   -0.085827
   8 H :    0.149700
   9 H :    0.105033
  10 H :    0.083126
  11 H :    0.111546

  Mayer bond orders larger than 0.1
B(  6-C ,  7-O ) :   0.9910 B(  6-C ,  9-H ) :   0.9725 B(  6-C , 10-H ) :   0.9748
B(  6-C , 11-H ) :   0.9758 B(  7-O ,  8-H ) :   0.9134

Dispersion correction           -0.000273435
FINAL SINGLE POINT ENERGY      -115.731505616496

DIPOLE MOMENT
-------------
                                X             Y             Z
Electronic contribution:      1.21865      -1.41489       0.01892
Nuclear contribution   :     -1.85456       1.48176      -0.33516
                        -----------------------------------------
Total Dipole Moment    :     -0.63591       0.06687      -0.31624
                        -----------------------------------------
Magnitude (a.u.)       :      0.71335
Magnitude (Debye)      :      1.81318

Rotational constants in cm-1:     4.384596     0.790177     0.759272
Rotational constants in MHz : 131446.893779 23688.924548 22762.414170

                             ****ORCA TERMINATED NORMALLY****
TOTAL RUN TIME: 0 days 0 hours 1 minutes 4 seconds 908 msec
