                         Program Version 4.1.2  - RELEASE  -
|  1> #Run DFT-D3 single point of the dimer
|  2> ! wB97X-D3 def2-TZVP TIGHTSCF CHELPG PMODEL PAL8
|  3>
|  4> %base "3-83_DFT_AB"
|  5>
|  6> %scf
|  7> MaxIter 1000
|  8> end
|  9>
| 10> * xyz 0 1
| 11>   C                      -1.179622            -0.680025            6.462159
| 12>   O                      -1.994517            0.038928             7.405688
| 13>   H                      -2.109912            0.907878             7.079844
| 14>   H                      -0.109920            -0.503745            6.727623
| 15>   H                      -1.354234            -1.756892            6.522703
| 16>   H                      -1.366128            -0.313220            5.402350
| 17>   C                      0.065464             -4.211763            3.544082
| 18>   O                      0.811758             -3.591508            4.520244
| 19>   H                      1.119619             -4.270361            5.134675
| 20>   H                      0.671421             -4.857393            3.010172
| 21>   H                      -0.768815            -4.826459            3.971872
| 22>   H                      -0.362003            -3.489783            2.859465
| 23> *
| 24>
| 25> #Run DFT-D3 single point of the molecule with dimer basis set
| 26> $new_job
| 27> %base "3-83_DFT_A"
| 28> ! wB97X-D3 def2-TZVP TIGHTSCF CHELPG PMODEL
| 29>
| 30> %scf
| 31> MaxIter 1000
| 32> end
| 33>
| 34> * xyz 0 1
| 35>   C                      -1.179622            -0.680025            6.462159
| 36>   O                      -1.994517            0.038928             7.405688
| 37>   H                      -2.109912            0.907878             7.079844
| 38>   H                      -0.109920            -0.503745            6.727623
| 39>   H                      -1.354234            -1.756892            6.522703
| 40>   H                      -1.366128            -0.313220            5.402350
| 41>   C                    : 0.065464             -4.211763            3.544082
| 42>   O                    : 0.811758             -3.591508            4.520244
| 43>   H                    : 1.119619             -4.270361            5.134675
| 44>   H                    : 0.671421             -4.857393            3.010172
| 45>   H                    : -0.768815            -4.826459            3.971872
| 46>   H                    : -0.362003            -3.489783            2.859465
| 47> *
| 48>
| 49> #Run DFT-D3 single point of the particle with dimer basis set
| 50> $new_job
| 51> %base "3-83_DFT_B"
| 52> ! wB97X-D3 def2-TZVP TIGHTSCF CHELPG PMODEL
| 53>
| 54> %scf
| 55> MaxIter 1000
| 56> end
| 57>
| 58> * xyz 0 1
| 59>   C                    : -1.179622            -0.680025            6.462159
| 60>   O                    : -1.994517            0.038928             7.405688
| 61>   H                    : -2.109912            0.907878             7.079844
| 62>   H                    : -0.109920            -0.503745            6.727623
| 63>   H                    : -1.354234            -1.756892            6.522703
| 64>   H                    : -1.366128            -0.313220            5.402350
| 65>   C                      0.065464             -4.211763            3.544082
| 66>   O                      0.811758             -3.591508            4.520244
| 67>   H                      1.119619             -4.270361            5.134675
| 68>   H                      0.671421             -4.857393            3.010172
| 69>   H                      -0.768815            -4.826459            3.971872
| 70>   H                      -0.362003            -3.489783            2.859465
| 71> *
| 72>
| 73>                          ****END OF INPUT****
 Total Charge           Charge          ....    0
 Multiplicity           Mult            ....    1
 Number of Electrons    NEL             ....   36
Dispersion correction           -0.001040501
FINAL SINGLE POINT ENERGY      -231.468121338191
Dispersion correction           -0.000253585
FINAL SINGLE POINT ENERGY      -115.733822544480

CARTESIAN COORDINATES (ANGSTROEM)
---------------------------------
  C     -1.179622   -0.680025    6.462159
  O     -1.994517    0.038928    7.405688
  H     -2.109912    0.907878    7.079844
  H     -0.109920   -0.503745    6.727623
  H     -1.354234   -1.756892    6.522703
  H     -1.366128   -0.313220    5.402350
  C      0.065464   -4.211763    3.544082
  O      0.811758   -3.591508    4.520244
  H      1.119619   -4.270361    5.134675
  H      0.671421   -4.857393    3.010172
  H     -0.768815   -4.826459    3.971872
  H     -0.362003   -3.489783    2.859465

 Multiplicity           Mult            ....    1
 Number of Electrons    NEL             ....   18
 Basis Dimension        Dim             ....  172

ORBITAL ENERGIES
----------------

  NO   OCC          E(Eh)            E(eV)
   0   2.0000     -19.229382      -523.2581
   1   2.0000     -10.304479      -280.3991
   2   2.0000      -1.147282       -31.2191
   3   2.0000      -0.796785       -21.6816
   4   2.0000      -0.618764       -16.8374
   5   2.0000      -0.548648       -14.9295
   6   2.0000      -0.534613       -14.5476
   7   2.0000      -0.432308       -11.7637
   8   2.0000      -0.370460       -10.0807
   9   0.0000       0.092894         2.5278
  10   0.0000       0.116737         3.1766
  11   0.0000       0.157437         4.2841
  12   0.0000       0.176182         4.7942
  13   0.0000       0.191631         5.2145

MULLIKEN ATOMIC CHARGES
-----------------------
   0 C :    0.000993
   1 O :   -0.000074
   2 H :   -0.000014
   3 H :   -0.000715
   4 H :   -0.003301
   5 H :   -0.000411
   6 C :   -0.151003
   7 O :   -0.469980
   8 H :    0.315725
   9 H :    0.101717
  10 H :    0.089899
  11 H :    0.117163
Sum of atomic charges:   -0.0000000

LOEWDIN ATOMIC CHARGES
----------------------
   0 C :   -0.002590
   1 O :   -0.000018
   2 H :   -0.000012
   3 H :   -0.000320
   4 H :   -0.001641
   5 H :   -0.000112
   6 C :   -0.407524
   7 O :   -0.049934
   8 H :    0.176569
   9 H :    0.080524
  10 H :    0.097394
  11 H :    0.107664

  Mayer bond orders larger than 0.1
B(  6-C ,  7-O ) :   0.9930 B(  6-C ,  9-H ) :   0.9810 B(  6-C , 10-H ) :   0.9802
B(  6-C , 11-H ) :   0.9732 B(  7-O ,  8-H ) :   0.8963

Dispersion correction           -0.000211213
FINAL SINGLE POINT ENERGY      -115.733012348279

DIPOLE MOMENT
-------------
                                X             Y             Z
Electronic contribution:      1.00010       0.97607       1.16018
Nuclear contribution   :     -1.06634      -1.64691      -1.16627
                        -----------------------------------------
Total Dipole Moment    :     -0.06624      -0.67085      -0.00610
                        -----------------------------------------
Magnitude (a.u.)       :      0.67414
Magnitude (Debye)      :      1.71352

Rotational constants in cm-1:     4.384535     0.874538     0.837251
Rotational constants in MHz : 131445.053158 26217.990810 25100.142621

                             ****ORCA TERMINATED NORMALLY****
TOTAL RUN TIME: 0 days 0 hours 6 minutes 16 seconds 163 msec
