                         Program Version 4.1.2  - RELEASE  -
|  1> #Run DFT-D3 single point of the dimer
|  2> ! wB97X-D3 def2-TZVP TIGHTSCF CHELPG PMODEL PAL8
|  3>
|  4> %base "17-68_DFT_AB"
|  5>
|  6> %scf
|  7> MaxIter 1000
|  8> end
|  9>
| 10> * xyz 0 1
| 11>   C                      3.428928             8.666497             5.285069
| 12>   O                      4.762131             8.230754             5.347500
| 13>   H                      4.851017             7.570642             4.577961
| 14>   H                      3.003292             8.738284             4.342669
| 15>   H                      2.793504             7.932422             5.811546
| 16>   H                      3.320919             9.639837             5.807513
| 17>   C                      7.725987             6.018446             6.301102
| 18>   O                      7.122005             5.091396             5.427815
| 19>   H                      7.431728             5.223268             4.504092
| 20>   H                      7.511964             7.031374             5.938676
| 21>   H                      7.382231             6.007248             7.330572
| 22>   H                      8.771749             5.943483             6.314518
| 23> *
| 24>
| 25> #Run DFT-D3 single point of the molecule with dimer basis set
| 26> $new_job
| 27> %base "17-68_DFT_A"
| 28> ! wB97X-D3 def2-TZVP TIGHTSCF CHELPG PMODEL
| 29>
| 30> %scf
| 31> MaxIter 1000
| 32> end
| 33>
| 34> * xyz 0 1
| 35>   C                      3.428928             8.666497             5.285069
| 36>   O                      4.762131             8.230754             5.347500
| 37>   H                      4.851017             7.570642             4.577961
| 38>   H                      3.003292             8.738284             4.342669
| 39>   H                      2.793504             7.932422             5.811546
| 40>   H                      3.320919             9.639837             5.807513
| 41>   C                    : 7.725987             6.018446             6.301102
| 42>   O                    : 7.122005             5.091396             5.427815
| 43>   H                    : 7.431728             5.223268             4.504092
| 44>   H                    : 7.511964             7.031374             5.938676
| 45>   H                    : 7.382231             6.007248             7.330572
| 46>   H                    : 8.771749             5.943483             6.314518
| 47> *
| 48>
| 49> #Run DFT-D3 single point of the particle with dimer basis set
| 50> $new_job
| 51> %base "17-68_DFT_B"
| 52> ! wB97X-D3 def2-TZVP TIGHTSCF CHELPG PMODEL
| 53>
| 54> %scf
| 55> MaxIter 1000
| 56> end
| 57>
| 58> * xyz 0 1
| 59>   C                    : 3.428928             8.666497             5.285069
| 60>   O                    : 4.762131             8.230754             5.347500
| 61>   H                    : 4.851017             7.570642             4.577961
| 62>   H                    : 3.003292             8.738284             4.342669
| 63>   H                    : 2.793504             7.932422             5.811546
| 64>   H                    : 3.320919             9.639837             5.807513
| 65>   C                      7.725987             6.018446             6.301102
| 66>   O                      7.122005             5.091396             5.427815
| 67>   H                      7.431728             5.223268             4.504092
| 68>   H                      7.511964             7.031374             5.938676
| 69>   H                      7.382231             6.007248             7.330572
| 70>   H                      8.771749             5.943483             6.314518
| 71> *
| 72>
| 73>                          ****END OF INPUT****
 Total Charge           Charge          ....    0
 Multiplicity           Mult            ....    1
 Number of Electrons    NEL             ....   36
Dispersion correction           -0.001263448
FINAL SINGLE POINT ENERGY      -231.462803026443
Dispersion correction           -0.000231716
FINAL SINGLE POINT ENERGY      -115.729543949281

CARTESIAN COORDINATES (ANGSTROEM)
---------------------------------
  C      3.428928    8.666497    5.285069
  O      4.762131    8.230754    5.347500
  H      4.851017    7.570642    4.577961
  H      3.003292    8.738284    4.342669
  H      2.793504    7.932422    5.811546
  H      3.320919    9.639837    5.807513
  C      7.725987    6.018446    6.301102
  O      7.122005    5.091396    5.427815
  H      7.431728    5.223268    4.504092
  H      7.511964    7.031374    5.938676
  H      7.382231    6.007248    7.330572
  H      8.771749    5.943483    6.314518

 Multiplicity           Mult            ....    1
 Number of Electrons    NEL             ....   18
 Basis Dimension        Dim             ....  172

ORBITAL ENERGIES
----------------

  NO   OCC          E(Eh)            E(eV)
   0   2.0000     -19.230534      -523.2894
   1   2.0000     -10.307428      -280.4794
   2   2.0000      -1.130944       -30.7745
   3   2.0000      -0.799645       -21.7594
   4   2.0000      -0.611602       -16.6425
   5   2.0000      -0.541638       -14.7387
   6   2.0000      -0.533670       -14.5219
   7   2.0000      -0.428375       -11.6567
   8   2.0000      -0.370897       -10.0926
   9   0.0000       0.087230         2.3737
  10   0.0000       0.114445         3.1142
  11   0.0000       0.150932         4.1071
  12   0.0000       0.175982         4.7887
  13   0.0000       0.196152         5.3376

MULLIKEN ATOMIC CHARGES
-----------------------
   0 C :    0.000326
   1 O :    0.000471
   2 H :   -0.001893
   3 H :   -0.000012
   4 H :   -0.000043
   5 H :   -0.000011
   6 C :   -0.164016
   7 O :   -0.486778
   8 H :    0.321620
   9 H :    0.095239
  10 H :    0.123053
  11 H :    0.112045
Sum of atomic charges:   -0.0000000

LOEWDIN ATOMIC CHARGES
----------------------
   0 C :   -0.000074
   1 O :   -0.000947
   2 H :   -0.001585
   3 H :   -0.000003
   4 H :   -0.000003
   5 H :   -0.000004
   6 C :   -0.384325
   7 O :   -0.086073
   8 H :    0.184303
   9 H :    0.095119
  10 H :    0.108848
  11 H :    0.084743

  Mayer bond orders larger than 0.1
B(  6-C ,  7-O ) :   0.9900 B(  6-C ,  9-H ) :   0.9868 B(  6-C , 10-H ) :   0.9703
B(  6-C , 11-H ) :   0.9783 B(  7-O ,  8-H ) :   0.8893

Dispersion correction           -0.000237557
FINAL SINGLE POINT ENERGY      -115.731884179656

DIPOLE MOMENT
-------------
                                X             Y             Z
Electronic contribution:     -0.83096      -1.37751      -0.93905
Nuclear contribution   :      1.28604       1.83808       0.71469
                        -----------------------------------------
Total Dipole Moment    :      0.45508       0.46057      -0.22436
                        -----------------------------------------
Magnitude (a.u.)       :      0.68525
Magnitude (Debye)      :      1.74176

Rotational constants in cm-1:     4.505319     0.828430     0.796951
Rotational constants in MHz : 135066.079445 24835.695682 23891.980107

                             ****ORCA TERMINATED NORMALLY****
TOTAL RUN TIME: 0 days 0 hours 1 minutes 11 seconds 564 msec
