                         Program Version 4.1.2  - RELEASE  -
|  1> #Run DFT-D3 single point of the dimer
|  2> ! wB97X-D3 def2-TZVP TIGHTSCF CHELPG PMODEL PAL8
|  3>
|  4> %base "10-109_DFT_AB"
|  5>
|  6> %scf
|  7> MaxIter 1000
|  8> end
|  9>
| 10> * xyz 0 1
| 11>   C                      5.369477             -6.342536            -0.441178
| 12>   O                      5.334754             -5.019816            0.209316
| 13>   H                      4.689948             -4.385982            -0.258636
| 14>   H                      5.435570             -7.157379            0.285672
| 15>   H                      4.490291             -6.557346            -0.960870
| 16>   H                      6.075459             -6.414477            -1.304671
| 17>   C                      9.179188             -2.296258            -1.378937
| 18>   O                      9.126528             -3.730062            -1.614299
| 19>   H                      9.780172             -4.125602            -1.001933
| 20>   H                      10.076277            -2.135125            -0.877923
| 21>   H                      9.117740             -1.750285            -2.323667
| 22>   H                      8.413924             -1.920282            -0.682767
| 23> *
| 24>
| 25> #Run DFT-D3 single point of the molecule with dimer basis set
| 26> $new_job
| 27> %base "10-109_DFT_A"
| 28> ! wB97X-D3 def2-TZVP TIGHTSCF CHELPG PMODEL
| 29>
| 30> %scf
| 31> MaxIter 1000
| 32> end
| 33>
| 34> * xyz 0 1
| 35>   C                      5.369477             -6.342536            -0.441178
| 36>   O                      5.334754             -5.019816            0.209316
| 37>   H                      4.689948             -4.385982            -0.258636
| 38>   H                      5.435570             -7.157379            0.285672
| 39>   H                      4.490291             -6.557346            -0.960870
| 40>   H                      6.075459             -6.414477            -1.304671
| 41>   C                    : 9.179188             -2.296258            -1.378937
| 42>   O                    : 9.126528             -3.730062            -1.614299
| 43>   H                    : 9.780172             -4.125602            -1.001933
| 44>   H                    : 10.076277            -2.135125            -0.877923
| 45>   H                    : 9.117740             -1.750285            -2.323667
| 46>   H                    : 8.413924             -1.920282            -0.682767
| 47> *
| 48>
| 49> #Run DFT-D3 single point of the particle with dimer basis set
| 50> $new_job
| 51> %base "10-109_DFT_B"
| 52> ! wB97X-D3 def2-TZVP TIGHTSCF CHELPG PMODEL
| 53>
| 54> %scf
| 55> MaxIter 1000
| 56> end
| 57>
| 58> * xyz 0 1
| 59>   C                    : 5.369477             -6.342536            -0.441178
| 60>   O                    : 5.334754             -5.019816            0.209316
| 61>   H                    : 4.689948             -4.385982            -0.258636
| 62>   H                    : 5.435570             -7.157379            0.285672
| 63>   H                    : 4.490291             -6.557346            -0.960870
| 64>   H                    : 6.075459             -6.414477            -1.304671
| 65>   C                      9.179188             -2.296258            -1.378937
| 66>   O                      9.126528             -3.730062            -1.614299
| 67>   H                      9.780172             -4.125602            -1.001933
| 68>   H                      10.076277            -2.135125            -0.877923
| 69>   H                      9.117740             -1.750285            -2.323667
| 70>   H                      8.413924             -1.920282            -0.682767
| 71> *
| 72>
| 73>                          ****END OF INPUT****
 Total Charge           Charge          ....    0
 Multiplicity           Mult            ....    1
 Number of Electrons    NEL             ....   36
Dispersion correction           -0.000851351
FINAL SINGLE POINT ENERGY      -231.453079512339
Dispersion correction           -0.000291350
FINAL SINGLE POINT ENERGY      -115.722653126794

CARTESIAN COORDINATES (ANGSTROEM)
---------------------------------
  C      5.369477   -6.342536   -0.441178
  O      5.334754   -5.019816    0.209316
  H      4.689948   -4.385982   -0.258636
  H      5.435570   -7.157379    0.285672
  H      4.490291   -6.557346   -0.960870
  H      6.075459   -6.414477   -1.304671
  C      9.179188   -2.296258   -1.378937
  O      9.126528   -3.730062   -1.614299
  H      9.780172   -4.125602   -1.001933
  H     10.076277   -2.135125   -0.877923
  H      9.117740   -1.750285   -2.323667
  H      8.413924   -1.920282   -0.682767

 Multiplicity           Mult            ....    1
 Number of Electrons    NEL             ....   18
 Basis Dimension        Dim             ....  172

ORBITAL ENERGIES
----------------

  NO   OCC          E(Eh)            E(eV)
   0   2.0000     -19.230266      -523.2821
   1   2.0000     -10.311343      -280.5859
   2   2.0000      -1.121649       -30.5216
   3   2.0000      -0.797910       -21.7122
   4   2.0000      -0.605999       -16.4901
   5   2.0000      -0.533286       -14.5114
   6   2.0000      -0.529959       -14.4209
   7   2.0000      -0.437151       -11.8955
   8   2.0000      -0.373503       -10.1635
   9   0.0000       0.092286         2.5112
  10   0.0000       0.112340         3.0569
  11   0.0000       0.150845         4.1047
  12   0.0000       0.168930         4.5968
  13   0.0000       0.197796         5.3823

MULLIKEN ATOMIC CHARGES
-----------------------
   0 C :   -0.000102
   1 O :   -0.000002
   2 H :   -0.000010
   3 H :    0.000015
   4 H :   -0.000046
   5 H :   -0.001008
   6 C :   -0.170069
   7 O :   -0.479007
   8 H :    0.314263
   9 H :    0.108971
  10 H :    0.121901
  11 H :    0.105095
Sum of atomic charges:   -0.0000000

LOEWDIN ATOMIC CHARGES
----------------------
   0 C :   -0.000446
   1 O :   -0.000075
   2 H :   -0.000020
   3 H :   -0.000002
   4 H :   -0.000007
   5 H :   -0.000443
   6 C :   -0.351056
   7 O :   -0.116059
   8 H :    0.177329
   9 H :    0.086120
  10 H :    0.106096
  11 H :    0.098560

  Mayer bond orders larger than 0.1
B(  6-C ,  7-O ) :   1.0048 B(  6-C ,  9-H ) :   0.9923 B(  6-C , 10-H ) :   0.9747
B(  6-C , 11-H ) :   0.9676 B(  7-O ,  8-H ) :   0.9015

Dispersion correction           -0.000246973
FINAL SINGLE POINT ENERGY      -115.730293296469

DIPOLE MOMENT
-------------
                                X             Y             Z
Electronic contribution:     -0.18050      -1.70431      -0.46261
Nuclear contribution   :      0.64857       2.06433       0.95521
                        -----------------------------------------
Total Dipole Moment    :      0.46807       0.36002       0.49260
                        -----------------------------------------
Magnitude (a.u.)       :      0.76900
Magnitude (Debye)      :      1.95464

Rotational constants in cm-1:     4.333181     0.802012     0.770565
Rotational constants in MHz : 129905.508946 24043.727359 23100.953417

                             ****ORCA TERMINATED NORMALLY****
TOTAL RUN TIME: 0 days 0 hours 0 minutes 59 seconds 301 msec
