                         Program Version 4.1.2  - RELEASE  -
|  1> #Run DFT-D3 single point of the dimer
|  2> ! wB97X-D3 def2-TZVP TIGHTSCF CHELPG PMODEL PAL8
|  3>
|  4> %base "14-141_DFT_AB"
|  5>
|  6> %scf
|  7> MaxIter 1000
|  8> end
|  9>
| 10> * xyz 0 1
| 11>   C                      -6.355175            4.803348             -0.633554
| 12>   O                      -6.165207            4.170899             0.606047
| 13>   H                      -6.825564            3.483296             0.638373
| 14>   H                      -7.380405            5.187809             -0.791474
| 15>   H                      -5.628031            5.602576             -0.976239
| 16>   H                      -6.191720            4.108695             -1.435763
| 17>   C                      -4.976401            0.858105             -1.008490
| 18>   O                      -6.288005            0.928399             -0.574650
| 19>   H                      -6.440537            0.206410             0.015058
| 20>   H                      -4.691179            -0.199261            -1.167981
| 21>   H                      -4.900961            1.486722             -1.938916
| 22>   H                      -4.357864            1.263733             -0.209785
| 23> *
| 24>
| 25> #Run DFT-D3 single point of the molecule with dimer basis set
| 26> $new_job
| 27> %base "14-141_DFT_A"
| 28> ! wB97X-D3 def2-TZVP TIGHTSCF CHELPG PMODEL
| 29>
| 30> %scf
| 31> MaxIter 1000
| 32> end
| 33>
| 34> * xyz 0 1
| 35>   C                      -6.355175            4.803348             -0.633554
| 36>   O                      -6.165207            4.170899             0.606047
| 37>   H                      -6.825564            3.483296             0.638373
| 38>   H                      -7.380405            5.187809             -0.791474
| 39>   H                      -5.628031            5.602576             -0.976239
| 40>   H                      -6.191720            4.108695             -1.435763
| 41>   C                    : -4.976401            0.858105             -1.008490
| 42>   O                    : -6.288005            0.928399             -0.574650
| 43>   H                    : -6.440537            0.206410             0.015058
| 44>   H                    : -4.691179            -0.199261            -1.167981
| 45>   H                    : -4.900961            1.486722             -1.938916
| 46>   H                    : -4.357864            1.263733             -0.209785
| 47> *
| 48>
| 49> #Run DFT-D3 single point of the particle with dimer basis set
| 50> $new_job
| 51> %base "14-141_DFT_B"
| 52> ! wB97X-D3 def2-TZVP TIGHTSCF CHELPG PMODEL
| 53>
| 54> %scf
| 55> MaxIter 1000
| 56> end
| 57>
| 58> * xyz 0 1
| 59>   C                    : -6.355175            4.803348             -0.633554
| 60>   O                    : -6.165207            4.170899             0.606047
| 61>   H                    : -6.825564            3.483296             0.638373
| 62>   H                    : -7.380405            5.187809             -0.791474
| 63>   H                    : -5.628031            5.602576             -0.976239
| 64>   H                    : -6.191720            4.108695             -1.435763
| 65>   C                      -4.976401            0.858105             -1.008490
| 66>   O                      -6.288005            0.928399             -0.574650
| 67>   H                      -6.440537            0.206410             0.015058
| 68>   H                      -4.691179            -0.199261            -1.167981
| 69>   H                      -4.900961            1.486722             -1.938916
| 70>   H                      -4.357864            1.263733             -0.209785
| 71> *
| 72>
| 73>                          ****END OF INPUT****
 Total Charge           Charge          ....    0
 Multiplicity           Mult            ....    1
 Number of Electrons    NEL             ....   36
Dispersion correction           -0.001810238
FINAL SINGLE POINT ENERGY      -231.466606237305
Dispersion correction           -0.000243351
FINAL SINGLE POINT ENERGY      -115.729020256402

CARTESIAN COORDINATES (ANGSTROEM)
---------------------------------
  C     -6.355175    4.803348   -0.633554
  O     -6.165207    4.170899    0.606047
  H     -6.825564    3.483296    0.638373
  H     -7.380405    5.187809   -0.791474
  H     -5.628031    5.602576   -0.976239
  H     -6.191720    4.108695   -1.435763
  C     -4.976401    0.858105   -1.008490
  O     -6.288005    0.928399   -0.574650
  H     -6.440537    0.206410    0.015058
  H     -4.691179   -0.199261   -1.167981
  H     -4.900961    1.486722   -1.938916
  H     -4.357864    1.263733   -0.209785

 Multiplicity           Mult            ....    1
 Number of Electrons    NEL             ....   18
 Basis Dimension        Dim             ....  172

ORBITAL ENERGIES
----------------

  NO   OCC          E(Eh)            E(eV)
   0   2.0000     -19.224840      -523.1345
   1   2.0000     -10.314354      -280.6679
   2   2.0000      -1.148621       -31.2556
   3   2.0000      -0.790540       -21.5117
   4   2.0000      -0.617426       -16.8010
   5   2.0000      -0.546587       -14.8734
   6   2.0000      -0.528709       -14.3869
   7   2.0000      -0.432582       -11.7712
   8   2.0000      -0.368370       -10.0239
   9   0.0000       0.093706         2.5499
  10   0.0000       0.121888         3.3167
  11   0.0000       0.157675         4.2906
  12   0.0000       0.176702         4.8083
  13   0.0000       0.189070         5.1448

MULLIKEN ATOMIC CHARGES
-----------------------
   0 C :    0.001268
   1 O :    0.000361
   2 H :   -0.005013
   3 H :    0.000013
   4 H :   -0.000034
   5 H :   -0.000889
   6 C :   -0.153186
   7 O :   -0.469081
   8 H :    0.310934
   9 H :    0.099072
  10 H :    0.115184
  11 H :    0.101370
Sum of atomic charges:   -0.0000000

LOEWDIN ATOMIC CHARGES
----------------------
   0 C :   -0.001441
   1 O :   -0.001032
   2 H :   -0.006433
   3 H :   -0.000008
   4 H :   -0.000011
   5 H :   -0.000867
   6 C :   -0.407244
   7 O :   -0.047597
   8 H :    0.160041
   9 H :    0.096401
  10 H :    0.115282
  11 H :    0.092910

  Mayer bond orders larger than 0.1
B(  6-C ,  7-O ) :   0.9853 B(  6-C ,  9-H ) :   0.9798 B(  6-C , 10-H ) :   0.9727
B(  6-C , 11-H ) :   0.9799 B(  7-O ,  8-H ) :   0.9022

Dispersion correction           -0.000210078
FINAL SINGLE POINT ENERGY      -115.733534915170

DIPOLE MOMENT
-------------
                                X             Y             Z
Electronic contribution:     -1.65727       0.17808       0.42292
Nuclear contribution   :      2.05046      -0.68431      -0.20944
                        -----------------------------------------
Total Dipole Moment    :      0.39319      -0.50623       0.21347
                        -----------------------------------------
Magnitude (a.u.)       :      0.67560
Magnitude (Debye)      :      1.71725

Rotational constants in cm-1:     4.117903     0.877034     0.837034
Rotational constants in MHz : 123451.622218 26292.829219 25093.637205

                             ****ORCA TERMINATED NORMALLY****
TOTAL RUN TIME: 0 days 0 hours 1 minutes 8 seconds 201 msec
