                         Program Version 4.1.2  - RELEASE  -
|  1> #Run DFT-D3 single point of the dimer
|  2> ! wB97X-D3 def2-TZVP TIGHTSCF CHELPG PMODEL PAL8
|  3>
|  4> %base "10-45_DFT_AB"
|  5>
|  6> %scf
|  7> MaxIter 1000
|  8> end
|  9>
| 10> * xyz 0 1
| 11>   C                      6.640702             1.118679             1.001048
| 12>   O                      7.266035             -0.143782            1.123999
| 13>   H                      7.994274             -0.063849            0.473445
| 14>   H                      5.730766             1.058960             0.469523
| 15>   H                      6.333335             1.429739             2.003741
| 16>   H                      7.222567             1.942048             0.618447
| 17>   C                      2.018643             1.948399             1.332270
| 18>   O                      3.332165             2.287138             1.756769
| 19>   H                      3.311944             2.537674             2.703339
| 20>   H                      2.054708             1.402109             0.362876
| 21>   H                      1.485087             1.342053             2.106728
| 22>   H                      1.462710             2.875440             1.361166
| 23> *
| 24>
| 25> #Run DFT-D3 single point of the molecule with dimer basis set
| 26> $new_job
| 27> %base "10-45_DFT_A"
| 28> ! wB97X-D3 def2-TZVP TIGHTSCF CHELPG PMODEL
| 29>
| 30> %scf
| 31> MaxIter 1000
| 32> end
| 33>
| 34> * xyz 0 1
| 35>   C                      6.640702             1.118679             1.001048
| 36>   O                      7.266035             -0.143782            1.123999
| 37>   H                      7.994274             -0.063849            0.473445
| 38>   H                      5.730766             1.058960             0.469523
| 39>   H                      6.333335             1.429739             2.003741
| 40>   H                      7.222567             1.942048             0.618447
| 41>   C                    : 2.018643             1.948399             1.332270
| 42>   O                    : 3.332165             2.287138             1.756769
| 43>   H                    : 3.311944             2.537674             2.703339
| 44>   H                    : 2.054708             1.402109             0.362876
| 45>   H                    : 1.485087             1.342053             2.106728
| 46>   H                    : 1.462710             2.875440             1.361166
| 47> *
| 48>
| 49> #Run DFT-D3 single point of the particle with dimer basis set
| 50> $new_job
| 51> %base "10-45_DFT_B"
| 52> ! wB97X-D3 def2-TZVP TIGHTSCF CHELPG PMODEL
| 53>
| 54> %scf
| 55> MaxIter 1000
| 56> end
| 57>
| 58> * xyz 0 1
| 59>   C                    : 6.640702             1.118679             1.001048
| 60>   O                    : 7.266035             -0.143782            1.123999
| 61>   H                    : 7.994274             -0.063849            0.473445
| 62>   H                    : 5.730766             1.058960             0.469523
| 63>   H                    : 6.333335             1.429739             2.003741
| 64>   H                    : 7.222567             1.942048             0.618447
| 65>   C                      2.018643             1.948399             1.332270
| 66>   O                      3.332165             2.287138             1.756769
| 67>   H                      3.311944             2.537674             2.703339
| 68>   H                      2.054708             1.402109             0.362876
| 69>   H                      1.485087             1.342053             2.106728
| 70>   H                      1.462710             2.875440             1.361166
| 71> *
| 72>
| 73>                          ****END OF INPUT****
 Total Charge           Charge          ....    0
 Multiplicity           Mult            ....    1
 Number of Electrons    NEL             ....   36
Dispersion correction           -0.001299699
FINAL SINGLE POINT ENERGY      -231.464195267057
Dispersion correction           -0.000239590
FINAL SINGLE POINT ENERGY      -115.731233948810

CARTESIAN COORDINATES (ANGSTROEM)
---------------------------------
  C      6.640702    1.118679    1.001048
  O      7.266035   -0.143782    1.123999
  H      7.994274   -0.063849    0.473445
  H      5.730766    1.058960    0.469523
  H      6.333335    1.429739    2.003741
  H      7.222567    1.942048    0.618447
  C      2.018643    1.948399    1.332270
  O      3.332165    2.287138    1.756769
  H      3.311944    2.537674    2.703339
  H      2.054708    1.402109    0.362876
  H      1.485087    1.342053    2.106728
  H      1.462710    2.875440    1.361166

 Multiplicity           Mult            ....    1
 Number of Electrons    NEL             ....   18
 Basis Dimension        Dim             ....  172

ORBITAL ENERGIES
----------------

  NO   OCC          E(Eh)            E(eV)
   0   2.0000     -19.228736      -523.2405
   1   2.0000     -10.317238      -280.7463
   2   2.0000      -1.129109       -30.7246
   3   2.0000      -0.790802       -21.5188
   4   2.0000      -0.609332       -16.5808
   5   2.0000      -0.542858       -14.7719
   6   2.0000      -0.520489       -14.1632
   7   2.0000      -0.434694       -11.8286
   8   2.0000      -0.367331        -9.9956
   9   0.0000       0.096957         2.6383
  10   0.0000       0.116713         3.1759
  11   0.0000       0.152500         4.1497
  12   0.0000       0.181186         4.9303
  13   0.0000       0.193406         5.2629

MULLIKEN ATOMIC CHARGES
-----------------------
   0 C :    0.005058
   1 O :    0.000014
   2 H :   -0.000013
   3 H :   -0.005346
   4 H :   -0.004707
   5 H :   -0.000773
   6 C :   -0.171045
   7 O :   -0.474756
   8 H :    0.315122
   9 H :    0.129070
  10 H :    0.099618
  11 H :    0.107757
Sum of atomic charges:    0.0000000

LOEWDIN ATOMIC CHARGES
----------------------
   0 C :   -0.006075
   1 O :   -0.000031
   2 H :   -0.000013
   3 H :   -0.003541
   4 H :   -0.002536
   5 H :   -0.000097
   6 C :   -0.383228
   7 O :   -0.088910
   8 H :    0.178738
   9 H :    0.114543
  10 H :    0.097162
  11 H :    0.093988

  Mayer bond orders larger than 0.1
B(  6-C ,  7-O ) :   0.9845 B(  6-C ,  9-H ) :   0.9680 B(  6-C , 10-H ) :   0.9759
B(  6-C , 11-H ) :   0.9793 B(  7-O ,  8-H ) :   0.8934

Dispersion correction           -0.000230038
FINAL SINGLE POINT ENERGY      -115.731559972439

DIPOLE MOMENT
-------------
                                X             Y             Z
Electronic contribution:      1.69769       0.36140       0.24069
Nuclear contribution   :     -2.25490      -0.33412       0.19544
                        -----------------------------------------
Total Dipole Moment    :     -0.55721       0.02728       0.43613
                        -----------------------------------------
Magnitude (a.u.)       :      0.70812
Magnitude (Debye)      :      1.79991

Rotational constants in cm-1:     4.135195     0.834332     0.791025
Rotational constants in MHz : 123970.017165 25012.645057 23714.336493

                             ****ORCA TERMINATED NORMALLY****
TOTAL RUN TIME: 0 days 0 hours 1 minutes 5 seconds 998 msec
