                         Program Version 4.1.2  - RELEASE  -
|  1> #Run DFT-D3 single point of the dimer
|  2> ! wB97X-D3 def2-TZVP TIGHTSCF CHELPG PMODEL PAL8
|  3>
|  4> %base "13-153_DFT_AB"
|  5>
|  6> %scf
|  7> MaxIter 1000
|  8> end
|  9>
| 10> * xyz 0 1
| 11>   C                      1.026662             4.510302             -10.499016
| 12>   O                      1.681244             5.749271             -10.594907
| 13>   H                      2.294872             5.833495             -9.829716
| 14>   H                      1.698829             3.662669             -10.703830
| 15>   H                      0.493373             4.471240             -9.570846
| 16>   H                      0.235676             4.384236             -11.316837
| 17>   C                      2.271783             4.312011             -7.159874
| 18>   O                      2.570680             5.480226             -7.904220
| 19>   H                      1.999187             6.184199             -7.560593
| 20>   H                      1.626125             4.495112             -6.288783
| 21>   H                      1.894699             3.491721             -7.794099
| 22>   H                      3.254316             4.008877             -6.639738
| 23> *
| 24>
| 25> #Run DFT-D3 single point of the molecule with dimer basis set
| 26> $new_job
| 27> %base "13-153_DFT_A"
| 28> ! wB97X-D3 def2-TZVP TIGHTSCF CHELPG PMODEL
| 29>
| 30> %scf
| 31> MaxIter 1000
| 32> end
| 33>
| 34> * xyz 0 1
| 35>   C                      1.026662             4.510302             -10.499016
| 36>   O                      1.681244             5.749271             -10.594907
| 37>   H                      2.294872             5.833495             -9.829716
| 38>   H                      1.698829             3.662669             -10.703830
| 39>   H                      0.493373             4.471240             -9.570846
| 40>   H                      0.235676             4.384236             -11.316837
| 41>   C                    : 2.271783             4.312011             -7.159874
| 42>   O                    : 2.570680             5.480226             -7.904220
| 43>   H                    : 1.999187             6.184199             -7.560593
| 44>   H                    : 1.626125             4.495112             -6.288783
| 45>   H                    : 1.894699             3.491721             -7.794099
| 46>   H                    : 3.254316             4.008877             -6.639738
| 47> *
| 48>
| 49> #Run DFT-D3 single point of the particle with dimer basis set
| 50> $new_job
| 51> %base "13-153_DFT_B"
| 52> ! wB97X-D3 def2-TZVP TIGHTSCF CHELPG PMODEL
| 53>
| 54> %scf
| 55> MaxIter 1000
| 56> end
| 57>
| 58> * xyz 0 1
| 59>   C                    : 1.026662             4.510302             -10.499016
| 60>   O                    : 1.681244             5.749271             -10.594907
| 61>   H                    : 2.294872             5.833495             -9.829716
| 62>   H                    : 1.698829             3.662669             -10.703830
| 63>   H                    : 0.493373             4.471240             -9.570846
| 64>   H                    : 0.235676             4.384236             -11.316837
| 65>   C                      2.271783             4.312011             -7.159874
| 66>   O                      2.570680             5.480226             -7.904220
| 67>   H                      1.999187             6.184199             -7.560593
| 68>   H                      1.626125             4.495112             -6.288783
| 69>   H                      1.894699             3.491721             -7.794099
| 70>   H                      3.254316             4.008877             -6.639738
| 71> *
| 72>
| 73>                          ****END OF INPUT****
 Total Charge           Charge          ....    0
 Multiplicity           Mult            ....    1
 Number of Electrons    NEL             ....   36
Dispersion correction           -0.002283959
FINAL SINGLE POINT ENERGY      -231.472008853740
Dispersion correction           -0.000241989
FINAL SINGLE POINT ENERGY      -115.732754420093

CARTESIAN COORDINATES (ANGSTROEM)
---------------------------------
  C      1.026662    4.510302  -10.499016
  O      1.681244    5.749271  -10.594907
  H      2.294872    5.833495   -9.829716
  H      1.698829    3.662669  -10.703830
  H      0.493373    4.471240   -9.570846
  H      0.235676    4.384236  -11.316837
  C      2.271783    4.312011   -7.159874
  O      2.570680    5.480226   -7.904220
  H      1.999187    6.184199   -7.560593
  H      1.626125    4.495112   -6.288783
  H      1.894699    3.491721   -7.794099
  H      3.254316    4.008877   -6.639738

 Multiplicity           Mult            ....    1
 Number of Electrons    NEL             ....   18
 Basis Dimension        Dim             ....  172

ORBITAL ENERGIES
----------------

  NO   OCC          E(Eh)            E(eV)
   0   2.0000     -19.233454      -523.3689
   1   2.0000     -10.321044      -280.8499
   2   2.0000      -1.135874       -30.9087
   3   2.0000      -0.788923       -21.4677
   4   2.0000      -0.612013       -16.6537
   5   2.0000      -0.543156       -14.7800
   6   2.0000      -0.516827       -14.0636
   7   2.0000      -0.434523       -11.8240
   8   2.0000      -0.372869       -10.1463
   9   0.0000       0.093205         2.5362
  10   0.0000       0.126832         3.4513
  11   0.0000       0.149033         4.0554
  12   0.0000       0.186837         5.0841
  13   0.0000       0.190464         5.1828

MULLIKEN ATOMIC CHARGES
-----------------------
   0 C :    0.006602
   1 O :   -0.001961
   2 H :   -0.008542
   3 H :   -0.001353
   4 H :   -0.004069
   5 H :   -0.000014
   6 C :   -0.181895
   7 O :   -0.465762
   8 H :    0.318711
   9 H :    0.110731
  10 H :    0.118474
  11 H :    0.109077
Sum of atomic charges:   -0.0000000

LOEWDIN ATOMIC CHARGES
----------------------
   0 C :   -0.012309
   1 O :   -0.007060
   2 H :   -0.038694
   3 H :   -0.000550
   4 H :   -0.004220
   5 H :   -0.000086
   6 C :   -0.391016
   7 O :   -0.037745
   8 H :    0.178202
   9 H :    0.097746
  10 H :    0.103748
  11 H :    0.111985

  Mayer bond orders larger than 0.1
B(  6-C ,  7-O ) :   0.9949 B(  6-C ,  9-H ) :   0.9774 B(  6-C , 10-H ) :   0.9725
B(  6-C , 11-H ) :   0.9785 B(  7-O ,  8-H ) :   0.8967

Dispersion correction           -0.000258362
FINAL SINGLE POINT ENERGY      -115.732045598862

DIPOLE MOMENT
-------------
                                X             Y             Z
Electronic contribution:      0.32252       1.43260      -1.14302
Nuclear contribution   :     -0.81425      -1.41651       1.68126
                        -----------------------------------------
Total Dipole Moment    :     -0.49172       0.01608       0.53824
                        -----------------------------------------
Magnitude (a.u.)       :      0.72921
Magnitude (Debye)      :      1.85351

Rotational constants in cm-1:     4.113123     0.821578     0.798014
Rotational constants in MHz : 123308.330921 24630.286957 23923.859673

                             ****ORCA TERMINATED NORMALLY****
TOTAL RUN TIME: 0 days 0 hours 1 minutes 12 seconds 682 msec
