                         Program Version 4.1.2  - RELEASE  -
|  1> #Run DFT-D3 single point of the dimer
|  2> ! wB97X-D3 def2-TZVP TIGHTSCF CHELPG PMODEL PAL8
|  3>
|  4> %base "3-119_DFT_AB"
|  5>
|  6> %scf
|  7> MaxIter 1000
|  8> end
|  9>
| 10> * xyz 0 1
| 11>   C                      3.223815             -1.120758            5.515775
| 12>   O                      2.667111             -0.042912            6.132013
| 13>   H                      1.858254             0.090101             5.682670
| 14>   H                      3.470362             -1.950153            6.248320
| 15>   H                      2.540332             -1.571278            4.775863
| 16>   H                      4.135189             -0.855422            5.051932
| 17>   C                      5.244458             -3.146081            8.134721
| 18>   O                      4.330775             -2.100443            8.518283
| 19>   H                      4.833368             -1.300792            8.493139
| 20>   H                      4.728992             -4.120055            8.212679
| 21>   H                      5.591183             -3.082863            7.073099
| 22>   H                      6.195108             -3.208031            8.613289
| 23> *
| 24>
| 25> #Run DFT-D3 single point of the molecule with dimer basis set
| 26> $new_job
| 27> %base "3-119_DFT_A"
| 28> ! wB97X-D3 def2-TZVP TIGHTSCF CHELPG PMODEL
| 29>
| 30> %scf
| 31> MaxIter 1000
| 32> end
| 33>
| 34> * xyz 0 1
| 35>   C                      3.223815             -1.120758            5.515775
| 36>   O                      2.667111             -0.042912            6.132013
| 37>   H                      1.858254             0.090101             5.682670
| 38>   H                      3.470362             -1.950153            6.248320
| 39>   H                      2.540332             -1.571278            4.775863
| 40>   H                      4.135189             -0.855422            5.051932
| 41>   C                    : 5.244458             -3.146081            8.134721
| 42>   O                    : 4.330775             -2.100443            8.518283
| 43>   H                    : 4.833368             -1.300792            8.493139
| 44>   H                    : 4.728992             -4.120055            8.212679
| 45>   H                    : 5.591183             -3.082863            7.073099
| 46>   H                    : 6.195108             -3.208031            8.613289
| 47> *
| 48>
| 49> #Run DFT-D3 single point of the particle with dimer basis set
| 50> $new_job
| 51> %base "3-119_DFT_B"
| 52> ! wB97X-D3 def2-TZVP TIGHTSCF CHELPG PMODEL
| 53>
| 54> %scf
| 55> MaxIter 1000
| 56> end
| 57>
| 58> * xyz 0 1
| 59>   C                    : 3.223815             -1.120758            5.515775
| 60>   O                    : 2.667111             -0.042912            6.132013
| 61>   H                    : 1.858254             0.090101             5.682670
| 62>   H                    : 3.470362             -1.950153            6.248320
| 63>   H                    : 2.540332             -1.571278            4.775863
| 64>   H                    : 4.135189             -0.855422            5.051932
| 65>   C                      5.244458             -3.146081            8.134721
| 66>   O                      4.330775             -2.100443            8.518283
| 67>   H                      4.833368             -1.300792            8.493139
| 68>   H                      4.728992             -4.120055            8.212679
| 69>   H                      5.591183             -3.082863            7.073099
| 70>   H                      6.195108             -3.208031            8.613289
| 71> *
| 72>
| 73>                          ****END OF INPUT****
 Total Charge           Charge          ....    0
 Multiplicity           Mult            ....    1
 Number of Electrons    NEL             ....   36
Dispersion correction           -0.001858660
FINAL SINGLE POINT ENERGY      -231.463418982535
Dispersion correction           -0.000219620
FINAL SINGLE POINT ENERGY      -115.730496313172

CARTESIAN COORDINATES (ANGSTROEM)
---------------------------------
  C      3.223815   -1.120758    5.515775
  O      2.667111   -0.042912    6.132013
  H      1.858254    0.090101    5.682670
  H      3.470362   -1.950153    6.248320
  H      2.540332   -1.571278    4.775863
  H      4.135189   -0.855422    5.051932
  C      5.244458   -3.146081    8.134721
  O      4.330775   -2.100443    8.518283
  H      4.833368   -1.300792    8.493139
  H      4.728992   -4.120055    8.212679
  H      5.591183   -3.082863    7.073099
  H      6.195108   -3.208031    8.613289

 Multiplicity           Mult            ....    1
 Number of Electrons    NEL             ....   18
 Basis Dimension        Dim             ....  172

ORBITAL ENERGIES
----------------

  NO   OCC          E(Eh)            E(eV)
   0   2.0000     -19.236396      -523.4490
   1   2.0000     -10.316385      -280.7231
   2   2.0000      -1.136079       -30.9143
   3   2.0000      -0.799915       -21.7668
   4   2.0000      -0.617491       -16.8028
   5   2.0000      -0.526472       -14.3260
   6   2.0000      -0.522655       -14.2222
   7   2.0000      -0.448448       -12.2029
   8   2.0000      -0.376071       -10.2334
   9   0.0000       0.089960         2.4479
  10   0.0000       0.129169         3.5149
  11   0.0000       0.144816         3.9406
  12   0.0000       0.176918         4.8142
  13   0.0000       0.191500         5.2110

MULLIKEN ATOMIC CHARGES
-----------------------
   0 C :   -0.015222
   1 O :    0.001329
   2 H :    0.000058
   3 H :    0.008685
   4 H :   -0.000167
   5 H :    0.001032
   6 C :   -0.193267
   7 O :   -0.461945
   8 H :    0.311225
   9 H :    0.126300
  10 H :    0.101745
  11 H :    0.120227
Sum of atomic charges:    0.0000000

LOEWDIN ATOMIC CHARGES
----------------------
   0 C :   -0.009908
   1 O :   -0.000692
   2 H :   -0.000053
   3 H :   -0.012334
   4 H :   -0.000112
   5 H :   -0.000248
   6 C :   -0.374510
   7 O :   -0.064569
   8 H :    0.159426
   9 H :    0.113481
  10 H :    0.099566
  11 H :    0.089955

  Mayer bond orders larger than 0.1
B(  6-C ,  7-O ) :   0.9971 B(  6-C ,  9-H ) :   0.9784 B(  6-C , 10-H ) :   0.9742
B(  6-C , 11-H ) :   0.9653 B(  7-O ,  8-H ) :   0.9045

Dispersion correction           -0.000268144
FINAL SINGLE POINT ENERGY      -115.732038661582

DIPOLE MOMENT
-------------
                                X             Y             Z
Electronic contribution:     -1.30579       1.31817       0.68313
Nuclear contribution   :      2.00922      -1.23633      -0.83609
                        -----------------------------------------
Total Dipole Moment    :      0.70342       0.08184      -0.15296
                        -----------------------------------------
Magnitude (a.u.)       :      0.72450
Magnitude (Debye)      :      1.84153

Rotational constants in cm-1:     4.441063     0.801159     0.764535
Rotational constants in MHz : 133139.727561 24018.154900 22920.185758

                             ****ORCA TERMINATED NORMALLY****
TOTAL RUN TIME: 0 days 0 hours 6 minutes 21 seconds 969 msec
