                         Program Version 4.1.2  - RELEASE  -
|  1> #Run DFT-D3 single point of the dimer
|  2> ! wB97X-D3 def2-TZVP TIGHTSCF CHELPG PMODEL PAL8
|  3>
|  4> %base "9-88_DFT_AB"
|  5>
|  6> %scf
|  7> MaxIter 1000
|  8> end
|  9>
| 10> * xyz 0 1
| 11>   C                      6.644204             -5.381908            9.413953
| 12>   O                      6.052512             -6.076243            8.369976
| 13>   H                      6.674226             -6.664635            7.970221
| 14>   H                      5.870115             -4.708260            9.921547
| 15>   H                      6.957315             -6.125516            10.130067
| 16>   H                      7.387805             -4.639974            9.029258
| 17>   C                      2.496917             -9.634024            9.265554
| 18>   O                      3.478217             -8.742918            9.862142
| 19>   H                      4.276575             -9.260604            9.940840
| 20>   H                      2.737389             -10.333954           8.432188
| 21>   H                      2.138548             -10.299985           10.088730
| 22>   H                      1.627080             -9.114252            8.914468
| 23> *
| 24>
| 25> #Run DFT-D3 single point of the molecule with dimer basis set
| 26> $new_job
| 27> %base "9-88_DFT_A"
| 28> ! wB97X-D3 def2-TZVP TIGHTSCF CHELPG PMODEL
| 29>
| 30> %scf
| 31> MaxIter 1000
| 32> end
| 33>
| 34> * xyz 0 1
| 35>   C                      6.644204             -5.381908            9.413953
| 36>   O                      6.052512             -6.076243            8.369976
| 37>   H                      6.674226             -6.664635            7.970221
| 38>   H                      5.870115             -4.708260            9.921547
| 39>   H                      6.957315             -6.125516            10.130067
| 40>   H                      7.387805             -4.639974            9.029258
| 41>   C                    : 2.496917             -9.634024            9.265554
| 42>   O                    : 3.478217             -8.742918            9.862142
| 43>   H                    : 4.276575             -9.260604            9.940840
| 44>   H                    : 2.737389             -10.333954           8.432188
| 45>   H                    : 2.138548             -10.299985           10.088730
| 46>   H                    : 1.627080             -9.114252            8.914468
| 47> *
| 48>
| 49> #Run DFT-D3 single point of the particle with dimer basis set
| 50> $new_job
| 51> %base "9-88_DFT_B"
| 52> ! wB97X-D3 def2-TZVP TIGHTSCF CHELPG PMODEL
| 53>
| 54> %scf
| 55> MaxIter 1000
| 56> end
| 57>
| 58> * xyz 0 1
| 59>   C                    : 6.644204             -5.381908            9.413953
| 60>   O                    : 6.052512             -6.076243            8.369976
| 61>   H                    : 6.674226             -6.664635            7.970221
| 62>   H                    : 5.870115             -4.708260            9.921547
| 63>   H                    : 6.957315             -6.125516            10.130067
| 64>   H                    : 7.387805             -4.639974            9.029258
| 65>   C                      2.496917             -9.634024            9.265554
| 66>   O                      3.478217             -8.742918            9.862142
| 67>   H                      4.276575             -9.260604            9.940840
| 68>   H                      2.737389             -10.333954           8.432188
| 69>   H                      2.138548             -10.299985           10.088730
| 70>   H                      1.627080             -9.114252            8.914468
| 71> *
| 72>
| 73>                          ****END OF INPUT****
 Total Charge           Charge          ....    0
 Multiplicity           Mult            ....    1
 Number of Electrons    NEL             ....   36
Dispersion correction           -0.000865866
FINAL SINGLE POINT ENERGY      -231.458933602757
Dispersion correction           -0.000228829
FINAL SINGLE POINT ENERGY      -115.730890467607

CARTESIAN COORDINATES (ANGSTROEM)
---------------------------------
  C      6.644204   -5.381908    9.413953
  O      6.052512   -6.076243    8.369976
  H      6.674226   -6.664635    7.970221
  H      5.870115   -4.708260    9.921547
  H      6.957315   -6.125516   10.130067
  H      7.387805   -4.639974    9.029258
  C      2.496917   -9.634024    9.265554
  O      3.478217   -8.742918    9.862142
  H      4.276575   -9.260604    9.940840
  H      2.737389  -10.333954    8.432188
  H      2.138548  -10.299985   10.088730
  H      1.627080   -9.114252    8.914468

 Multiplicity           Mult            ....    1
 Number of Electrons    NEL             ....   18
 Basis Dimension        Dim             ....  172

ORBITAL ENERGIES
----------------

  NO   OCC          E(Eh)            E(eV)
   0   2.0000     -19.235823      -523.4334
   1   2.0000     -10.318856      -280.7903
   2   2.0000      -1.129820       -30.7440
   3   2.0000      -0.798124       -21.7181
   4   2.0000      -0.606930       -16.5154
   5   2.0000      -0.534841       -14.5538
   6   2.0000      -0.517946       -14.0940
   7   2.0000      -0.444311       -12.0903
   8   2.0000      -0.374867       -10.2006
   9   0.0000       0.089000         2.4218
  10   0.0000       0.119520         3.2523
  11   0.0000       0.145283         3.9533
  12   0.0000       0.173011         4.7079
  13   0.0000       0.191418         5.2087

MULLIKEN ATOMIC CHARGES
-----------------------
   0 C :   -0.000870
   1 O :   -0.000206
   2 H :   -0.000210
   3 H :    0.000082
   4 H :    0.000039
   5 H :   -0.000017
   6 C :   -0.194147
   7 O :   -0.467560
   8 H :    0.314627
   9 H :    0.111110
  10 H :    0.108223
  11 H :    0.128928
Sum of atomic charges:   -0.0000000

LOEWDIN ATOMIC CHARGES
----------------------
   0 C :   -0.000411
   1 O :   -0.000493
   2 H :   -0.000211
   3 H :   -0.000017
   4 H :   -0.000046
   5 H :   -0.000014
   6 C :   -0.372163
   7 O :   -0.096060
   8 H :    0.164660
   9 H :    0.100276
  10 H :    0.101635
  11 H :    0.102843

  Mayer bond orders larger than 0.1
B(  6-C ,  7-O ) :   0.9987 B(  6-C ,  9-H ) :   0.9617 B(  6-C , 10-H ) :   0.9832
B(  6-C , 11-H ) :   0.9733 B(  7-O ,  8-H ) :   0.9016

Dispersion correction           -0.000280963
FINAL SINGLE POINT ENERGY      -115.729338266228

DIPOLE MOMENT
-------------
                                X             Y             Z
Electronic contribution:      1.26974       1.36438       0.65833
Nuclear contribution   :     -1.18237      -2.05059      -0.85607
                        -----------------------------------------
Total Dipole Moment    :      0.08738      -0.68621      -0.19774
                        -----------------------------------------
Magnitude (a.u.)       :      0.71946
Magnitude (Debye)      :      1.82871

Rotational constants in cm-1:     4.417384     0.782410     0.757210
Rotational constants in MHz : 132429.839462 23456.070498 22700.571323

                             ****ORCA TERMINATED NORMALLY****
TOTAL RUN TIME: 0 days 0 hours 0 minutes 40 seconds 600 msec
