                         Program Version 4.1.2  - RELEASE  -
|  1> #Run DFT-D3 single point of the dimer
|  2> ! wB97X-D3 def2-TZVP TIGHTSCF CHELPG PMODEL PAL8
|  3>
|  4> %base "2-8_DFT_AB"
|  5>
|  6> %scf
|  7> MaxIter 1000
|  8> end
|  9>
| 10> * xyz 0 1
| 11>   C                      8.949076             -5.978823            1.374421
| 12>   O                      8.061541             -5.195316            2.119433
| 13>   H                      7.149420             -5.531842            2.087189
| 14>   H                      8.545516             -6.842409            0.887766
| 15>   H                      9.373425             -5.345801            0.537664
| 16>   H                      9.797121             -6.359743            1.900939
| 17>   C                      10.372420            -1.240965            1.031250
| 18>   O                      9.106789             -1.706658            0.669146
| 19>   H                      8.483005             -1.010757            0.932490
| 20>   H                      11.044055            -1.040316            0.125989
| 21>   H                      10.309781            -0.262270            1.502781
| 22>   H                      10.820888            -1.962031            1.699189
| 23> *
| 24>
| 25> #Run DFT-D3 single point of the molecule with dimer basis set
| 26> $new_job
| 27> %base "2-8_DFT_A"
| 28> ! wB97X-D3 def2-TZVP TIGHTSCF CHELPG PMODEL
| 29>
| 30> %scf
| 31> MaxIter 1000
| 32> end
| 33>
| 34> * xyz 0 1
| 35>   C                      8.949076             -5.978823            1.374421
| 36>   O                      8.061541             -5.195316            2.119433
| 37>   H                      7.149420             -5.531842            2.087189
| 38>   H                      8.545516             -6.842409            0.887766
| 39>   H                      9.373425             -5.345801            0.537664
| 40>   H                      9.797121             -6.359743            1.900939
| 41>   C                    : 10.372420            -1.240965            1.031250
| 42>   O                    : 9.106789             -1.706658            0.669146
| 43>   H                    : 8.483005             -1.010757            0.932490
| 44>   H                    : 11.044055            -1.040316            0.125989
| 45>   H                    : 10.309781            -0.262270            1.502781
| 46>   H                    : 10.820888            -1.962031            1.699189
| 47> *
| 48>
| 49> #Run DFT-D3 single point of the particle with dimer basis set
| 50> $new_job
| 51> %base "2-8_DFT_B"
| 52> ! wB97X-D3 def2-TZVP TIGHTSCF CHELPG PMODEL
| 53>
| 54> %scf
| 55> MaxIter 1000
| 56> end
| 57>
| 58> * xyz 0 1
| 59>   C                    : 8.949076             -5.978823            1.374421
| 60>   O                    : 8.061541             -5.195316            2.119433
| 61>   H                    : 7.149420             -5.531842            2.087189
| 62>   H                    : 8.545516             -6.842409            0.887766
| 63>   H                    : 9.373425             -5.345801            0.537664
| 64>   H                    : 9.797121             -6.359743            1.900939
| 65>   C                      10.372420            -1.240965            1.031250
| 66>   O                      9.106789             -1.706658            0.669146
| 67>   H                      8.483005             -1.010757            0.932490
| 68>   H                      11.044055            -1.040316            0.125989
| 69>   H                      10.309781            -0.262270            1.502781
| 70>   H                      10.820888            -1.962031            1.699189
| 71> *
| 72>
| 73>                          ****END OF INPUT****
 Total Charge           Charge          ....    0
 Multiplicity           Mult            ....    1
 Number of Electrons    NEL             ....   36
Dispersion correction           -0.001035746
FINAL SINGLE POINT ENERGY      -231.463599376547
Dispersion correction           -0.000265437
FINAL SINGLE POINT ENERGY      -115.731499058076

CARTESIAN COORDINATES (ANGSTROEM)
---------------------------------
  C      8.949076   -5.978823    1.374421
  O      8.061541   -5.195316    2.119433
  H      7.149420   -5.531842    2.087189
  H      8.545516   -6.842409    0.887766
  H      9.373425   -5.345801    0.537664
  H      9.797121   -6.359743    1.900939
  C     10.372420   -1.240965    1.031250
  O      9.106789   -1.706658    0.669146
  H      8.483005   -1.010757    0.932490
  H     11.044055   -1.040316    0.125989
  H     10.309781   -0.262270    1.502781
  H     10.820888   -1.962031    1.699189

 Multiplicity           Mult            ....    1
 Number of Electrons    NEL             ....   18
 Basis Dimension        Dim             ....  172

ORBITAL ENERGIES
----------------

  NO   OCC          E(Eh)            E(eV)
   0   2.0000     -19.231668      -523.3203
   1   2.0000     -10.314084      -280.6605
   2   2.0000      -1.141967       -31.0745
   3   2.0000      -0.789690       -21.4886
   4   2.0000      -0.616543       -16.7770
   5   2.0000      -0.543744       -14.7960
   6   2.0000      -0.524460       -14.2713
   7   2.0000      -0.433316       -11.7911
   8   2.0000      -0.372098       -10.1253
   9   0.0000       0.092833         2.5261
  10   0.0000       0.113877         3.0987
  11   0.0000       0.153392         4.1740
  12   0.0000       0.172883         4.7044
  13   0.0000       0.185491         5.0475

MULLIKEN ATOMIC CHARGES
-----------------------
   0 C :   -0.000171
   1 O :   -0.000260
   2 H :   -0.000040
   3 H :   -0.000033
   4 H :   -0.001252
   5 H :   -0.000005
   6 C :   -0.172713
   7 O :   -0.460306
   8 H :    0.317488
   9 H :    0.098086
  10 H :    0.103637
  11 H :    0.115569
Sum of atomic charges:    0.0000000

LOEWDIN ATOMIC CHARGES
----------------------
   0 C :   -0.000671
   1 O :   -0.000497
   2 H :   -0.000058
   3 H :   -0.000006
   4 H :   -0.000646
   5 H :   -0.000007
   6 C :   -0.405191
   7 O :   -0.069657
   8 H :    0.179151
   9 H :    0.105620
  10 H :    0.094084
  11 H :    0.097879

  Mayer bond orders larger than 0.1
B(  6-C ,  7-O ) :   1.0104 B(  6-C ,  9-H ) :   0.9692 B(  6-C , 10-H ) :   0.9867
B(  6-C , 11-H ) :   0.9766 B(  7-O ,  8-H ) :   0.8995

Dispersion correction           -0.000239928
FINAL SINGLE POINT ENERGY      -115.732675216228

DIPOLE MOMENT
-------------
                                X             Y             Z
Electronic contribution:     -1.62092      -0.78393      -0.45962
Nuclear contribution   :      1.68022       1.43348       0.78684
                        -----------------------------------------
Total Dipole Moment    :      0.05931       0.64955       0.32722
                        -----------------------------------------
Magnitude (a.u.)       :      0.72973
Magnitude (Debye)      :      1.85482

Rotational constants in cm-1:     4.186555     0.846903     0.819852
Rotational constants in MHz : 125509.764201 25389.516628 24578.546155

                             ****ORCA TERMINATED NORMALLY****
TOTAL RUN TIME: 0 days 0 hours 6 minutes 5 seconds 835 msec
