                         Program Version 4.1.2  - RELEASE  -
|  1> #Run DFT-D3 single point of the dimer
|  2> ! wB97X-D3 def2-TZVP TIGHTSCF CHELPG PMODEL PAL8
|  3>
|  4> %base "3-56_DFT_AB"
|  5>
|  6> %scf
|  7> MaxIter 1000
|  8> end
|  9>
| 10> * xyz 0 1
| 11>   C                      -1.585375            -0.526504            1.034932
| 12>   O                      -1.659778            -0.611331            2.447003
| 13>   H                      -2.532319            -0.358363            2.745018
| 14>   H                      -0.888317            0.258825             0.604334
| 15>   H                      -1.291051            -1.503012            0.632394
| 16>   H                      -2.593034            -0.391837            0.618044
| 17>   C                      -3.793228            -4.202428            2.979885
| 18>   O                      -4.018158            -5.070857            3.988264
| 19>   H                      -3.209113            -5.219717            4.488449
| 20>   H                      -2.788678            -4.366081            2.579981
| 21>   H                      -4.532226            -4.362344            2.202654
| 22>   H                      -4.057831            -3.191287            3.382079
| 23> *
| 24>
| 25> #Run DFT-D3 single point of the molecule with dimer basis set
| 26> $new_job
| 27> %base "3-56_DFT_A"
| 28> ! wB97X-D3 def2-TZVP TIGHTSCF CHELPG PMODEL
| 29>
| 30> %scf
| 31> MaxIter 1000
| 32> end
| 33>
| 34> * xyz 0 1
| 35>   C                      -1.585375            -0.526504            1.034932
| 36>   O                      -1.659778            -0.611331            2.447003
| 37>   H                      -2.532319            -0.358363            2.745018
| 38>   H                      -0.888317            0.258825             0.604334
| 39>   H                      -1.291051            -1.503012            0.632394
| 40>   H                      -2.593034            -0.391837            0.618044
| 41>   C                    : -3.793228            -4.202428            2.979885
| 42>   O                    : -4.018158            -5.070857            3.988264
| 43>   H                    : -3.209113            -5.219717            4.488449
| 44>   H                    : -2.788678            -4.366081            2.579981
| 45>   H                    : -4.532226            -4.362344            2.202654
| 46>   H                    : -4.057831            -3.191287            3.382079
| 47> *
| 48>
| 49> #Run DFT-D3 single point of the particle with dimer basis set
| 50> $new_job
| 51> %base "3-56_DFT_B"
| 52> ! wB97X-D3 def2-TZVP TIGHTSCF CHELPG PMODEL
| 53>
| 54> %scf
| 55> MaxIter 1000
| 56> end
| 57>
| 58> * xyz 0 1
| 59>   C                    : -1.585375            -0.526504            1.034932
| 60>   O                    : -1.659778            -0.611331            2.447003
| 61>   H                    : -2.532319            -0.358363            2.745018
| 62>   H                    : -0.888317            0.258825             0.604334
| 63>   H                    : -1.291051            -1.503012            0.632394
| 64>   H                    : -2.593034            -0.391837            0.618044
| 65>   C                      -3.793228            -4.202428            2.979885
| 66>   O                      -4.018158            -5.070857            3.988264
| 67>   H                      -3.209113            -5.219717            4.488449
| 68>   H                      -2.788678            -4.366081            2.579981
| 69>   H                      -4.532226            -4.362344            2.202654
| 70>   H                      -4.057831            -3.191287            3.382079
| 71> *
| 72>
| 73>                          ****END OF INPUT****
 Total Charge           Charge          ....    0
 Multiplicity           Mult            ....    1
 Number of Electrons    NEL             ....   36
Dispersion correction           -0.001089584
FINAL SINGLE POINT ENERGY      -231.462676840942
Dispersion correction           -0.000262640
FINAL SINGLE POINT ENERGY      -115.732944735318

CARTESIAN COORDINATES (ANGSTROEM)
---------------------------------
  C     -1.585375   -0.526504    1.034932
  O     -1.659778   -0.611331    2.447003
  H     -2.532319   -0.358363    2.745018
  H     -0.888317    0.258825    0.604334
  H     -1.291051   -1.503012    0.632394
  H     -2.593034   -0.391837    0.618044
  C     -3.793228   -4.202428    2.979885
  O     -4.018158   -5.070857    3.988264
  H     -3.209113   -5.219717    4.488449
  H     -2.788678   -4.366081    2.579981
  H     -4.532226   -4.362344    2.202654
  H     -4.057831   -3.191287    3.382079

 Multiplicity           Mult            ....    1
 Number of Electrons    NEL             ....   18
 Basis Dimension        Dim             ....  172

ORBITAL ENERGIES
----------------

  NO   OCC          E(Eh)            E(eV)
   0   2.0000     -19.224412      -523.1229
   1   2.0000     -10.308318      -280.5036
   2   2.0000      -1.154659       -31.4199
   3   2.0000      -0.791344       -21.5336
   4   2.0000      -0.617075       -16.7915
   5   2.0000      -0.553303       -15.0561
   6   2.0000      -0.538429       -14.6514
   7   2.0000      -0.423519       -11.5245
   8   2.0000      -0.363953        -9.9037
   9   0.0000       0.082496         2.2448
  10   0.0000       0.114381         3.1125
  11   0.0000       0.151129         4.1124
  12   0.0000       0.165378         4.5002
  13   0.0000       0.188125         5.1191

MULLIKEN ATOMIC CHARGES
-----------------------
   0 C :   -0.000053
   1 O :    0.000075
   2 H :   -0.000658
   3 H :   -0.000010
   4 H :   -0.000144
   5 H :   -0.000005
   6 C :   -0.144045
   7 O :   -0.464681
   8 H :    0.317527
   9 H :    0.095327
  10 H :    0.107409
  11 H :    0.089257
Sum of atomic charges:   -0.0000000

LOEWDIN ATOMIC CHARGES
----------------------
   0 C :   -0.000293
   1 O :   -0.000229
   2 H :   -0.000843
   3 H :   -0.000006
   4 H :   -0.000128
   5 H :   -0.000019
   6 C :   -0.434957
   7 O :   -0.036040
   8 H :    0.174389
   9 H :    0.095744
  10 H :    0.103110
  11 H :    0.099273

  Mayer bond orders larger than 0.1
B(  6-C ,  7-O ) :   1.0101 B(  6-C ,  9-H ) :   0.9869 B(  6-C , 10-H ) :   0.9712
B(  6-C , 11-H ) :   0.9832 B(  7-O ,  8-H ) :   0.8960

Dispersion correction           -0.000209970
FINAL SINGLE POINT ENERGY      -115.728820662838

DIPOLE MOMENT
-------------
                                X             Y             Z
Electronic contribution:     -0.30341      -1.17058       1.22652
Nuclear contribution   :      0.89935       1.35056      -1.28069
                        -----------------------------------------
Total Dipole Moment    :      0.59595       0.17998      -0.05417
                        -----------------------------------------
Magnitude (a.u.)       :      0.62488
Magnitude (Debye)      :      1.58832

Rotational constants in cm-1:     4.184583     0.905316     0.871534
Rotational constants in MHz : 125450.655202 27140.682719 26127.938968

                             ****ORCA TERMINATED NORMALLY****
TOTAL RUN TIME: 0 days 0 hours 6 minutes 5 seconds 809 msec
