                         Program Version 4.1.2  - RELEASE  -
|  1> #Run DFT-D3 single point of the dimer
|  2> ! wB97X-D3 def2-TZVP TIGHTSCF CHELPG PMODEL PAL8
|  3>
|  4> %base "20-137_DFT_AB"
|  5>
|  6> %scf
|  7> MaxIter 1000
|  8> end
|  9>
| 10> * xyz 0 1
| 11>   C                      2.644582             -4.496149            4.921701
| 12>   O                      1.571882             -5.465876            5.016327
| 13>   H                      0.734321             -5.043278            5.354497
| 14>   H                      3.257729             -4.554362            5.857195
| 15>   H                      3.420873             -4.747145            4.172869
| 16>   H                      2.283139             -3.498105            4.678804
| 17>   C                      1.310005             -5.374597            1.050134
| 18>   O                      2.401512             -6.320147            0.794165
| 19>   H                      2.409136             -7.072881            1.458004
| 20>   H                      0.288380             -5.856881            0.838766
| 21>   H                      1.226147             -4.946307            2.050724
| 22>   H                      1.364170             -4.525090            0.270397
| 23> *
| 24>
| 25> #Run DFT-D3 single point of the molecule with dimer basis set
| 26> $new_job
| 27> %base "20-137_DFT_A"
| 28> ! wB97X-D3 def2-TZVP TIGHTSCF CHELPG PMODEL
| 29>
| 30> %scf
| 31> MaxIter 1000
| 32> end
| 33>
| 34> * xyz 0 1
| 35>   C                      2.644582             -4.496149            4.921701
| 36>   O                      1.571882             -5.465876            5.016327
| 37>   H                      0.734321             -5.043278            5.354497
| 38>   H                      3.257729             -4.554362            5.857195
| 39>   H                      3.420873             -4.747145            4.172869
| 40>   H                      2.283139             -3.498105            4.678804
| 41>   C                    : 1.310005             -5.374597            1.050134
| 42>   O                    : 2.401512             -6.320147            0.794165
| 43>   H                    : 2.409136             -7.072881            1.458004
| 44>   H                    : 0.288380             -5.856881            0.838766
| 45>   H                    : 1.226147             -4.946307            2.050724
| 46>   H                    : 1.364170             -4.525090            0.270397
| 47> *
| 48>
| 49> #Run DFT-D3 single point of the particle with dimer basis set
| 50> $new_job
| 51> %base "20-137_DFT_B"
| 52> ! wB97X-D3 def2-TZVP TIGHTSCF CHELPG PMODEL
| 53>
| 54> %scf
| 55> MaxIter 1000
| 56> end
| 57>
| 58> * xyz 0 1
| 59>   C                    : 2.644582             -4.496149            4.921701
| 60>   O                    : 1.571882             -5.465876            5.016327
| 61>   H                    : 0.734321             -5.043278            5.354497
| 62>   H                    : 3.257729             -4.554362            5.857195
| 63>   H                    : 3.420873             -4.747145            4.172869
| 64>   H                    : 2.283139             -3.498105            4.678804
| 65>   C                      1.310005             -5.374597            1.050134
| 66>   O                      2.401512             -6.320147            0.794165
| 67>   H                      2.409136             -7.072881            1.458004
| 68>   H                      0.288380             -5.856881            0.838766
| 69>   H                      1.226147             -4.946307            2.050724
| 70>   H                      1.364170             -4.525090            0.270397
| 71> *
| 72>
| 73>                          ****END OF INPUT****
 Total Charge           Charge          ....    0
 Multiplicity           Mult            ....    1
 Number of Electrons    NEL             ....   36
Dispersion correction           -0.001624717
FINAL SINGLE POINT ENERGY      -231.459757425136
Dispersion correction           -0.000278783
FINAL SINGLE POINT ENERGY      -115.730047250561

CARTESIAN COORDINATES (ANGSTROEM)
---------------------------------
  C      2.644582   -4.496149    4.921701
  O      1.571882   -5.465876    5.016327
  H      0.734321   -5.043278    5.354497
  H      3.257729   -4.554362    5.857195
  H      3.420873   -4.747145    4.172869
  H      2.283139   -3.498105    4.678804
  C      1.310005   -5.374597    1.050134
  O      2.401512   -6.320147    0.794165
  H      2.409136   -7.072881    1.458004
  H      0.288380   -5.856881    0.838766
  H      1.226147   -4.946307    2.050724
  H      1.364170   -4.525090    0.270397

 Multiplicity           Mult            ....    1
 Number of Electrons    NEL             ....   18
 Basis Dimension        Dim             ....  172

ORBITAL ENERGIES
----------------

  NO   OCC          E(Eh)            E(eV)
   0   2.0000     -19.237046      -523.4666
   1   2.0000     -10.330323      -281.1024
   2   2.0000      -1.112429       -30.2707
   3   2.0000      -0.788609       -21.4591
   4   2.0000      -0.600128       -16.3303
   5   2.0000      -0.526422       -14.3247
   6   2.0000      -0.513075       -13.9615
   7   2.0000      -0.432039       -11.7564
   8   2.0000      -0.374353       -10.1867
   9   0.0000       0.077565         2.1107
  10   0.0000       0.115834         3.1520
  11   0.0000       0.143251         3.8981
  12   0.0000       0.160263         4.3610
  13   0.0000       0.185554         5.0492

MULLIKEN ATOMIC CHARGES
-----------------------
   0 C :    0.002802
   1 O :   -0.000378
   2 H :   -0.000232
   3 H :    0.000079
   4 H :   -0.000839
   5 H :   -0.000809
   6 C :   -0.178301
   7 O :   -0.486736
   8 H :    0.318729
   9 H :    0.105780
  10 H :    0.112645
  11 H :    0.127259
Sum of atomic charges:    0.0000000

LOEWDIN ATOMIC CHARGES
----------------------
   0 C :   -0.002683
   1 O :   -0.000722
   2 H :   -0.000239
   3 H :   -0.000024
   4 H :   -0.000614
   5 H :   -0.000404
   6 C :   -0.369118
   7 O :   -0.132030
   8 H :    0.188436
   9 H :    0.103042
  10 H :    0.093244
  11 H :    0.121111

  Mayer bond orders larger than 0.1
B(  6-C ,  7-O ) :   0.9975 B(  6-C ,  9-H ) :   0.9757 B(  6-C , 10-H ) :   0.9584
B(  6-C , 11-H ) :   0.9726 B(  7-O ,  8-H ) :   0.8894

Dispersion correction           -0.000312886
FINAL SINGLE POINT ENERGY      -115.727231391815

DIPOLE MOMENT
-------------
                                X             Y             Z
Electronic contribution:      1.54765      -1.09875      -0.29510
Nuclear contribution   :     -1.99797       1.02479       0.81982
                        -----------------------------------------
Total Dipole Moment    :     -0.45032      -0.07396       0.52472
                        -----------------------------------------
Magnitude (a.u.)       :      0.69541
Magnitude (Debye)      :      1.76758

Rotational constants in cm-1:     4.124726     0.763516     0.734197
Rotational constants in MHz : 123656.178349 22889.623981 22010.674379

                             ****ORCA TERMINATED NORMALLY****
TOTAL RUN TIME: 0 days 0 hours 0 minutes 56 seconds 451 msec
