                         Program Version 4.1.2  - RELEASE  -
|  1> #Run DFT-D3 single point of the dimer
|  2> ! wB97X-D3 def2-TZVP TIGHTSCF CHELPG PMODEL PAL8
|  3>
|  4> %base "22-60_DFT_AB"
|  5>
|  6> %scf
|  7> MaxIter 1000
|  8> end
|  9>
| 10> * xyz 0 1
| 11>   C                      5.509219             -5.286384            -2.629828
| 12>   O                      6.356411             -4.322206            -3.312786
| 13>   H                      5.806492             -3.659072            -3.753185
| 14>   H                      4.710320             -5.785805            -3.279945
| 15>   H                      6.199272             -6.152955            -2.356879
| 16>   H                      4.910016             -4.863904            -1.771712
| 17>   C                      9.438727             -3.721648            -1.851638
| 18>   O                      8.377869             -4.468286            -1.328289
| 19>   H                      7.640629             -4.403030            -1.935555
| 20>   H                      10.381033            -4.210170            -1.827291
| 21>   H                      9.213643             -3.395265            -2.855643
| 22>   H                      9.658459             -2.751230            -1.291551
| 23> *
| 24>
| 25> #Run DFT-D3 single point of the molecule with dimer basis set
| 26> $new_job
| 27> %base "22-60_DFT_A"
| 28> ! wB97X-D3 def2-TZVP TIGHTSCF CHELPG PMODEL
| 29>
| 30> %scf
| 31> MaxIter 1000
| 32> end
| 33>
| 34> * xyz 0 1
| 35>   C                      5.509219             -5.286384            -2.629828
| 36>   O                      6.356411             -4.322206            -3.312786
| 37>   H                      5.806492             -3.659072            -3.753185
| 38>   H                      4.710320             -5.785805            -3.279945
| 39>   H                      6.199272             -6.152955            -2.356879
| 40>   H                      4.910016             -4.863904            -1.771712
| 41>   C                    : 9.438727             -3.721648            -1.851638
| 42>   O                    : 8.377869             -4.468286            -1.328289
| 43>   H                    : 7.640629             -4.403030            -1.935555
| 44>   H                    : 10.381033            -4.210170            -1.827291
| 45>   H                    : 9.213643             -3.395265            -2.855643
| 46>   H                    : 9.658459             -2.751230            -1.291551
| 47> *
| 48>
| 49> #Run DFT-D3 single point of the particle with dimer basis set
| 50> $new_job
| 51> %base "22-60_DFT_B"
| 52> ! wB97X-D3 def2-TZVP TIGHTSCF CHELPG PMODEL
| 53>
| 54> %scf
| 55> MaxIter 1000
| 56> end
| 57>
| 58> * xyz 0 1
| 59>   C                    : 5.509219             -5.286384            -2.629828
| 60>   O                    : 6.356411             -4.322206            -3.312786
| 61>   H                    : 5.806492             -3.659072            -3.753185
| 62>   H                    : 4.710320             -5.785805            -3.279945
| 63>   H                    : 6.199272             -6.152955            -2.356879
| 64>   H                    : 4.910016             -4.863904            -1.771712
| 65>   C                      9.438727             -3.721648            -1.851638
| 66>   O                      8.377869             -4.468286            -1.328289
| 67>   H                      7.640629             -4.403030            -1.935555
| 68>   H                      10.381033            -4.210170            -1.827291
| 69>   H                      9.213643             -3.395265            -2.855643
| 70>   H                      9.658459             -2.751230            -1.291551
| 71> *
| 72>
| 73>                          ****END OF INPUT****
 Total Charge           Charge          ....    0
 Multiplicity           Mult            ....    1
 Number of Electrons    NEL             ....   36
Dispersion correction           -0.001919260
FINAL SINGLE POINT ENERGY      -231.470545395095
Dispersion correction           -0.000300120
FINAL SINGLE POINT ENERGY      -115.730381652503

CARTESIAN COORDINATES (ANGSTROEM)
---------------------------------
  C      5.509219   -5.286384   -2.629828
  O      6.356411   -4.322206   -3.312786
  H      5.806492   -3.659072   -3.753185
  H      4.710320   -5.785805   -3.279945
  H      6.199272   -6.152955   -2.356879
  H      4.910016   -4.863904   -1.771712
  C      9.438727   -3.721648   -1.851638
  O      8.377869   -4.468286   -1.328289
  H      7.640629   -4.403030   -1.935555
  H     10.381033   -4.210170   -1.827291
  H      9.213643   -3.395265   -2.855643
  H      9.658459   -2.751230   -1.291551

 Multiplicity           Mult            ....    1
 Number of Electrons    NEL             ....   18
 Basis Dimension        Dim             ....  172

ORBITAL ENERGIES
----------------

  NO   OCC          E(Eh)            E(eV)
   0   2.0000     -19.233640      -523.3739
   1   2.0000     -10.312645      -280.6213
   2   2.0000      -1.143565       -31.1180
   3   2.0000      -0.797359       -21.6972
   4   2.0000      -0.619468       -16.8566
   5   2.0000      -0.543146       -14.7798
   6   2.0000      -0.528457       -14.3800
   7   2.0000      -0.435582       -11.8528
   8   2.0000      -0.371735       -10.1154
   9   0.0000       0.069734         1.8975
  10   0.0000       0.130948         3.5633
  11   0.0000       0.157649         4.2899
  12   0.0000       0.164309         4.4711
  13   0.0000       0.191968         5.2237

MULLIKEN ATOMIC CHARGES
-----------------------
   0 C :    0.003586
   1 O :   -0.006206
   2 H :   -0.000228
   3 H :    0.000131
   4 H :   -0.004555
   5 H :   -0.000327
   6 C :   -0.161954
   7 O :   -0.457959
   8 H :    0.316434
   9 H :    0.118661
  10 H :    0.100572
  11 H :    0.091844
Sum of atomic charges:    0.0000000

LOEWDIN ATOMIC CHARGES
----------------------
   0 C :   -0.012229
   1 O :   -0.020312
   2 H :   -0.000870
   3 H :   -0.000110
   4 H :   -0.003504
   5 H :   -0.000514
   6 C :   -0.395426
   7 O :   -0.044001
   8 H :    0.185023
   9 H :    0.094826
  10 H :    0.093693
  11 H :    0.103425

  Mayer bond orders larger than 0.1
B(  6-C ,  7-O ) :   1.0087 B(  6-C ,  9-H ) :   0.9747 B(  6-C , 10-H ) :   0.9882
B(  6-C , 11-H ) :   0.9742 B(  7-O ,  8-H ) :   0.9047

Dispersion correction           -0.000251350
FINAL SINGLE POINT ENERGY      -115.732216454563

DIPOLE MOMENT
-------------
                                X             Y             Z
Electronic contribution:     -1.33171      -1.17969       0.77220
Nuclear contribution   :      1.27411       1.49752      -1.38945
                        -----------------------------------------
Total Dipole Moment    :     -0.05759       0.31783      -0.61725
                        -----------------------------------------
Magnitude (a.u.)       :      0.69666
Magnitude (Debye)      :      1.77077

Rotational constants in cm-1:     4.436349     0.837585     0.804314
Rotational constants in MHz : 132998.389653 25110.173041 24112.721612

                             ****ORCA TERMINATED NORMALLY****
TOTAL RUN TIME: 0 days 0 hours 1 minutes 1 seconds 538 msec
