                         Program Version 4.1.2  - RELEASE  -
|  1> #Run DFT-D3 single point of the dimer
|  2> ! wB97X-D3 def2-TZVP TIGHTSCF CHELPG PMODEL PAL8
|  3>
|  4> %base "22-200_DFT_AB"
|  5>
|  6> %scf
|  7> MaxIter 1000
|  8> end
|  9>
| 10> * xyz 0 1
| 11>   C                      -2.909087            -1.969851            -1.924038
| 12>   O                      -2.827686            -3.108893            -1.172780
| 13>   H                      -1.951877            -3.521882            -1.234771
| 14>   H                      -2.236090            -1.175061            -1.514189
| 15>   H                      -2.615819            -2.207722            -2.943105
| 16>   H                      -3.949701            -1.615946            -1.922414
| 17>   C                      -1.039465            -5.980408            -0.633928
| 18>   O                      -0.525125            -4.704031            -0.958731
| 19>   H                      0.396405             -4.876705            -1.164711
| 20>   H                      -0.893255            -6.150147            0.412700
| 21>   H                      -2.104369            -6.036551            -0.840206
| 22>   H                      -0.600930            -6.805543            -1.238624
| 23> *
| 24>
| 25> #Run DFT-D3 single point of the molecule with dimer basis set
| 26> $new_job
| 27> %base "22-200_DFT_A"
| 28> ! wB97X-D3 def2-TZVP TIGHTSCF CHELPG PMODEL
| 29>
| 30> %scf
| 31> MaxIter 1000
| 32> end
| 33>
| 34> * xyz 0 1
| 35>   C                      -2.909087            -1.969851            -1.924038
| 36>   O                      -2.827686            -3.108893            -1.172780
| 37>   H                      -1.951877            -3.521882            -1.234771
| 38>   H                      -2.236090            -1.175061            -1.514189
| 39>   H                      -2.615819            -2.207722            -2.943105
| 40>   H                      -3.949701            -1.615946            -1.922414
| 41>   C                    : -1.039465            -5.980408            -0.633928
| 42>   O                    : -0.525125            -4.704031            -0.958731
| 43>   H                    : 0.396405             -4.876705            -1.164711
| 44>   H                    : -0.893255            -6.150147            0.412700
| 45>   H                    : -2.104369            -6.036551            -0.840206
| 46>   H                    : -0.600930            -6.805543            -1.238624
| 47> *
| 48>
| 49> #Run DFT-D3 single point of the particle with dimer basis set
| 50> $new_job
| 51> %base "22-200_DFT_B"
| 52> ! wB97X-D3 def2-TZVP TIGHTSCF CHELPG PMODEL
| 53>
| 54> %scf
| 55> MaxIter 1000
| 56> end
| 57>
| 58> * xyz 0 1
| 59>   C                    : -2.909087            -1.969851            -1.924038
| 60>   O                    : -2.827686            -3.108893            -1.172780
| 61>   H                    : -1.951877            -3.521882            -1.234771
| 62>   H                    : -2.236090            -1.175061            -1.514189
| 63>   H                    : -2.615819            -2.207722            -2.943105
| 64>   H                    : -3.949701            -1.615946            -1.922414
| 65>   C                      -1.039465            -5.980408            -0.633928
| 66>   O                      -0.525125            -4.704031            -0.958731
| 67>   H                      0.396405             -4.876705            -1.164711
| 68>   H                      -0.893255            -6.150147            0.412700
| 69>   H                      -2.104369            -6.036551            -0.840206
| 70>   H                      -0.600930            -6.805543            -1.238624
| 71> *
| 72>
| 73>                          ****END OF INPUT****
 Total Charge           Charge          ....    0
 Multiplicity           Mult            ....    1
 Number of Electrons    NEL             ....   36
Dispersion correction           -0.001595386
FINAL SINGLE POINT ENERGY      -231.478280216792
Dispersion correction           -0.000220199
FINAL SINGLE POINT ENERGY      -115.734879565202

CARTESIAN COORDINATES (ANGSTROEM)
---------------------------------
  C     -2.909087   -1.969851   -1.924038
  O     -2.827686   -3.108893   -1.172780
  H     -1.951877   -3.521882   -1.234771
  H     -2.236090   -1.175061   -1.514189
  H     -2.615819   -2.207722   -2.943105
  H     -3.949701   -1.615946   -1.922414
  C     -1.039465   -5.980408   -0.633928
  O     -0.525125   -4.704031   -0.958731
  H      0.396405   -4.876705   -1.164711
  H     -0.893255   -6.150147    0.412700
  H     -2.104369   -6.036551   -0.840206
  H     -0.600930   -6.805543   -1.238624

 Multiplicity           Mult            ....    1
 Number of Electrons    NEL             ....   18
 Basis Dimension        Dim             ....  172

ORBITAL ENERGIES
----------------

  NO   OCC          E(Eh)            E(eV)
   0   2.0000     -19.231719      -523.3217
   1   2.0000     -10.310973      -280.5758
   2   2.0000      -1.139503       -31.0075
   3   2.0000      -0.794939       -21.6314
   4   2.0000      -0.608922       -16.5696
   5   2.0000      -0.548894       -14.9362
   6   2.0000      -0.525634       -14.3032
   7   2.0000      -0.436328       -11.8731
   8   2.0000      -0.375442       -10.2163
   9   0.0000       0.100183         2.7261
  10   0.0000       0.121162         3.2970
  11   0.0000       0.154638         4.2079
  12   0.0000       0.185865         5.0576
  13   0.0000       0.203364         5.5338

MULLIKEN ATOMIC CHARGES
-----------------------
   0 C :    0.000410
   1 O :    0.000702
   2 H :   -0.008703
   3 H :   -0.000241
   4 H :   -0.000692
   5 H :   -0.000103
   6 C :   -0.170662
   7 O :   -0.458195
   8 H :    0.310640
   9 H :    0.106129
  10 H :    0.119547
  11 H :    0.101168
Sum of atomic charges:   -0.0000000

LOEWDIN ATOMIC CHARGES
----------------------
   0 C :   -0.001422
   1 O :   -0.004946
   2 H :   -0.044051
   3 H :   -0.000069
   4 H :   -0.000214
   5 H :   -0.000020
   6 C :   -0.381991
   7 O :   -0.036093
   8 H :    0.170722
   9 H :    0.091870
  10 H :    0.105989
  11 H :    0.100225

  Mayer bond orders larger than 0.1
B(  6-C ,  7-O ) :   0.9922 B(  6-C ,  9-H ) :   0.9765 B(  6-C , 10-H ) :   0.9786
B(  6-C , 11-H ) :   0.9756 B(  7-O ,  8-H ) :   0.9009

Dispersion correction           -0.000230404
FINAL SINGLE POINT ENERGY      -115.735005962043

DIPOLE MOMENT
-------------
                                X             Y             Z
Electronic contribution:      0.54656       1.72270      -0.37507
Nuclear contribution   :     -0.17660      -2.33901       0.36430
                        -----------------------------------------
Total Dipole Moment    :      0.36996      -0.61631      -0.01077
                        -----------------------------------------
Magnitude (a.u.)       :      0.71890
Magnitude (Debye)      :      1.82730

Rotational constants in cm-1:     4.294608     0.835089     0.806555
Rotational constants in MHz : 128749.109296 25035.346273 24179.898901

                             ****ORCA TERMINATED NORMALLY****
TOTAL RUN TIME: 0 days 0 hours 1 minutes 7 seconds 772 msec
