                         Program Version 4.1.2  - RELEASE  -
|  1> #Run DFT-D3 single point of the dimer
|  2> ! wB97X-D3 def2-TZVP TIGHTSCF CHELPG PMODEL PAL8
|  3>
|  4> %base "5-185_DFT_AB"
|  5>
|  6> %scf
|  7> MaxIter 1000
|  8> end
|  9>
| 10> * xyz 0 1
| 11>   C                      -8.262717            -6.866965            7.163468
| 12>   O                      -8.631724            -5.577603            7.600791
| 13>   H                      -7.791908            -5.073595            7.527748
| 14>   H                      -8.638029            -6.983062            6.132884
| 15>   H                      -7.178443            -7.052061            7.160548
| 16>   H                      -8.698456            -7.739669            7.746829
| 17>   C                      -10.372596           -5.718702            4.295964
| 18>   O                      -11.153164           -5.743118            5.525971
| 19>   H                      -10.480588           -5.882136            6.196718
| 20>   H                      -10.250478           -6.707524            3.862479
| 21>   H                      -10.958826           -5.131799            3.559018
| 22>   H                      -9.409572            -5.251173            4.503374
| 23> *
| 24>
| 25> #Run DFT-D3 single point of the molecule with dimer basis set
| 26> $new_job
| 27> %base "5-185_DFT_A"
| 28> ! wB97X-D3 def2-TZVP TIGHTSCF CHELPG PMODEL
| 29>
| 30> %scf
| 31> MaxIter 1000
| 32> end
| 33>
| 34> * xyz 0 1
| 35>   C                      -8.262717            -6.866965            7.163468
| 36>   O                      -8.631724            -5.577603            7.600791
| 37>   H                      -7.791908            -5.073595            7.527748
| 38>   H                      -8.638029            -6.983062            6.132884
| 39>   H                      -7.178443            -7.052061            7.160548
| 40>   H                      -8.698456            -7.739669            7.746829
| 41>   C                    : -10.372596           -5.718702            4.295964
| 42>   O                    : -11.153164           -5.743118            5.525971
| 43>   H                    : -10.480588           -5.882136            6.196718
| 44>   H                    : -10.250478           -6.707524            3.862479
| 45>   H                    : -10.958826           -5.131799            3.559018
| 46>   H                    : -9.409572            -5.251173            4.503374
| 47> *
| 48>
| 49> #Run DFT-D3 single point of the particle with dimer basis set
| 50> $new_job
| 51> %base "5-185_DFT_B"
| 52> ! wB97X-D3 def2-TZVP TIGHTSCF CHELPG PMODEL
| 53>
| 54> %scf
| 55> MaxIter 1000
| 56> end
| 57>
| 58> * xyz 0 1
| 59>   C                    : -8.262717            -6.866965            7.163468
| 60>   O                    : -8.631724            -5.577603            7.600791
| 61>   H                    : -7.791908            -5.073595            7.527748
| 62>   H                    : -8.638029            -6.983062            6.132884
| 63>   H                    : -7.178443            -7.052061            7.160548
| 64>   H                    : -8.698456            -7.739669            7.746829
| 65>   C                      -10.372596           -5.718702            4.295964
| 66>   O                      -11.153164           -5.743118            5.525971
| 67>   H                      -10.480588           -5.882136            6.196718
| 68>   H                      -10.250478           -6.707524            3.862479
| 69>   H                      -10.958826           -5.131799            3.559018
| 70>   H                      -9.409572            -5.251173            4.503374
| 71> *
| 72>
| 73>                          ****END OF INPUT****
 Total Charge           Charge          ....    0
 Multiplicity           Mult            ....    1
 Number of Electrons    NEL             ....   36
Dispersion correction           -0.002137122
FINAL SINGLE POINT ENERGY      -231.470331471621
Dispersion correction           -0.000250454
FINAL SINGLE POINT ENERGY      -115.731524902214

CARTESIAN COORDINATES (ANGSTROEM)
---------------------------------
  C     -8.262717   -6.866965    7.163468
  O     -8.631724   -5.577603    7.600791
  H     -7.791908   -5.073595    7.527748
  H     -8.638029   -6.983062    6.132884
  H     -7.178443   -7.052061    7.160548
  H     -8.698456   -7.739669    7.746829
  C    -10.372596   -5.718702    4.295964
  O    -11.153164   -5.743118    5.525971
  H    -10.480588   -5.882136    6.196718
  H    -10.250478   -6.707524    3.862479
  H    -10.958826   -5.131799    3.559018
  H     -9.409572   -5.251173    4.503374

 Multiplicity           Mult            ....    1
 Number of Electrons    NEL             ....   18
 Basis Dimension        Dim             ....  172

ORBITAL ENERGIES
----------------

  NO   OCC          E(Eh)            E(eV)
   0   2.0000     -19.230620      -523.2918
   1   2.0000     -10.317510      -280.7537
   2   2.0000      -1.126791       -30.6616
   3   2.0000      -0.793814       -21.6008
   4   2.0000      -0.602832       -16.4039
   5   2.0000      -0.541626       -14.7384
   6   2.0000      -0.518143       -14.0994
   7   2.0000      -0.442796       -12.0491
   8   2.0000      -0.375431       -10.2160
   9   0.0000       0.068536         1.8650
  10   0.0000       0.142760         3.8847
  11   0.0000       0.147982         4.0268
  12   0.0000       0.153702         4.1825
  13   0.0000       0.193536         5.2664

MULLIKEN ATOMIC CHARGES
-----------------------
   0 C :   -0.007551
   1 O :   -0.000477
   2 H :    0.000026
   3 H :    0.003098
   4 H :   -0.000299
   5 H :    0.000482
   6 C :   -0.184214
   7 O :   -0.467182
   8 H :    0.308028
   9 H :    0.109294
  10 H :    0.126483
  11 H :    0.112311
Sum of atomic charges:   -0.0000000

LOEWDIN ATOMIC CHARGES
----------------------
   0 C :   -0.010205
   1 O :   -0.005479
   2 H :   -0.000267
   3 H :   -0.005854
   4 H :   -0.000136
   5 H :   -0.000277
   6 C :   -0.352258
   7 O :   -0.098595
   8 H :    0.168395
   9 H :    0.095320
  10 H :    0.111131
  11 H :    0.098228

  Mayer bond orders larger than 0.1
B(  6-C ,  7-O ) :   0.9850 B(  6-C ,  9-H ) :   0.9709 B(  6-C , 10-H ) :   0.9776
B(  6-C , 11-H ) :   0.9809 B(  7-O ,  8-H ) :   0.9173

Dispersion correction           -0.000242282
FINAL SINGLE POINT ENERGY      -115.734705769799

DIPOLE MOMENT
-------------
                                X             Y             Z
Electronic contribution:     -1.04266      -0.03394       1.42969
Nuclear contribution   :      1.77725      -0.03461      -1.52703
                        -----------------------------------------
Total Dipole Moment    :      0.73459      -0.06855      -0.09734
                        -----------------------------------------
Magnitude (a.u.)       :      0.74417
Magnitude (Debye)      :      1.89153

Rotational constants in cm-1:     4.171348     0.804649     0.771192
Rotational constants in MHz : 125053.881318 24122.764370 23119.767372

                             ****ORCA TERMINATED NORMALLY****
TOTAL RUN TIME: 0 days 0 hours 1 minutes 1 seconds 826 msec
