                         Program Version 4.1.2  - RELEASE  -
|  1> #Run DFT-D3 single point of the dimer
|  2> ! wB97X-D3 def2-TZVP TIGHTSCF CHELPG PMODEL PAL8
|  3>
|  4> %base "5-130_DFT_AB"
|  5>
|  6> %scf
|  7> MaxIter 1000
|  8> end
|  9>
| 10> * xyz 0 1
| 11>   C                      -7.477111            -4.456450            -6.946488
| 12>   O                      -7.988286            -4.822817            -5.665183
| 13>   H                      -7.892709            -4.108142            -5.012299
| 14>   H                      -6.388501            -4.259669            -7.003349
| 15>   H                      -7.612256            -5.270702            -7.671501
| 16>   H                      -7.996882            -3.590406            -7.298455
| 17>   C                      -3.808574            -2.865597            -3.912877
| 18>   O                      -5.088948            -2.779502            -3.379765
| 19>   H                      -5.243762            -3.512747            -2.820870
| 20>   H                      -3.708712            -2.261601            -4.794589
| 21>   H                      -2.979680            -2.555492            -3.204969
| 22>   H                      -3.569196            -3.920728            -4.166138
| 23> *
| 24>
| 25> #Run DFT-D3 single point of the molecule with dimer basis set
| 26> $new_job
| 27> %base "5-130_DFT_A"
| 28> ! wB97X-D3 def2-TZVP TIGHTSCF CHELPG PMODEL
| 29>
| 30> %scf
| 31> MaxIter 1000
| 32> end
| 33>
| 34> * xyz 0 1
| 35>   C                      -7.477111            -4.456450            -6.946488
| 36>   O                      -7.988286            -4.822817            -5.665183
| 37>   H                      -7.892709            -4.108142            -5.012299
| 38>   H                      -6.388501            -4.259669            -7.003349
| 39>   H                      -7.612256            -5.270702            -7.671501
| 40>   H                      -7.996882            -3.590406            -7.298455
| 41>   C                    : -3.808574            -2.865597            -3.912877
| 42>   O                    : -5.088948            -2.779502            -3.379765
| 43>   H                    : -5.243762            -3.512747            -2.820870
| 44>   H                    : -3.708712            -2.261601            -4.794589
| 45>   H                    : -2.979680            -2.555492            -3.204969
| 46>   H                    : -3.569196            -3.920728            -4.166138
| 47> *
| 48>
| 49> #Run DFT-D3 single point of the particle with dimer basis set
| 50> $new_job
| 51> %base "5-130_DFT_B"
| 52> ! wB97X-D3 def2-TZVP TIGHTSCF CHELPG PMODEL
| 53>
| 54> %scf
| 55> MaxIter 1000
| 56> end
| 57>
| 58> * xyz 0 1
| 59>   C                    : -7.477111            -4.456450            -6.946488
| 60>   O                    : -7.988286            -4.822817            -5.665183
| 61>   H                    : -7.892709            -4.108142            -5.012299
| 62>   H                    : -6.388501            -4.259669            -7.003349
| 63>   H                    : -7.612256            -5.270702            -7.671501
| 64>   H                    : -7.996882            -3.590406            -7.298455
| 65>   C                      -3.808574            -2.865597            -3.912877
| 66>   O                      -5.088948            -2.779502            -3.379765
| 67>   H                      -5.243762            -3.512747            -2.820870
| 68>   H                      -3.708712            -2.261601            -4.794589
| 69>   H                      -2.979680            -2.555492            -3.204969
| 70>   H                      -3.569196            -3.920728            -4.166138
| 71> *
| 72>
| 73>                          ****END OF INPUT****
 Total Charge           Charge          ....    0
 Multiplicity           Mult            ....    1
 Number of Electrons    NEL             ....   36
Dispersion correction           -0.001079266
FINAL SINGLE POINT ENERGY      -231.471205587385
Dispersion correction           -0.000264708
FINAL SINGLE POINT ENERGY      -115.734452048408

CARTESIAN COORDINATES (ANGSTROEM)
---------------------------------
  C     -7.477111   -4.456450   -6.946488
  O     -7.988286   -4.822817   -5.665183
  H     -7.892709   -4.108142   -5.012299
  H     -6.388501   -4.259669   -7.003349
  H     -7.612256   -5.270702   -7.671501
  H     -7.996882   -3.590406   -7.298455
  C     -3.808574   -2.865597   -3.912877
  O     -5.088948   -2.779502   -3.379765
  H     -5.243762   -3.512747   -2.820870
  H     -3.708712   -2.261601   -4.794589
  H     -2.979680   -2.555492   -3.204969
  H     -3.569196   -3.920728   -4.166138

 Multiplicity           Mult            ....    1
 Number of Electrons    NEL             ....   18
 Basis Dimension        Dim             ....  172

ORBITAL ENERGIES
----------------

  NO   OCC          E(Eh)            E(eV)
   0   2.0000     -19.229886      -523.2718
   1   2.0000     -10.315774      -280.7065
   2   2.0000      -1.149620       -31.2828
   3   2.0000      -0.796490       -21.6736
   4   2.0000      -0.620592       -16.8872
   5   2.0000      -0.538191       -14.6449
   6   2.0000      -0.534802       -14.5527
   7   2.0000      -0.434161       -11.8141
   8   2.0000      -0.371576       -10.1111
   9   0.0000       0.088622         2.4115
  10   0.0000       0.119852         3.2613
  11   0.0000       0.149062         4.0562
  12   0.0000       0.180359         4.9078
  13   0.0000       0.193966         5.2781

MULLIKEN ATOMIC CHARGES
-----------------------
   0 C :   -0.000180
   1 O :    0.000286
   2 H :   -0.002526
   3 H :   -0.000152
   4 H :   -0.000023
   5 H :    0.000068
   6 C :   -0.156530
   7 O :   -0.465059
   8 H :    0.315045
   9 H :    0.121375
  10 H :    0.092523
  11 H :    0.095173
Sum of atomic charges:   -0.0000000

LOEWDIN ATOMIC CHARGES
----------------------
   0 C :   -0.000380
   1 O :   -0.000137
   2 H :   -0.002056
   3 H :   -0.000113
   4 H :   -0.000008
   5 H :   -0.000002
   6 C :   -0.405096
   7 O :   -0.044574
   8 H :    0.155637
   9 H :    0.102408
  10 H :    0.098005
  11 H :    0.096316

  Mayer bond orders larger than 0.1
B(  6-C ,  7-O ) :   1.0032 B(  6-C ,  9-H ) :   0.9745 B(  6-C , 10-H ) :   0.9676
B(  6-C , 11-H ) :   0.9855 B(  7-O ,  8-H ) :   0.9015

Dispersion correction           -0.000241802
FINAL SINGLE POINT ENERGY      -115.734660237829

DIPOLE MOMENT
-------------
                                X             Y             Z
Electronic contribution:     -1.78848       0.29236       0.59158
Nuclear contribution   :      2.17076      -0.80672      -0.44996
                        -----------------------------------------
Total Dipole Moment    :      0.38228      -0.51436       0.14161
                        -----------------------------------------
Magnitude (a.u.)       :      0.65632
Magnitude (Debye)      :      1.66824

Rotational constants in cm-1:     4.337574     0.847706     0.817209
Rotational constants in MHz : 130037.193936 25413.583883 24499.306466

                             ****ORCA TERMINATED NORMALLY****
TOTAL RUN TIME: 0 days 0 hours 0 minutes 50 seconds 468 msec
