                         Program Version 4.1.2  - RELEASE  -
|  1> #Run DFT-D3 single point of the dimer
|  2> ! wB97X-D3 def2-TZVP TIGHTSCF CHELPG PMODEL PAL8
|  3>
|  4> %base "7-175_DFT_AB"
|  5>
|  6> %scf
|  7> MaxIter 1000
|  8> end
|  9>
| 10> * xyz 0 1
| 11>   C                      -10.278311           5.123183             3.627313
| 12>   O                      -9.458025            4.117887             3.175524
| 13>   H                      -8.964271            4.480110             2.399712
| 14>   H                      -9.747657            6.136612             3.746273
| 15>   H                      -11.167310           5.214118             3.055660
| 16>   H                      -10.583108           4.878955             4.604476
| 17>   C                      -10.943097           0.425347             2.454260
| 18>   O                      -11.275591           1.789713             2.688110
| 19>   H                      -10.498582           2.317597             2.812036
| 20>   H                      -11.903830           -0.107771            2.217241
| 21>   H                      -10.259941           0.289201             1.615713
| 22>   H                      -10.324533           0.115446             3.281784
| 23> *
| 24>
| 25> #Run DFT-D3 single point of the molecule with dimer basis set
| 26> $new_job
| 27> %base "7-175_DFT_A"
| 28> ! wB97X-D3 def2-TZVP TIGHTSCF CHELPG PMODEL
| 29>
| 30> %scf
| 31> MaxIter 1000
| 32> end
| 33>
| 34> * xyz 0 1
| 35>   C                      -10.278311           5.123183             3.627313
| 36>   O                      -9.458025            4.117887             3.175524
| 37>   H                      -8.964271            4.480110             2.399712
| 38>   H                      -9.747657            6.136612             3.746273
| 39>   H                      -11.167310           5.214118             3.055660
| 40>   H                      -10.583108           4.878955             4.604476
| 41>   C                    : -10.943097           0.425347             2.454260
| 42>   O                    : -11.275591           1.789713             2.688110
| 43>   H                    : -10.498582           2.317597             2.812036
| 44>   H                    : -11.903830           -0.107771            2.217241
| 45>   H                    : -10.259941           0.289201             1.615713
| 46>   H                    : -10.324533           0.115446             3.281784
| 47> *
| 48>
| 49> #Run DFT-D3 single point of the particle with dimer basis set
| 50> $new_job
| 51> %base "7-175_DFT_B"
| 52> ! wB97X-D3 def2-TZVP TIGHTSCF CHELPG PMODEL
| 53>
| 54> %scf
| 55> MaxIter 1000
| 56> end
| 57>
| 58> * xyz 0 1
| 59>   C                    : -10.278311           5.123183             3.627313
| 60>   O                    : -9.458025            4.117887             3.175524
| 61>   H                    : -8.964271            4.480110             2.399712
| 62>   H                    : -9.747657            6.136612             3.746273
| 63>   H                    : -11.167310           5.214118             3.055660
| 64>   H                    : -10.583108           4.878955             4.604476
| 65>   C                      -10.943097           0.425347             2.454260
| 66>   O                      -11.275591           1.789713             2.688110
| 67>   H                      -10.498582           2.317597             2.812036
| 68>   H                      -11.903830           -0.107771            2.217241
| 69>   H                      -10.259941           0.289201             1.615713
| 70>   H                      -10.324533           0.115446             3.281784
| 71> *
| 72>
| 73>                          ****END OF INPUT****
 Total Charge           Charge          ....    0
 Multiplicity           Mult            ....    1
 Number of Electrons    NEL             ....   36
Dispersion correction           -0.001527457
FINAL SINGLE POINT ENERGY      -231.470271189771
Dispersion correction           -0.000229741
FINAL SINGLE POINT ENERGY      -115.731696470375

CARTESIAN COORDINATES (ANGSTROEM)
---------------------------------
  C    -10.278311    5.123183    3.627313
  O     -9.458025    4.117887    3.175524
  H     -8.964271    4.480110    2.399712
  H     -9.747657    6.136612    3.746273
  H    -11.167310    5.214118    3.055660
  H    -10.583108    4.878955    4.604476
  C    -10.943097    0.425347    2.454260
  O    -11.275591    1.789713    2.688110
  H    -10.498582    2.317597    2.812036
  H    -11.903830   -0.107771    2.217241
  H    -10.259941    0.289201    1.615713
  H    -10.324533    0.115446    3.281784

 Multiplicity           Mult            ....    1
 Number of Electrons    NEL             ....   18
 Basis Dimension        Dim             ....  172

ORBITAL ENERGIES
----------------

  NO   OCC          E(Eh)            E(eV)
   0   2.0000     -19.224834      -523.1343
   1   2.0000     -10.315691      -280.7042
   2   2.0000      -1.132681       -30.8218
   3   2.0000      -0.796585       -21.6762
   4   2.0000      -0.616150       -16.7663
   5   2.0000      -0.542855       -14.7718
   6   2.0000      -0.516918       -14.0660
   7   2.0000      -0.435839       -11.8598
   8   2.0000      -0.368423       -10.0253
   9   0.0000       0.076724         2.0878
  10   0.0000       0.127178         3.4607
  11   0.0000       0.156944         4.2707
  12   0.0000       0.170282         4.6336
  13   0.0000       0.193974         5.2783

MULLIKEN ATOMIC CHARGES
-----------------------
   0 C :   -0.000146
   1 O :   -0.000669
   2 H :   -0.000266
   3 H :    0.000022
   4 H :   -0.000759
   5 H :   -0.000375
   6 C :   -0.166288
   7 O :   -0.476747
   8 H :    0.306848
   9 H :    0.128196
  10 H :    0.101010
  11 H :    0.109173
Sum of atomic charges:    0.0000000

LOEWDIN ATOMIC CHARGES
----------------------
   0 C :   -0.003953
   1 O :   -0.012035
   2 H :   -0.000995
   3 H :   -0.000044
   4 H :   -0.000588
   5 H :   -0.000341
   6 C :   -0.374517
   7 O :   -0.075736
   8 H :    0.162775
   9 H :    0.119866
  10 H :    0.091426
  11 H :    0.094140

  Mayer bond orders larger than 0.1
B(  6-C ,  7-O ) :   0.9835 B(  6-C ,  9-H ) :   0.9702 B(  6-C , 10-H ) :   0.9728
B(  6-C , 11-H ) :   0.9832 B(  7-O ,  8-H ) :   0.9050

Dispersion correction           -0.000232848
FINAL SINGLE POINT ENERGY      -115.731074157245

DIPOLE MOMENT
-------------
                                X             Y             Z
Electronic contribution:     -0.61482       1.57821       0.31476
Nuclear contribution   :      1.26440      -1.79800      -0.34651
                        -----------------------------------------
Total Dipole Moment    :      0.64958      -0.21979      -0.03175
                        -----------------------------------------
Magnitude (a.u.)       :      0.68649
Magnitude (Debye)      :      1.74492

Rotational constants in cm-1:     4.241745     0.835382     0.789473
Rotational constants in MHz : 127164.308306 25044.116512 23667.818548

                             ****ORCA TERMINATED NORMALLY****
TOTAL RUN TIME: 0 days 0 hours 1 minutes 6 seconds 880 msec
