                         Program Version 4.1.2  - RELEASE  -
|  1> #Run DFT-D3 single point of the dimer
|  2> ! wB97X-D3 def2-TZVP TIGHTSCF CHELPG PMODEL PAL8
|  3>
|  4> %base "20-22_DFT_AB"
|  5>
|  6> %scf
|  7> MaxIter 1000
|  8> end
|  9>
| 10> * xyz 0 1
| 11>   C                      7.022081             -8.326697            9.853911
| 12>   O                      7.322670             -8.141552            11.271273
| 13>   H                      6.715127             -8.811474            11.650271
| 14>   H                      7.204798             -7.429468            9.312744
| 15>   H                      7.707695             -9.087207            9.380179
| 16>   H                      5.996552             -8.662078            9.599881
| 17>   C                      8.338665             -5.466422            7.264269
| 18>   O                      9.675011             -5.533234            7.796910
| 19>   H                      10.091754            -6.202308            7.263621
| 20>   H                      7.825557             -6.392799            7.377399
| 21>   H                      7.740624             -4.840618            7.877893
| 22>   H                      8.060300             -5.156455            6.205642
| 23> *
| 24>
| 25> #Run DFT-D3 single point of the molecule with dimer basis set
| 26> $new_job
| 27> %base "20-22_DFT_A"
| 28> ! wB97X-D3 def2-TZVP TIGHTSCF CHELPG PMODEL
| 29>
| 30> %scf
| 31> MaxIter 1000
| 32> end
| 33>
| 34> * xyz 0 1
| 35>   C                      7.022081             -8.326697            9.853911
| 36>   O                      7.322670             -8.141552            11.271273
| 37>   H                      6.715127             -8.811474            11.650271
| 38>   H                      7.204798             -7.429468            9.312744
| 39>   H                      7.707695             -9.087207            9.380179
| 40>   H                      5.996552             -8.662078            9.599881
| 41>   C                    : 8.338665             -5.466422            7.264269
| 42>   O                    : 9.675011             -5.533234            7.796910
| 43>   H                    : 10.091754            -6.202308            7.263621
| 44>   H                    : 7.825557             -6.392799            7.377399
| 45>   H                    : 7.740624             -4.840618            7.877893
| 46>   H                    : 8.060300             -5.156455            6.205642
| 47> *
| 48>
| 49> #Run DFT-D3 single point of the particle with dimer basis set
| 50> $new_job
| 51> %base "20-22_DFT_B"
| 52> ! wB97X-D3 def2-TZVP TIGHTSCF CHELPG PMODEL
| 53>
| 54> %scf
| 55> MaxIter 1000
| 56> end
| 57>
| 58> * xyz 0 1
| 59>   C                    : 7.022081             -8.326697            9.853911
| 60>   O                    : 7.322670             -8.141552            11.271273
| 61>   H                    : 6.715127             -8.811474            11.650271
| 62>   H                    : 7.204798             -7.429468            9.312744
| 63>   H                    : 7.707695             -9.087207            9.380179
| 64>   H                    : 5.996552             -8.662078            9.599881
| 65>   C                      8.338665             -5.466422            7.264269
| 66>   O                      9.675011             -5.533234            7.796910
| 67>   H                      10.091754            -6.202308            7.263621
| 68>   H                      7.825557             -6.392799            7.377399
| 69>   H                      7.740624             -4.840618            7.877893
| 70>   H                      8.060300             -5.156455            6.205642
| 71> *
| 72>
| 73>                          ****END OF INPUT****
 Total Charge           Charge          ....    0
 Multiplicity           Mult            ....    1
 Number of Electrons    NEL             ....   36
Dispersion correction           -0.001448964
FINAL SINGLE POINT ENERGY      -231.456704865349
Dispersion correction           -0.000267013
FINAL SINGLE POINT ENERGY      -115.730413669733

CARTESIAN COORDINATES (ANGSTROEM)
---------------------------------
  C      7.022081   -8.326697    9.853911
  O      7.322670   -8.141552   11.271273
  H      6.715127   -8.811474   11.650271
  H      7.204798   -7.429468    9.312744
  H      7.707695   -9.087207    9.380179
  H      5.996552   -8.662078    9.599881
  C      8.338665   -5.466422    7.264269
  O      9.675011   -5.533234    7.796910
  H     10.091754   -6.202308    7.263621
  H      7.825557   -6.392799    7.377399
  H      7.740624   -4.840618    7.877893
  H      8.060300   -5.156455    6.205642

 Multiplicity           Mult            ....    1
 Number of Electrons    NEL             ....   18
 Basis Dimension        Dim             ....  172

ORBITAL ENERGIES
----------------

  NO   OCC          E(Eh)            E(eV)
   0   2.0000     -19.239345      -523.5292
   1   2.0000     -10.313134      -280.6346
   2   2.0000      -1.137049       -30.9407
   3   2.0000      -0.803069       -21.8526
   4   2.0000      -0.611869       -16.6498
   5   2.0000      -0.531434       -14.4611
   6   2.0000      -0.524603       -14.2752
   7   2.0000      -0.444430       -12.0936
   8   2.0000      -0.379498       -10.3267
   9   0.0000       0.085638         2.3303
  10   0.0000       0.121769         3.3135
  11   0.0000       0.143456         3.9036
  12   0.0000       0.172043         4.6815
  13   0.0000       0.192559         5.2398

MULLIKEN ATOMIC CHARGES
-----------------------
   0 C :   -0.001606
   1 O :    0.000036
   2 H :    0.000002
   3 H :    0.003368
   4 H :   -0.000348
   5 H :    0.000275
   6 C :   -0.180794
   7 O :   -0.460457
   8 H :    0.314259
   9 H :    0.106079
  10 H :    0.115715
  11 H :    0.103471
Sum of atomic charges:   -0.0000000

LOEWDIN ATOMIC CHARGES
----------------------
   0 C :   -0.002731
   1 O :   -0.000016
   2 H :   -0.000004
   3 H :   -0.004629
   4 H :   -0.000113
   5 H :   -0.000029
   6 C :   -0.379663
   7 O :   -0.077555
   8 H :    0.165561
   9 H :    0.092335
  10 H :    0.102646
  11 H :    0.104196

  Mayer bond orders larger than 0.1
B(  6-C ,  7-O ) :   1.0121 B(  6-C ,  9-H ) :   0.9803 B(  6-C , 10-H ) :   0.9810
B(  6-C , 11-H ) :   0.9602 B(  7-O ,  8-H ) :   0.9040

Dispersion correction           -0.000280649
FINAL SINGLE POINT ENERGY      -115.726397374860

DIPOLE MOMENT
-------------
                                X             Y             Z
Electronic contribution:      1.90866       0.06354       0.76445
Nuclear contribution   :     -2.19611      -0.47078      -1.26666
                        -----------------------------------------
Total Dipole Moment    :     -0.28745      -0.40723      -0.50221
                        -----------------------------------------
Magnitude (a.u.)       :      0.70759
Magnitude (Debye)      :      1.79855

Rotational constants in cm-1:     4.610289     0.792873     0.766457
Rotational constants in MHz : 138212.973113 23769.744519 22977.796981

                             ****ORCA TERMINATED NORMALLY****
TOTAL RUN TIME: 0 days 0 hours 1 minutes 3 seconds 606 msec
