                         Program Version 4.1.2  - RELEASE  -
|  1> #Run DFT-D3 single point of the dimer
|  2> ! wB97X-D3 def2-TZVP TIGHTSCF CHELPG PMODEL PAL8
|  3>
|  4> %base "9-120_DFT_AB"
|  5>
|  6> %scf
|  7> MaxIter 1000
|  8> end
|  9>
| 10> * xyz 0 1
| 11>   C                      -10.376710           0.560321             10.733533
| 12>   O                      -10.489828           -0.487567            9.837764
| 13>   H                      -9.996989            -0.133378            9.085985
| 14>   H                      -11.348913           0.771899             11.190426
| 15>   H                      -9.592105            0.376492             11.515323
| 16>   H                      -10.203514           1.569726             10.237749
| 17>   C                      -7.771424            0.982085             7.289678
| 18>   O                      -9.054196            0.369781             7.319152
| 19>   H                      -8.995162            -0.225414            6.610430
| 20>   H                      -6.929032            0.295806             7.335867
| 21>   H                      -7.578902            1.617215             6.425651
| 22>   H                      -7.614184            1.661743             8.103123
| 23> *
| 24>
| 25> #Run DFT-D3 single point of the molecule with dimer basis set
| 26> $new_job
| 27> %base "9-120_DFT_A"
| 28> ! wB97X-D3 def2-TZVP TIGHTSCF CHELPG PMODEL
| 29>
| 30> %scf
| 31> MaxIter 1000
| 32> end
| 33>
| 34> * xyz 0 1
| 35>   C                      -10.376710           0.560321             10.733533
| 36>   O                      -10.489828           -0.487567            9.837764
| 37>   H                      -9.996989            -0.133378            9.085985
| 38>   H                      -11.348913           0.771899             11.190426
| 39>   H                      -9.592105            0.376492             11.515323
| 40>   H                      -10.203514           1.569726             10.237749
| 41>   C                    : -7.771424            0.982085             7.289678
| 42>   O                    : -9.054196            0.369781             7.319152
| 43>   H                    : -8.995162            -0.225414            6.610430
| 44>   H                    : -6.929032            0.295806             7.335867
| 45>   H                    : -7.578902            1.617215             6.425651
| 46>   H                    : -7.614184            1.661743             8.103123
| 47> *
| 48>
| 49> #Run DFT-D3 single point of the particle with dimer basis set
| 50> $new_job
| 51> %base "9-120_DFT_B"
| 52> ! wB97X-D3 def2-TZVP TIGHTSCF CHELPG PMODEL
| 53>
| 54> %scf
| 55> MaxIter 1000
| 56> end
| 57>
| 58> * xyz 0 1
| 59>   C                    : -10.376710           0.560321             10.733533
| 60>   O                    : -10.489828           -0.487567            9.837764
| 61>   H                    : -9.996989            -0.133378            9.085985
| 62>   H                    : -11.348913           0.771899             11.190426
| 63>   H                    : -9.592105            0.376492             11.515323
| 64>   H                    : -10.203514           1.569726             10.237749
| 65>   C                      -7.771424            0.982085             7.289678
| 66>   O                      -9.054196            0.369781             7.319152
| 67>   H                      -8.995162            -0.225414            6.610430
| 68>   H                      -6.929032            0.295806             7.335867
| 69>   H                      -7.578902            1.617215             6.425651
| 70>   H                      -7.614184            1.661743             8.103123
| 71> *
| 72>
| 73>                          ****END OF INPUT****
 Total Charge           Charge          ....    0
 Multiplicity           Mult            ....    1
 Number of Electrons    NEL             ....   36
Dispersion correction           -0.001693556
FINAL SINGLE POINT ENERGY      -231.471141245375
Dispersion correction           -0.000235811
FINAL SINGLE POINT ENERGY      -115.729930899888

CARTESIAN COORDINATES (ANGSTROEM)
---------------------------------
  C    -10.376710    0.560321   10.733533
  O    -10.489828   -0.487567    9.837764
  H     -9.996989   -0.133378    9.085985
  H    -11.348913    0.771899   11.190426
  H     -9.592105    0.376492   11.515323
  H    -10.203514    1.569726   10.237749
  C     -7.771424    0.982085    7.289678
  O     -9.054196    0.369781    7.319152
  H     -8.995162   -0.225414    6.610430
  H     -6.929032    0.295806    7.335867
  H     -7.578902    1.617215    6.425651
  H     -7.614184    1.661743    8.103123

 Multiplicity           Mult            ....    1
 Number of Electrons    NEL             ....   18
 Basis Dimension        Dim             ....  172

ORBITAL ENERGIES
----------------

  NO   OCC          E(Eh)            E(eV)
   0   2.0000     -19.234993      -523.4108
   1   2.0000     -10.310877      -280.5732
   2   2.0000      -1.147568       -31.2269
   3   2.0000      -0.802714       -21.8430
   4   2.0000      -0.616020       -16.7628
   5   2.0000      -0.539776       -14.6880
   6   2.0000      -0.530145       -14.4260
   7   2.0000      -0.444333       -12.0909
   8   2.0000      -0.379325       -10.3220
   9   0.0000       0.099350         2.7034
  10   0.0000       0.125981         3.4281
  11   0.0000       0.150693         4.1006
  12   0.0000       0.189827         5.1654
  13   0.0000       0.202121         5.5000

MULLIKEN ATOMIC CHARGES
-----------------------
   0 C :    0.001418
   1 O :   -0.001212
   2 H :   -0.008580
   3 H :   -0.000096
   4 H :   -0.000029
   5 H :   -0.001069
   6 C :   -0.180649
   7 O :   -0.448571
   8 H :    0.308077
   9 H :    0.103617
  10 H :    0.104010
  11 H :    0.123084
Sum of atomic charges:   -0.0000000

LOEWDIN ATOMIC CHARGES
----------------------
   0 C :   -0.001584
   1 O :   -0.003552
   2 H :   -0.033416
   3 H :   -0.000017
   4 H :   -0.000016
   5 H :   -0.000384
   6 C :   -0.382746
   7 O :   -0.025122
   8 H :    0.151853
   9 H :    0.094049
  10 H :    0.096033
  11 H :    0.104903

  Mayer bond orders larger than 0.1
B(  6-C ,  7-O ) :   0.9947 B(  6-C ,  9-H ) :   0.9762 B(  6-C , 10-H ) :   0.9693
B(  6-C , 11-H ) :   0.9790 B(  7-O ,  8-H ) :   0.9080

Dispersion correction           -0.000241124
FINAL SINGLE POINT ENERGY      -115.732692073674

DIPOLE MOMENT
-------------
                                X             Y             Z
Electronic contribution:     -1.82027      -0.78819       0.16299
Nuclear contribution   :      2.36824       0.66821      -0.61536
                        -----------------------------------------
Total Dipole Moment    :      0.54798      -0.11997      -0.45237
                        -----------------------------------------
Magnitude (a.u.)       :      0.72063
Magnitude (Debye)      :      1.83169

Rotational constants in cm-1:     4.553273     0.819208     0.792254
Rotational constants in MHz : 136503.693973 24559.232519 23751.171700

                             ****ORCA TERMINATED NORMALLY****
TOTAL RUN TIME: 0 days 0 hours 0 minutes 46 seconds 56 msec
