                         Program Version 4.1.2  - RELEASE  -
|  1> #Run DFT-D3 single point of the dimer
|  2> ! wB97X-D3 def2-TZVP TIGHTSCF CHELPG PMODEL PAL8
|  3>
|  4> %base "18-34_DFT_AB"
|  5>
|  6> %scf
|  7> MaxIter 1000
|  8> end
|  9>
| 10> * xyz 0 1
| 11>   C                      5.188788             2.614549             -0.430988
| 12>   O                      4.272714             3.629414             -0.212891
| 13>   H                      4.735754             4.461235             -0.188900
| 14>   H                      5.899015             2.492255             0.391204
| 15>   H                      4.718363             1.670627             -0.695147
| 16>   H                      5.822392             2.953750             -1.309417
| 17>   C                      3.266396             -0.889285            -2.984227
| 18>   O                      3.505058             0.481020             -3.203924
| 19>   H                      2.891223             0.829937             -3.866826
| 20>   H                      2.185870             -1.135374            -3.076854
| 21>   H                      3.829845             -1.465213            -3.662764
| 22>   H                      3.600866             -1.211609            -1.939577
| 23> *
| 24>
| 25> #Run DFT-D3 single point of the molecule with dimer basis set
| 26> $new_job
| 27> %base "18-34_DFT_A"
| 28> ! wB97X-D3 def2-TZVP TIGHTSCF CHELPG PMODEL
| 29>
| 30> %scf
| 31> MaxIter 1000
| 32> end
| 33>
| 34> * xyz 0 1
| 35>   C                      5.188788             2.614549             -0.430988
| 36>   O                      4.272714             3.629414             -0.212891
| 37>   H                      4.735754             4.461235             -0.188900
| 38>   H                      5.899015             2.492255             0.391204
| 39>   H                      4.718363             1.670627             -0.695147
| 40>   H                      5.822392             2.953750             -1.309417
| 41>   C                    : 3.266396             -0.889285            -2.984227
| 42>   O                    : 3.505058             0.481020             -3.203924
| 43>   H                    : 2.891223             0.829937             -3.866826
| 44>   H                    : 2.185870             -1.135374            -3.076854
| 45>   H                    : 3.829845             -1.465213            -3.662764
| 46>   H                    : 3.600866             -1.211609            -1.939577
| 47> *
| 48>
| 49> #Run DFT-D3 single point of the particle with dimer basis set
| 50> $new_job
| 51> %base "18-34_DFT_B"
| 52> ! wB97X-D3 def2-TZVP TIGHTSCF CHELPG PMODEL
| 53>
| 54> %scf
| 55> MaxIter 1000
| 56> end
| 57>
| 58> * xyz 0 1
| 59>   C                    : 5.188788             2.614549             -0.430988
| 60>   O                    : 4.272714             3.629414             -0.212891
| 61>   H                    : 4.735754             4.461235             -0.188900
| 62>   H                    : 5.899015             2.492255             0.391204
| 63>   H                    : 4.718363             1.670627             -0.695147
| 64>   H                    : 5.822392             2.953750             -1.309417
| 65>   C                      3.266396             -0.889285            -2.984227
| 66>   O                      3.505058             0.481020             -3.203924
| 67>   H                      2.891223             0.829937             -3.866826
| 68>   H                      2.185870             -1.135374            -3.076854
| 69>   H                      3.829845             -1.465213            -3.662764
| 70>   H                      3.600866             -1.211609            -1.939577
| 71> *
| 72>
| 73>                          ****END OF INPUT****
 Total Charge           Charge          ....    0
 Multiplicity           Mult            ....    1
 Number of Electrons    NEL             ....   36
Dispersion correction           -0.001148578
FINAL SINGLE POINT ENERGY      -231.467626370928
Dispersion correction           -0.000220553
FINAL SINGLE POINT ENERGY      -115.733213751861

CARTESIAN COORDINATES (ANGSTROEM)
---------------------------------
  C      5.188788    2.614549   -0.430988
  O      4.272714    3.629414   -0.212891
  H      4.735754    4.461235   -0.188900
  H      5.899015    2.492255    0.391204
  H      4.718363    1.670627   -0.695147
  H      5.822392    2.953750   -1.309417
  C      3.266396   -0.889285   -2.984227
  O      3.505058    0.481020   -3.203924
  H      2.891223    0.829937   -3.866826
  H      2.185870   -1.135374   -3.076854
  H      3.829845   -1.465213   -3.662764
  H      3.600866   -1.211609   -1.939577

 Multiplicity           Mult            ....    1
 Number of Electrons    NEL             ....   18
 Basis Dimension        Dim             ....  172

ORBITAL ENERGIES
----------------

  NO   OCC          E(Eh)            E(eV)
   0   2.0000     -19.229781      -523.2689
   1   2.0000     -10.315630      -280.7026
   2   2.0000      -1.134894       -30.8820
   3   2.0000      -0.793802       -21.6005
   4   2.0000      -0.610426       -16.6105
   5   2.0000      -0.546355       -14.8671
   6   2.0000      -0.524761       -14.2795
   7   2.0000      -0.426843       -11.6150
   8   2.0000      -0.373164       -10.1543
   9   0.0000       0.097350         2.6490
  10   0.0000       0.116561         3.1718
  11   0.0000       0.150657         4.0996
  12   0.0000       0.175082         4.7642
  13   0.0000       0.194373         5.2892

MULLIKEN ATOMIC CHARGES
-----------------------
   0 C :   -0.000514
   1 O :    0.000106
   2 H :    0.000011
   3 H :   -0.000157
   4 H :   -0.002755
   5 H :   -0.000290
   6 C :   -0.150753
   7 O :   -0.475725
   8 H :    0.316506
   9 H :    0.099038
  10 H :    0.104918
  11 H :    0.109616
Sum of atomic charges:   -0.0000000

LOEWDIN ATOMIC CHARGES
----------------------
   0 C :   -0.002751
   1 O :   -0.000018
   2 H :   -0.000002
   3 H :   -0.000027
   4 H :   -0.002905
   5 H :   -0.000252
   6 C :   -0.389819
   7 O :   -0.075908
   8 H :    0.173911
   9 H :    0.098271
  10 H :    0.084619
  11 H :    0.114883

  Mayer bond orders larger than 0.1
B(  6-C ,  7-O ) :   1.0003 B(  6-C ,  9-H ) :   0.9815 B(  6-C , 10-H ) :   0.9762
B(  6-C , 11-H ) :   0.9727 B(  7-O ,  8-H ) :   0.8943

Dispersion correction           -0.000246508
FINAL SINGLE POINT ENERGY      -115.733400438215

DIPOLE MOMENT
-------------
                                X             Y             Z
Electronic contribution:      0.40675       1.75797      -0.26747
Nuclear contribution   :     -0.90262      -2.08629      -0.08923
                        -----------------------------------------
Total Dipole Moment    :     -0.49587      -0.32833      -0.35670
                        -----------------------------------------
Magnitude (a.u.)       :      0.69349
Magnitude (Debye)      :      1.76270

Rotational constants in cm-1:     4.270218     0.832808     0.798723
Rotational constants in MHz : 128017.920558 24966.954896 23945.114172

                             ****ORCA TERMINATED NORMALLY****
TOTAL RUN TIME: 0 days 0 hours 1 minutes 2 seconds 231 msec
