                         Program Version 4.1.2  - RELEASE  -
|  1> #Run DFT-D3 single point of the dimer
|  2> ! wB97X-D3 def2-TZVP TIGHTSCF CHELPG PMODEL PAL8
|  3>
|  4> %base "11-160_DFT_AB"
|  5>
|  6> %scf
|  7> MaxIter 1000
|  8> end
|  9>
| 10> * xyz 0 1
| 11>   C                      6.543165             8.326145             -10.416435
| 12>   O                      6.659908             7.253888             -9.509501
| 13>   H                      5.909592             7.446161             -8.983774
| 14>   H                      6.614220             9.393741             -10.016194
| 15>   H                      7.383919             8.321079             -11.080022
| 16>   H                      5.626030             8.221112             -11.046252
| 17>   C                      3.449128             6.099707             -9.268008
| 18>   O                      3.715254             7.381216             -8.754075
| 19>   H                      3.174861             7.998852             -9.234291
| 20>   H                      2.370180             6.092043             -9.558318
| 21>   H                      4.053126             5.910683             -10.113181
| 22>   H                      3.617349             5.368461             -8.500939
| 23> *
| 24>
| 25> #Run DFT-D3 single point of the molecule with dimer basis set
| 26> $new_job
| 27> %base "11-160_DFT_A"
| 28> ! wB97X-D3 def2-TZVP TIGHTSCF CHELPG PMODEL
| 29>
| 30> %scf
| 31> MaxIter 1000
| 32> end
| 33>
| 34> * xyz 0 1
| 35>   C                      6.543165             8.326145             -10.416435
| 36>   O                      6.659908             7.253888             -9.509501
| 37>   H                      5.909592             7.446161             -8.983774
| 38>   H                      6.614220             9.393741             -10.016194
| 39>   H                      7.383919             8.321079             -11.080022
| 40>   H                      5.626030             8.221112             -11.046252
| 41>   C                    : 3.449128             6.099707             -9.268008
| 42>   O                    : 3.715254             7.381216             -8.754075
| 43>   H                    : 3.174861             7.998852             -9.234291
| 44>   H                    : 2.370180             6.092043             -9.558318
| 45>   H                    : 4.053126             5.910683             -10.113181
| 46>   H                    : 3.617349             5.368461             -8.500939
| 47> *
| 48>
| 49> #Run DFT-D3 single point of the particle with dimer basis set
| 50> $new_job
| 51> %base "11-160_DFT_B"
| 52> ! wB97X-D3 def2-TZVP TIGHTSCF CHELPG PMODEL
| 53>
| 54> %scf
| 55> MaxIter 1000
| 56> end
| 57>
| 58> * xyz 0 1
| 59>   C                    : 6.543165             8.326145             -10.416435
| 60>   O                    : 6.659908             7.253888             -9.509501
| 61>   H                    : 5.909592             7.446161             -8.983774
| 62>   H                    : 6.614220             9.393741             -10.016194
| 63>   H                    : 7.383919             8.321079             -11.080022
| 64>   H                    : 5.626030             8.221112             -11.046252
| 65>   C                      3.449128             6.099707             -9.268008
| 66>   O                      3.715254             7.381216             -8.754075
| 67>   H                      3.174861             7.998852             -9.234291
| 68>   H                      2.370180             6.092043             -9.558318
| 69>   H                      4.053126             5.910683             -10.113181
| 70>   H                      3.617349             5.368461             -8.500939
| 71> *
| 72>
| 73>                          ****END OF INPUT****
 Total Charge           Charge          ....    0
 Multiplicity           Mult            ....    1
 Number of Electrons    NEL             ....   36
Dispersion correction           -0.002172655
FINAL SINGLE POINT ENERGY      -231.472529406011
Dispersion correction           -0.000238481
FINAL SINGLE POINT ENERGY      -115.729967421910

CARTESIAN COORDINATES (ANGSTROEM)
---------------------------------
  C      6.543165    8.326145  -10.416435
  O      6.659908    7.253888   -9.509501
  H      5.909592    7.446161   -8.983774
  H      6.614220    9.393741  -10.016194
  H      7.383919    8.321079  -11.080022
  H      5.626030    8.221112  -11.046252
  C      3.449128    6.099707   -9.268008
  O      3.715254    7.381216   -8.754075
  H      3.174861    7.998852   -9.234291
  H      2.370180    6.092043   -9.558318
  H      4.053126    5.910683  -10.113181
  H      3.617349    5.368461   -8.500939

 Multiplicity           Mult            ....    1
 Number of Electrons    NEL             ....   18
 Basis Dimension        Dim             ....  172

ORBITAL ENERGIES
----------------

  NO   OCC          E(Eh)            E(eV)
   0   2.0000     -19.226257      -523.1730
   1   2.0000     -10.308526      -280.5093
   2   2.0000      -1.140148       -31.0250
   3   2.0000      -0.797160       -21.6918
   4   2.0000      -0.610959       -16.6250
   5   2.0000      -0.550775       -14.9874
   6   2.0000      -0.532471       -14.4893
   7   2.0000      -0.431132       -11.7317
   8   2.0000      -0.373317       -10.1585
   9   0.0000       0.091646         2.4938
  10   0.0000       0.128064         3.4848
  11   0.0000       0.156278         4.2525
  12   0.0000       0.187429         5.1002
  13   0.0000       0.190780         5.1914

MULLIKEN ATOMIC CHARGES
-----------------------
   0 C :   -0.002167
   1 O :   -0.000309
   2 H :   -0.000404
   3 H :   -0.000496
   4 H :   -0.000609
   5 H :   -0.004131
   6 C :   -0.155292
   7 O :   -0.476033
   8 H :    0.314179
   9 H :    0.097617
  10 H :    0.107891
  11 H :    0.119753
Sum of atomic charges:    0.0000000

LOEWDIN ATOMIC CHARGES
----------------------
   0 C :   -0.007394
   1 O :   -0.002851
   2 H :   -0.022135
   3 H :   -0.000233
   4 H :   -0.000121
   5 H :   -0.002109
   6 C :   -0.376078
   7 O :   -0.046362
   8 H :    0.163516
   9 H :    0.102750
  10 H :    0.087740
  11 H :    0.103277

  Mayer bond orders larger than 0.1
B(  6-C ,  7-O ) :   0.9881 B(  6-C ,  9-H ) :   0.9881 B(  6-C , 10-H ) :   0.9744
B(  6-C , 11-H ) :   0.9768 B(  7-O ,  8-H ) :   0.9011

Dispersion correction           -0.000214741
FINAL SINGLE POINT ENERGY      -115.734530471517

DIPOLE MOMENT
-------------
                                X             Y             Z
Electronic contribution:      0.50995       1.47163       0.73284
Nuclear contribution   :     -0.97291      -1.59571      -1.23353
                        -----------------------------------------
Total Dipole Moment    :     -0.46296      -0.12408      -0.50069
                        -----------------------------------------
Magnitude (a.u.)       :      0.69312
Magnitude (Debye)      :      1.76177

Rotational constants in cm-1:     4.286047     0.853084     0.820030
Rotational constants in MHz : 128492.456450 25574.803398 24583.883393

                             ****ORCA TERMINATED NORMALLY****
TOTAL RUN TIME: 0 days 0 hours 1 minutes 12 seconds 480 msec
