                         Program Version 4.1.2  - RELEASE  -
|  1> #Run DFT-D3 single point of the dimer
|  2> ! wB97X-D3 def2-TZVP TIGHTSCF CHELPG PMODEL PAL8
|  3>
|  4> %base "8-68_DFT_AB"
|  5>
|  6> %scf
|  7> MaxIter 1000
|  8> end
|  9>
| 10> * xyz 0 1
| 11>   C                      3.247449             0.489047             6.955197
| 12>   O                      3.339960             1.502602             5.982111
| 13>   H                      2.459960             1.640455             5.585835
| 14>   H                      2.534463             0.868375             7.717436
| 15>   H                      2.934831             -0.454493            6.529917
| 16>   H                      4.259433             0.461948             7.314150
| 17>   C                      -0.275978            -1.399052            9.199394
| 18>   O                      -0.958128            -2.355190            10.019750
| 19>   H                      -0.339695            -3.022243            10.280683
| 20>   H                      -0.951116            -1.011180            8.357782
| 21>   H                      0.011920             -0.481083            9.730996
| 22>   H                      0.554783             -1.852173            8.677638
| 23> *
| 24>
| 25> #Run DFT-D3 single point of the molecule with dimer basis set
| 26> $new_job
| 27> %base "8-68_DFT_A"
| 28> ! wB97X-D3 def2-TZVP TIGHTSCF CHELPG PMODEL
| 29>
| 30> %scf
| 31> MaxIter 1000
| 32> end
| 33>
| 34> * xyz 0 1
| 35>   C                      3.247449             0.489047             6.955197
| 36>   O                      3.339960             1.502602             5.982111
| 37>   H                      2.459960             1.640455             5.585835
| 38>   H                      2.534463             0.868375             7.717436
| 39>   H                      2.934831             -0.454493            6.529917
| 40>   H                      4.259433             0.461948             7.314150
| 41>   C                    : -0.275978            -1.399052            9.199394
| 42>   O                    : -0.958128            -2.355190            10.019750
| 43>   H                    : -0.339695            -3.022243            10.280683
| 44>   H                    : -0.951116            -1.011180            8.357782
| 45>   H                    : 0.011920             -0.481083            9.730996
| 46>   H                    : 0.554783             -1.852173            8.677638
| 47> *
| 48>
| 49> #Run DFT-D3 single point of the particle with dimer basis set
| 50> $new_job
| 51> %base "8-68_DFT_B"
| 52> ! wB97X-D3 def2-TZVP TIGHTSCF CHELPG PMODEL
| 53>
| 54> %scf
| 55> MaxIter 1000
| 56> end
| 57>
| 58> * xyz 0 1
| 59>   C                    : 3.247449             0.489047             6.955197
| 60>   O                    : 3.339960             1.502602             5.982111
| 61>   H                    : 2.459960             1.640455             5.585835
| 62>   H                    : 2.534463             0.868375             7.717436
| 63>   H                    : 2.934831             -0.454493            6.529917
| 64>   H                    : 4.259433             0.461948             7.314150
| 65>   C                      -0.275978            -1.399052            9.199394
| 66>   O                      -0.958128            -2.355190            10.019750
| 67>   H                      -0.339695            -3.022243            10.280683
| 68>   H                      -0.951116            -1.011180            8.357782
| 69>   H                      0.011920             -0.481083            9.730996
| 70>   H                      0.554783             -1.852173            8.677638
| 71> *
| 72>
| 73>                          ****END OF INPUT****
 Total Charge           Charge          ....    0
 Multiplicity           Mult            ....    1
 Number of Electrons    NEL             ....   36
Dispersion correction           -0.000984279
FINAL SINGLE POINT ENERGY      -231.466650040948
Dispersion correction           -0.000215506
FINAL SINGLE POINT ENERGY      -115.733489184614

CARTESIAN COORDINATES (ANGSTROEM)
---------------------------------
  C      3.247449    0.489047    6.955197
  O      3.339960    1.502602    5.982111
  H      2.459960    1.640455    5.585835
  H      2.534463    0.868375    7.717436
  H      2.934831   -0.454493    6.529917
  H      4.259433    0.461948    7.314150
  C     -0.275978   -1.399052    9.199394
  O     -0.958128   -2.355190   10.019750
  H     -0.339695   -3.022243   10.280683
  H     -0.951116   -1.011180    8.357782
  H      0.011920   -0.481083    9.730996
  H      0.554783   -1.852173    8.677638

 Multiplicity           Mult            ....    1
 Number of Electrons    NEL             ....   18
 Basis Dimension        Dim             ....  172

ORBITAL ENERGIES
----------------

  NO   OCC          E(Eh)            E(eV)
   0   2.0000     -19.230517      -523.2890
   1   2.0000     -10.319493      -280.8077
   2   2.0000      -1.133801       -30.8523
   3   2.0000      -0.795099       -21.6357
   4   2.0000      -0.610700       -16.6180
   5   2.0000      -0.541333       -14.7304
   6   2.0000      -0.520275       -14.1574
   7   2.0000      -0.431977       -11.7547
   8   2.0000      -0.375492       -10.2176
   9   0.0000       0.080203         2.1824
  10   0.0000       0.117114         3.1868
  11   0.0000       0.142099         3.8667
  12   0.0000       0.164906         4.4873
  13   0.0000       0.180175         4.9028

MULLIKEN ATOMIC CHARGES
-----------------------
   0 C :    0.000267
   1 O :   -0.000010
   2 H :   -0.000005
   3 H :   -0.000430
   4 H :   -0.000270
   5 H :   -0.000019
   6 C :   -0.173416
   7 O :   -0.471256
   8 H :    0.314095
   9 H :    0.112172
  10 H :    0.109378
  11 H :    0.109493
Sum of atomic charges:   -0.0000000

LOEWDIN ATOMIC CHARGES
----------------------
   0 C :   -0.000468
   1 O :   -0.000007
   2 H :   -0.000001
   3 H :   -0.000312
   4 H :   -0.000218
   5 H :   -0.000003
   6 C :   -0.380113
   7 O :   -0.083055
   8 H :    0.158935
   9 H :    0.114358
  10 H :    0.097153
  11 H :    0.093732

  Mayer bond orders larger than 0.1
B(  6-C ,  7-O ) :   1.0107 B(  6-C ,  9-H ) :   0.9731 B(  6-C , 10-H ) :   0.9705
B(  6-C , 11-H ) :   0.9817 B(  7-O ,  8-H ) :   0.9026

Dispersion correction           -0.000267022
FINAL SINGLE POINT ENERGY      -115.732794262208

DIPOLE MOMENT
-------------
                                X             Y             Z
Electronic contribution:     -0.89786      -1.21381       1.14761
Nuclear contribution   :      1.58445       1.15299      -1.32657
                        -----------------------------------------
Total Dipole Moment    :      0.68659      -0.06082      -0.17896
                        -----------------------------------------
Magnitude (a.u.)       :      0.71213
Magnitude (Debye)      :      1.81009

Rotational constants in cm-1:     4.312756     0.803122     0.777682
Rotational constants in MHz : 129293.159840 24076.982983 23314.329378

                             ****ORCA TERMINATED NORMALLY****
TOTAL RUN TIME: 0 days 0 hours 0 minutes 43 seconds 87 msec
