                         Program Version 4.1.2  - RELEASE  -
|  1> #Run DFT-D3 single point of the dimer
|  2> ! wB97X-D3 def2-TZVP TIGHTSCF CHELPG PMODEL PAL8
|  3>
|  4> %base "20-20_DFT_AB"
|  5>
|  6> %scf
|  7> MaxIter 1000
|  8> end
|  9>
| 10> * xyz 0 1
| 11>   C                      -3.541612            8.218738             -6.097579
| 12>   O                      -2.500026            7.841059             -5.165467
| 13>   H                      -2.808424            8.091062             -4.276652
| 14>   H                      -4.504519            8.175344             -5.636522
| 15>   H                      -3.270904            9.255707             -6.480989
| 16>   H                      -3.586497            7.616042             -6.948879
| 17>   C                      -7.360046            7.106617             -6.792917
| 18>   O                      -6.498099            6.228392             -7.526867
| 19>   H                      -6.779358            5.342378             -7.266171
| 20>   H                      -7.479947            8.148388             -7.126850
| 21>   H                      -8.260560            6.529696             -6.851699
| 22>   H                      -7.000143            7.184007             -5.732038
| 23> *
| 24>
| 25> #Run DFT-D3 single point of the molecule with dimer basis set
| 26> $new_job
| 27> %base "20-20_DFT_A"
| 28> ! wB97X-D3 def2-TZVP TIGHTSCF CHELPG PMODEL
| 29>
| 30> %scf
| 31> MaxIter 1000
| 32> end
| 33>
| 34> * xyz 0 1
| 35>   C                      -3.541612            8.218738             -6.097579
| 36>   O                      -2.500026            7.841059             -5.165467
| 37>   H                      -2.808424            8.091062             -4.276652
| 38>   H                      -4.504519            8.175344             -5.636522
| 39>   H                      -3.270904            9.255707             -6.480989
| 40>   H                      -3.586497            7.616042             -6.948879
| 41>   C                    : -7.360046            7.106617             -6.792917
| 42>   O                    : -6.498099            6.228392             -7.526867
| 43>   H                    : -6.779358            5.342378             -7.266171
| 44>   H                    : -7.479947            8.148388             -7.126850
| 45>   H                    : -8.260560            6.529696             -6.851699
| 46>   H                    : -7.000143            7.184007             -5.732038
| 47> *
| 48>
| 49> #Run DFT-D3 single point of the particle with dimer basis set
| 50> $new_job
| 51> %base "20-20_DFT_B"
| 52> ! wB97X-D3 def2-TZVP TIGHTSCF CHELPG PMODEL
| 53>
| 54> %scf
| 55> MaxIter 1000
| 56> end
| 57>
| 58> * xyz 0 1
| 59>   C                    : -3.541612            8.218738             -6.097579
| 60>   O                    : -2.500026            7.841059             -5.165467
| 61>   H                    : -2.808424            8.091062             -4.276652
| 62>   H                    : -4.504519            8.175344             -5.636522
| 63>   H                    : -3.270904            9.255707             -6.480989
| 64>   H                    : -3.586497            7.616042             -6.948879
| 65>   C                      -7.360046            7.106617             -6.792917
| 66>   O                      -6.498099            6.228392             -7.526867
| 67>   H                      -6.779358            5.342378             -7.266171
| 68>   H                      -7.479947            8.148388             -7.126850
| 69>   H                      -8.260560            6.529696             -6.851699
| 70>   H                      -7.000143            7.184007             -5.732038
| 71> *
| 72>
| 73>                          ****END OF INPUT****
 Total Charge           Charge          ....    0
 Multiplicity           Mult            ....    1
 Number of Electrons    NEL             ....   36
Dispersion correction           -0.001502835
FINAL SINGLE POINT ENERGY      -231.457442148744
Dispersion correction           -0.000249729
FINAL SINGLE POINT ENERGY      -115.730691717696

CARTESIAN COORDINATES (ANGSTROEM)
---------------------------------
  C     -3.541612    8.218738   -6.097579
  O     -2.500026    7.841059   -5.165467
  H     -2.808424    8.091062   -4.276652
  H     -4.504519    8.175344   -5.636522
  H     -3.270904    9.255707   -6.480989
  H     -3.586497    7.616042   -6.948879
  C     -7.360046    7.106617   -6.792917
  O     -6.498099    6.228392   -7.526867
  H     -6.779358    5.342378   -7.266171
  H     -7.479947    8.148388   -7.126850
  H     -8.260560    6.529696   -6.851699
  H     -7.000143    7.184007   -5.732038

 Multiplicity           Mult            ....    1
 Number of Electrons    NEL             ....   18
 Basis Dimension        Dim             ....  172

ORBITAL ENERGIES
----------------

  NO   OCC          E(Eh)            E(eV)
   0   2.0000     -19.228394      -523.2312
   1   2.0000     -10.316739      -280.7327
   2   2.0000      -1.132723       -30.8230
   3   2.0000      -0.791198       -21.5296
   4   2.0000      -0.603214       -16.4143
   5   2.0000      -0.549597       -14.9553
   6   2.0000      -0.530631       -14.4392
   7   2.0000      -0.428933       -11.6719
   8   2.0000      -0.369682       -10.0596
   9   0.0000       0.091500         2.4898
  10   0.0000       0.116464         3.1692
  11   0.0000       0.151027         4.1097
  12   0.0000       0.172838         4.7032
  13   0.0000       0.191394         5.2081

MULLIKEN ATOMIC CHARGES
-----------------------
   0 C :   -0.000662
   1 O :    0.000064
   2 H :   -0.000003
   3 H :    0.001887
   4 H :   -0.000124
   5 H :   -0.002856
   6 C :   -0.179793
   7 O :   -0.471405
   8 H :    0.315483
   9 H :    0.125585
  10 H :    0.109404
  11 H :    0.102420
Sum of atomic charges:    0.0000000

LOEWDIN ATOMIC CHARGES
----------------------
   0 C :   -0.002553
   1 O :   -0.000015
   2 H :   -0.000002
   3 H :   -0.001546
   4 H :   -0.000025
   5 H :   -0.002186
   6 C :   -0.374240
   7 O :   -0.097061
   8 H :    0.172855
   9 H :    0.108391
  10 H :    0.096249
  11 H :    0.100134

  Mayer bond orders larger than 0.1
B(  6-C ,  7-O ) :   0.9801 B(  6-C ,  9-H ) :   0.9684 B(  6-C , 10-H ) :   0.9982
B(  6-C , 11-H ) :   0.9721 B(  7-O ,  8-H ) :   0.8995

Dispersion correction           -0.000225251
FINAL SINGLE POINT ENERGY      -115.725390832822

DIPOLE MOMENT
-------------
                                X             Y             Z
Electronic contribution:      1.13108      -0.83297      -1.08564
Nuclear contribution   :     -1.67414       0.63748       1.52958
                        -----------------------------------------
Total Dipole Moment    :     -0.54307      -0.19550       0.44394
                        -----------------------------------------
Magnitude (a.u.)       :      0.72816
Magnitude (Debye)      :      1.85085

Rotational constants in cm-1:     4.253712     0.821623     0.792166
Rotational constants in MHz : 127523.076515 24631.652219 23748.553748

                             ****ORCA TERMINATED NORMALLY****
TOTAL RUN TIME: 0 days 0 hours 0 minutes 54 seconds 418 msec
