                         Program Version 4.1.2  - RELEASE  -
|  1> #Run DFT-D3 single point of the dimer
|  2> ! wB97X-D3 def2-TZVP TIGHTSCF CHELPG PMODEL PAL8
|  3>
|  4> %base "19-35_DFT_AB"
|  5>
|  6> %scf
|  7> MaxIter 1000
|  8> end
|  9>
| 10> * xyz 0 1
| 11>   C                      7.257563             6.735818             4.442851
| 12>   O                      8.386543             7.556154             4.548185
| 13>   H                      9.044606             7.039462             5.018656
| 14>   H                      7.278685             6.428361             3.430371
| 15>   H                      7.463774             5.931356             5.183014
| 16>   H                      6.305239             7.244127             4.579032
| 17>   C                      4.295671             3.733466             0.817341
| 18>   O                      2.897017             3.811469             0.464852
| 19>   H                      2.560319             3.075837             0.969836
| 20>   H                      4.950979             4.390941             0.274118
| 21>   H                      4.439813             4.079853             1.906679
| 22>   H                      4.730280             2.730398             0.723484
| 23> *
| 24>
| 25> #Run DFT-D3 single point of the molecule with dimer basis set
| 26> $new_job
| 27> %base "19-35_DFT_A"
| 28> ! wB97X-D3 def2-TZVP TIGHTSCF CHELPG PMODEL
| 29>
| 30> %scf
| 31> MaxIter 1000
| 32> end
| 33>
| 34> * xyz 0 1
| 35>   C                      7.257563             6.735818             4.442851
| 36>   O                      8.386543             7.556154             4.548185
| 37>   H                      9.044606             7.039462             5.018656
| 38>   H                      7.278685             6.428361             3.430371
| 39>   H                      7.463774             5.931356             5.183014
| 40>   H                      6.305239             7.244127             4.579032
| 41>   C                    : 4.295671             3.733466             0.817341
| 42>   O                    : 2.897017             3.811469             0.464852
| 43>   H                    : 2.560319             3.075837             0.969836
| 44>   H                    : 4.950979             4.390941             0.274118
| 45>   H                    : 4.439813             4.079853             1.906679
| 46>   H                    : 4.730280             2.730398             0.723484
| 47> *
| 48>
| 49> #Run DFT-D3 single point of the particle with dimer basis set
| 50> $new_job
| 51> %base "19-35_DFT_B"
| 52> ! wB97X-D3 def2-TZVP TIGHTSCF CHELPG PMODEL
| 53>
| 54> %scf
| 55> MaxIter 1000
| 56> end
| 57>
| 58> * xyz 0 1
| 59>   C                    : 7.257563             6.735818             4.442851
| 60>   O                    : 8.386543             7.556154             4.548185
| 61>   H                    : 9.044606             7.039462             5.018656
| 62>   H                    : 7.278685             6.428361             3.430371
| 63>   H                    : 7.463774             5.931356             5.183014
| 64>   H                    : 6.305239             7.244127             4.579032
| 65>   C                      4.295671             3.733466             0.817341
| 66>   O                      2.897017             3.811469             0.464852
| 67>   H                      2.560319             3.075837             0.969836
| 68>   H                      4.950979             4.390941             0.274118
| 69>   H                      4.439813             4.079853             1.906679
| 70>   H                      4.730280             2.730398             0.723484
| 71> *
| 72>
| 73>                          ****END OF INPUT****
 Total Charge           Charge          ....    0
 Multiplicity           Mult            ....    1
 Number of Electrons    NEL             ....   36
Dispersion correction           -0.000623112
FINAL SINGLE POINT ENERGY      -231.456957976848
Dispersion correction           -0.000206596
FINAL SINGLE POINT ENERGY      -115.726367384287

CARTESIAN COORDINATES (ANGSTROEM)
---------------------------------
  C      7.257563    6.735818    4.442851
  O      8.386543    7.556154    4.548185
  H      9.044606    7.039462    5.018656
  H      7.278685    6.428361    3.430371
  H      7.463774    5.931356    5.183014
  H      6.305239    7.244127    4.579032
  C      4.295671    3.733466    0.817341
  O      2.897017    3.811469    0.464852
  H      2.560319    3.075837    0.969836
  H      4.950979    4.390941    0.274118
  H      4.439813    4.079853    1.906679
  H      4.730280    2.730398    0.723484

 Multiplicity           Mult            ....    1
 Number of Electrons    NEL             ....   18
 Basis Dimension        Dim             ....  172

ORBITAL ENERGIES
----------------

  NO   OCC          E(Eh)            E(eV)
   0   2.0000     -19.235762      -523.4317
   1   2.0000     -10.321320      -280.8574
   2   2.0000      -1.135746       -30.9052
   3   2.0000      -0.793776       -21.5997
   4   2.0000      -0.604367       -16.4457
   5   2.0000      -0.533084       -14.5060
   6   2.0000      -0.529148       -14.3988
   7   2.0000      -0.444021       -12.0824
   8   2.0000      -0.375542       -10.2190
   9   0.0000       0.085469         2.3257
  10   0.0000       0.115050         3.1307
  11   0.0000       0.140210         3.8153
  12   0.0000       0.169334         4.6078
  13   0.0000       0.191249         5.2042

MULLIKEN ATOMIC CHARGES
-----------------------
   0 C :    0.000050
   1 O :   -0.000003
   2 H :   -0.000001
   3 H :   -0.000151
   4 H :   -0.000009
   5 H :   -0.000022
   6 C :   -0.193045
   7 O :   -0.459151
   8 H :    0.315903
   9 H :    0.123476
  10 H :    0.100971
  11 H :    0.111982
Sum of atomic charges:   -0.0000000

LOEWDIN ATOMIC CHARGES
----------------------
   0 C :   -0.000112
   1 O :   -0.000001
   2 H :   -0.000000
   3 H :   -0.000086
   4 H :   -0.000003
   5 H :   -0.000010
   6 C :   -0.378711
   7 O :   -0.091582
   8 H :    0.168118
   9 H :    0.101642
  10 H :    0.104796
  11 H :    0.095949

  Mayer bond orders larger than 0.1
B(  6-C ,  7-O ) :   1.0000 B(  6-C ,  9-H ) :   0.9734 B(  6-C , 10-H ) :   0.9769
B(  6-C , 11-H ) :   0.9716 B(  7-O ,  8-H ) :   0.9036

Dispersion correction           -0.000250691
FINAL SINGLE POINT ENERGY      -115.730510637960

DIPOLE MOMENT
-------------
                                X             Y             Z
Electronic contribution:     -1.84214       0.20390      -0.73060
Nuclear contribution   :      2.19952      -0.68396       1.15356
                        -----------------------------------------
Total Dipole Moment    :      0.35738      -0.48006       0.42296
                        -----------------------------------------
Magnitude (a.u.)       :      0.73285
Magnitude (Debye)      :      1.86277

Rotational constants in cm-1:     4.257105     0.796775     0.773613
Rotational constants in MHz : 127624.789402 23886.716620 23192.347661

                             ****ORCA TERMINATED NORMALLY****
TOTAL RUN TIME: 0 days 0 hours 0 minutes 48 seconds 100 msec
