                         Program Version 4.1.2  - RELEASE  -
|  1> #Run DFT-D3 single point of the dimer
|  2> ! wB97X-D3 def2-TZVP TIGHTSCF CHELPG PMODEL PAL8
|  3>
|  4> %base "19-204_DFT_AB"
|  5>
|  6> %scf
|  7> MaxIter 1000
|  8> end
|  9>
| 10> * xyz 0 1
| 11>   C                      3.287968             3.226782             -8.639468
| 12>   O                      3.947243             4.453909             -8.971919
| 13>   H                      3.956798             5.002304             -8.197140
| 14>   H                      2.430109             3.437104             -7.954319
| 15>   H                      2.974935             2.722716             -9.528785
| 16>   H                      3.895933             2.592943             -7.977857
| 17>   C                      1.413420             4.479925             -4.724324
| 18>   O                      2.738144             4.102890             -4.675040
| 19>   H                      3.316369             4.514014             -5.358579
| 20>   H                      1.236397             5.142390             -3.834124
| 21>   H                      1.254941             4.977743             -5.708738
| 22>   H                      0.739423             3.585240             -4.732096
| 23> *
| 24>
| 25> #Run DFT-D3 single point of the molecule with dimer basis set
| 26> $new_job
| 27> %base "19-204_DFT_A"
| 28> ! wB97X-D3 def2-TZVP TIGHTSCF CHELPG PMODEL
| 29>
| 30> %scf
| 31> MaxIter 1000
| 32> end
| 33>
| 34> * xyz 0 1
| 35>   C                      3.287968             3.226782             -8.639468
| 36>   O                      3.947243             4.453909             -8.971919
| 37>   H                      3.956798             5.002304             -8.197140
| 38>   H                      2.430109             3.437104             -7.954319
| 39>   H                      2.974935             2.722716             -9.528785
| 40>   H                      3.895933             2.592943             -7.977857
| 41>   C                    : 1.413420             4.479925             -4.724324
| 42>   O                    : 2.738144             4.102890             -4.675040
| 43>   H                    : 3.316369             4.514014             -5.358579
| 44>   H                    : 1.236397             5.142390             -3.834124
| 45>   H                    : 1.254941             4.977743             -5.708738
| 46>   H                    : 0.739423             3.585240             -4.732096
| 47> *
| 48>
| 49> #Run DFT-D3 single point of the particle with dimer basis set
| 50> $new_job
| 51> %base "19-204_DFT_B"
| 52> ! wB97X-D3 def2-TZVP TIGHTSCF CHELPG PMODEL
| 53>
| 54> %scf
| 55> MaxIter 1000
| 56> end
| 57>
| 58> * xyz 0 1
| 59>   C                    : 3.287968             3.226782             -8.639468
| 60>   O                    : 3.947243             4.453909             -8.971919
| 61>   H                    : 3.956798             5.002304             -8.197140
| 62>   H                    : 2.430109             3.437104             -7.954319
| 63>   H                    : 2.974935             2.722716             -9.528785
| 64>   H                    : 3.895933             2.592943             -7.977857
| 65>   C                      1.413420             4.479925             -4.724324
| 66>   O                      2.738144             4.102890             -4.675040
| 67>   H                      3.316369             4.514014             -5.358579
| 68>   H                      1.236397             5.142390             -3.834124
| 69>   H                      1.254941             4.977743             -5.708738
| 70>   H                      0.739423             3.585240             -4.732096
| 71> *
| 72>
| 73>                          ****END OF INPUT****
 Total Charge           Charge          ....    0
 Multiplicity           Mult            ....    1
 Number of Electrons    NEL             ....   36
Dispersion correction           -0.001588896
FINAL SINGLE POINT ENERGY      -231.462794139663
Dispersion correction           -0.000240848
FINAL SINGLE POINT ENERGY      -115.733529028698

CARTESIAN COORDINATES (ANGSTROEM)
---------------------------------
  C      3.287968    3.226782   -8.639468
  O      3.947243    4.453909   -8.971919
  H      3.956798    5.002304   -8.197140
  H      2.430109    3.437104   -7.954319
  H      2.974935    2.722716   -9.528785
  H      3.895933    2.592943   -7.977857
  C      1.413420    4.479925   -4.724324
  O      2.738144    4.102890   -4.675040
  H      3.316369    4.514014   -5.358579
  H      1.236397    5.142390   -3.834124
  H      1.254941    4.977743   -5.708738
  H      0.739423    3.585240   -4.732096

 Multiplicity           Mult            ....    1
 Number of Electrons    NEL             ....   18
 Basis Dimension        Dim             ....  172

ORBITAL ENERGIES
----------------

  NO   OCC          E(Eh)            E(eV)
   0   2.0000     -19.225789      -523.1603
   1   2.0000     -10.318504      -280.7808
   2   2.0000      -1.138169       -30.9712
   3   2.0000      -0.787104       -21.4182
   4   2.0000      -0.611537       -16.6408
   5   2.0000      -0.546101       -14.8602
   6   2.0000      -0.530683       -14.4406
   7   2.0000      -0.414952       -11.2914
   8   2.0000      -0.368108       -10.0167
   9   0.0000       0.070393         1.9155
  10   0.0000       0.127943         3.4815
  11   0.0000       0.145871         3.9693
  12   0.0000       0.169903         4.6233
  13   0.0000       0.192024         5.2252

MULLIKEN ATOMIC CHARGES
-----------------------
   0 C :   -0.002539
   1 O :    0.000418
   2 H :   -0.000589
   3 H :   -0.000610
   4 H :   -0.000403
   5 H :   -0.000222
   6 C :   -0.148536
   7 O :   -0.488674
   8 H :    0.325641
   9 H :    0.110525
  10 H :    0.097755
  11 H :    0.107233
Sum of atomic charges:   -0.0000000

LOEWDIN ATOMIC CHARGES
----------------------
   0 C :   -0.002277
   1 O :   -0.000046
   2 H :   -0.000695
   3 H :   -0.001427
   4 H :   -0.000068
   5 H :   -0.000550
   6 C :   -0.416611
   7 O :   -0.070858
   8 H :    0.183800
   9 H :    0.104588
  10 H :    0.098713
  11 H :    0.105430

  Mayer bond orders larger than 0.1
B(  6-C ,  7-O ) :   0.9923 B(  6-C ,  9-H ) :   0.9775 B(  6-C , 10-H ) :   0.9895
B(  6-C , 11-H ) :   0.9680 B(  7-O ,  8-H ) :   0.8879

Dispersion correction           -0.000240841
FINAL SINGLE POINT ENERGY      -115.729600271272

DIPOLE MOMENT
-------------
                                X             Y             Z
Electronic contribution:      1.61918      -0.53903       0.20720
Nuclear contribution   :     -1.74011       0.94933      -0.69545
                        -----------------------------------------
Total Dipole Moment    :     -0.12092       0.41030      -0.48825
                        -----------------------------------------
Magnitude (a.u.)       :      0.64912
Magnitude (Debye)      :      1.64992

Rotational constants in cm-1:     4.084774     0.859070     0.834487
Rotational constants in MHz : 122458.449287 25754.279583 25017.302566

                             ****ORCA TERMINATED NORMALLY****
TOTAL RUN TIME: 0 days 0 hours 0 minutes 49 seconds 342 msec
