                         Program Version 4.1.2  - RELEASE  -
|  1> #Run DFT-D3 single point of the dimer
|  2> ! wB97X-D3 def2-TZVP TIGHTSCF CHELPG PMODEL PAL8
|  3>
|  4> %base "18-94_DFT_AB"
|  5>
|  6> %scf
|  7> MaxIter 1000
|  8> end
|  9>
| 10> * xyz 0 1
| 11>   C                      6.893320             -10.876934           1.764212
| 12>   O                      8.038290             -11.623634           1.861776
| 13>   H                      8.174678             -11.814343           2.798983
| 14>   H                      6.119502             -10.972052           2.513738
| 15>   H                      7.098717             -9.827807            1.908222
| 16>   H                      6.424330             -11.063992           0.828174
| 17>   C                      6.092692             -8.783274            5.363599
| 18>   O                      7.453726             -8.222442            5.514071
| 19>   H                      8.118338             -8.894190            5.435365
| 20>   H                      5.888454             -9.155204            4.335086
| 21>   H                      5.773200             -9.527405            6.107251
| 22>   H                      5.346103             -8.049404            5.579546
| 23> *
| 24>
| 25> #Run DFT-D3 single point of the molecule with dimer basis set
| 26> $new_job
| 27> %base "18-94_DFT_A"
| 28> ! wB97X-D3 def2-TZVP TIGHTSCF CHELPG PMODEL
| 29>
| 30> %scf
| 31> MaxIter 1000
| 32> end
| 33>
| 34> * xyz 0 1
| 35>   C                      6.893320             -10.876934           1.764212
| 36>   O                      8.038290             -11.623634           1.861776
| 37>   H                      8.174678             -11.814343           2.798983
| 38>   H                      6.119502             -10.972052           2.513738
| 39>   H                      7.098717             -9.827807            1.908222
| 40>   H                      6.424330             -11.063992           0.828174
| 41>   C                    : 6.092692             -8.783274            5.363599
| 42>   O                    : 7.453726             -8.222442            5.514071
| 43>   H                    : 8.118338             -8.894190            5.435365
| 44>   H                    : 5.888454             -9.155204            4.335086
| 45>   H                    : 5.773200             -9.527405            6.107251
| 46>   H                    : 5.346103             -8.049404            5.579546
| 47> *
| 48>
| 49> #Run DFT-D3 single point of the particle with dimer basis set
| 50> $new_job
| 51> %base "18-94_DFT_B"
| 52> ! wB97X-D3 def2-TZVP TIGHTSCF CHELPG PMODEL
| 53>
| 54> %scf
| 55> MaxIter 1000
| 56> end
| 57>
| 58> * xyz 0 1
| 59>   C                    : 6.893320             -10.876934           1.764212
| 60>   O                    : 8.038290             -11.623634           1.861776
| 61>   H                    : 8.174678             -11.814343           2.798983
| 62>   H                    : 6.119502             -10.972052           2.513738
| 63>   H                    : 7.098717             -9.827807            1.908222
| 64>   H                    : 6.424330             -11.063992           0.828174
| 65>   C                      6.092692             -8.783274            5.363599
| 66>   O                      7.453726             -8.222442            5.514071
| 67>   H                      8.118338             -8.894190            5.435365
| 68>   H                      5.888454             -9.155204            4.335086
| 69>   H                      5.773200             -9.527405            6.107251
| 70>   H                      5.346103             -8.049404            5.579546
| 71> *
| 72>
| 73>                          ****END OF INPUT****
 Total Charge           Charge          ....    0
 Multiplicity           Mult            ....    1
 Number of Electrons    NEL             ....   36
Dispersion correction           -0.001435736
FINAL SINGLE POINT ENERGY      -231.459318656438
Dispersion correction           -0.000228529
FINAL SINGLE POINT ENERGY      -115.730188718536

CARTESIAN COORDINATES (ANGSTROEM)
---------------------------------
  C      6.893320  -10.876934    1.764212
  O      8.038290  -11.623634    1.861776
  H      8.174678  -11.814343    2.798983
  H      6.119502  -10.972052    2.513738
  H      7.098717   -9.827807    1.908222
  H      6.424330  -11.063992    0.828174
  C      6.092692   -8.783274    5.363599
  O      7.453726   -8.222442    5.514071
  H      8.118338   -8.894190    5.435365
  H      5.888454   -9.155204    4.335086
  H      5.773200   -9.527405    6.107251
  H      5.346103   -8.049404    5.579546

 Multiplicity           Mult            ....    1
 Number of Electrons    NEL             ....   18
 Basis Dimension        Dim             ....  172

ORBITAL ENERGIES
----------------

  NO   OCC          E(Eh)            E(eV)
   0   2.0000     -19.231923      -523.3272
   1   2.0000     -10.319627      -280.8113
   2   2.0000      -1.118897       -30.4467
   3   2.0000      -0.804618       -21.8948
   4   2.0000      -0.601777       -16.3752
   5   2.0000      -0.538962       -14.6659
   6   2.0000      -0.516110       -14.0441
   7   2.0000      -0.431171       -11.7328
   8   2.0000      -0.380237       -10.3468
   9   0.0000       0.078408         2.1336
  10   0.0000       0.125783         3.4227
  11   0.0000       0.144132         3.9220
  12   0.0000       0.164440         4.4746
  13   0.0000       0.190349         5.1797

MULLIKEN ATOMIC CHARGES
-----------------------
   0 C :    0.000946
   1 O :   -0.000077
   2 H :   -0.000068
   3 H :   -0.001724
   4 H :    0.000543
   5 H :    0.000257
   6 C :   -0.179099
   7 O :   -0.487005
   8 H :    0.314469
   9 H :    0.110494
  10 H :    0.111787
  11 H :    0.129476
Sum of atomic charges:   -0.0000000

LOEWDIN ATOMIC CHARGES
----------------------
   0 C :   -0.002415
   1 O :   -0.000016
   2 H :   -0.000059
   3 H :   -0.002589
   4 H :   -0.000794
   5 H :   -0.000006
   6 C :   -0.345403
   7 O :   -0.111647
   8 H :    0.154970
   9 H :    0.103202
  10 H :    0.099728
  11 H :    0.105029

  Mayer bond orders larger than 0.1
B(  6-C ,  7-O ) :   0.9995 B(  6-C ,  9-H ) :   0.9723 B(  6-C , 10-H ) :   0.9712
B(  6-C , 11-H ) :   0.9735 B(  7-O ,  8-H ) :   0.9011

Dispersion correction           -0.000308449
FINAL SINGLE POINT ENERGY      -115.729001291124

DIPOLE MOMENT
-------------
                                X             Y             Z
Electronic contribution:      1.73384       0.79445       0.18612
Nuclear contribution   :     -1.92109      -1.45090      -0.27850
                        -----------------------------------------
Total Dipole Moment    :     -0.18725      -0.65645      -0.09238
                        -----------------------------------------
Magnitude (a.u.)       :      0.68885
Magnitude (Debye)      :      1.75093

Rotational constants in cm-1:     4.515778     0.751031     0.736841
Rotational constants in MHz : 135379.606597 22515.341841 22089.951890

                             ****ORCA TERMINATED NORMALLY****
TOTAL RUN TIME: 0 days 0 hours 1 minutes 4 seconds 586 msec
