                         Program Version 4.1.2  - RELEASE  -
|  1> #Run DFT-D3 single point of the dimer
|  2> ! wB97X-D3 def2-TZVP TIGHTSCF CHELPG PMODEL PAL8
|  3>
|  4> %base "8-173_DFT_AB"
|  5>
|  6> %scf
|  7> MaxIter 1000
|  8> end
|  9>
| 10> * xyz 0 1
| 11>   C                      -7.175575            2.102630             -1.137737
| 12>   O                      -6.360811            1.215459             -1.860402
| 13>   H                      -6.884850            0.520628             -2.253676
| 14>   H                      -7.351709            3.163128             -1.493092
| 15>   H                      -8.215641            1.709698             -1.142995
| 16>   H                      -6.928180            2.110446             -0.125712
| 17>   C                      -11.498191           0.332959             -2.534672
| 18>   O                      -10.465771           0.340394             -1.495334
| 19>   H                      -9.672589            0.001968             -1.864061
| 20>   H                      -11.464644           -0.542244            -3.210713
| 21>   H                      -12.495292           0.402588             -2.186097
| 22>   H                      -11.293024           1.253113             -3.139033
| 23> *
| 24>
| 25> #Run DFT-D3 single point of the molecule with dimer basis set
| 26> $new_job
| 27> %base "8-173_DFT_A"
| 28> ! wB97X-D3 def2-TZVP TIGHTSCF CHELPG PMODEL
| 29>
| 30> %scf
| 31> MaxIter 1000
| 32> end
| 33>
| 34> * xyz 0 1
| 35>   C                      -7.175575            2.102630             -1.137737
| 36>   O                      -6.360811            1.215459             -1.860402
| 37>   H                      -6.884850            0.520628             -2.253676
| 38>   H                      -7.351709            3.163128             -1.493092
| 39>   H                      -8.215641            1.709698             -1.142995
| 40>   H                      -6.928180            2.110446             -0.125712
| 41>   C                    : -11.498191           0.332959             -2.534672
| 42>   O                    : -10.465771           0.340394             -1.495334
| 43>   H                    : -9.672589            0.001968             -1.864061
| 44>   H                    : -11.464644           -0.542244            -3.210713
| 45>   H                    : -12.495292           0.402588             -2.186097
| 46>   H                    : -11.293024           1.253113             -3.139033
| 47> *
| 48>
| 49> #Run DFT-D3 single point of the particle with dimer basis set
| 50> $new_job
| 51> %base "8-173_DFT_B"
| 52> ! wB97X-D3 def2-TZVP TIGHTSCF CHELPG PMODEL
| 53>
| 54> %scf
| 55> MaxIter 1000
| 56> end
| 57>
| 58> * xyz 0 1
| 59>   C                    : -7.175575            2.102630             -1.137737
| 60>   O                    : -6.360811            1.215459             -1.860402
| 61>   H                    : -6.884850            0.520628             -2.253676
| 62>   H                    : -7.351709            3.163128             -1.493092
| 63>   H                    : -8.215641            1.709698             -1.142995
| 64>   H                    : -6.928180            2.110446             -0.125712
| 65>   C                      -11.498191           0.332959             -2.534672
| 66>   O                      -10.465771           0.340394             -1.495334
| 67>   H                      -9.672589            0.001968             -1.864061
| 68>   H                      -11.464644           -0.542244            -3.210713
| 69>   H                      -12.495292           0.402588             -2.186097
| 70>   H                      -11.293024           1.253113             -3.139033
| 71> *
| 72>
| 73>                          ****END OF INPUT****
 Total Charge           Charge          ....    0
 Multiplicity           Mult            ....    1
 Number of Electrons    NEL             ....   36
Dispersion correction           -0.001492281
FINAL SINGLE POINT ENERGY      -231.457845614365
Dispersion correction           -0.000258578
FINAL SINGLE POINT ENERGY      -115.727349540915

CARTESIAN COORDINATES (ANGSTROEM)
---------------------------------
  C     -7.175575    2.102630   -1.137737
  O     -6.360811    1.215459   -1.860402
  H     -6.884850    0.520628   -2.253676
  H     -7.351709    3.163128   -1.493092
  H     -8.215641    1.709698   -1.142995
  H     -6.928180    2.110446   -0.125712
  C    -11.498191    0.332959   -2.534672
  O    -10.465771    0.340394   -1.495334
  H     -9.672589    0.001968   -1.864061
  H    -11.464644   -0.542244   -3.210713
  H    -12.495292    0.402588   -2.186097
  H    -11.293024    1.253113   -3.139033

 Multiplicity           Mult            ....    1
 Number of Electrons    NEL             ....   18
 Basis Dimension        Dim             ....  172

ORBITAL ENERGIES
----------------

  NO   OCC          E(Eh)            E(eV)
   0   2.0000     -19.229244      -523.2543
   1   2.0000     -10.319140      -280.7981
   2   2.0000      -1.126456       -30.6524
   3   2.0000      -0.801232       -21.8026
   4   2.0000      -0.603713       -16.4279
   5   2.0000      -0.537747       -14.6328
   6   2.0000      -0.526477       -14.3262
   7   2.0000      -0.438045       -11.9198
   8   2.0000      -0.374030       -10.1779
   9   0.0000       0.083081         2.2607
  10   0.0000       0.128947         3.5088
  11   0.0000       0.147978         4.0267
  12   0.0000       0.168535         4.5861
  13   0.0000       0.191749         5.2178

MULLIKEN ATOMIC CHARGES
-----------------------
   0 C :    0.007489
   1 O :    0.000118
   2 H :   -0.000658
   3 H :   -0.000203
   4 H :   -0.018277
   5 H :   -0.000719
   6 C :   -0.187254
   7 O :   -0.468344
   8 H :    0.315297
   9 H :    0.111129
  10 H :    0.130436
  11 H :    0.110986
Sum of atomic charges:    0.0000000

LOEWDIN ATOMIC CHARGES
----------------------
   0 C :   -0.002657
   1 O :   -0.000065
   2 H :   -0.000823
   3 H :   -0.000039
   4 H :   -0.009551
   5 H :   -0.000045
   6 C :   -0.346940
   7 O :   -0.093934
   8 H :    0.151661
   9 H :    0.099152
  10 H :    0.098711
  11 H :    0.104532

  Mayer bond orders larger than 0.1
B(  6-C ,  7-O ) :   0.9927 B(  6-C ,  9-H ) :   0.9728 B(  6-C , 10-H ) :   0.9699
B(  6-C , 11-H ) :   0.9830 B(  7-O ,  8-H ) :   0.9016

Dispersion correction           -0.000263421
FINAL SINGLE POINT ENERGY      -115.730875051249

DIPOLE MOMENT
-------------
                                X             Y             Z
Electronic contribution:      1.08961      -0.04541       1.47333
Nuclear contribution   :     -1.05213      -0.19126      -2.15390
                        -----------------------------------------
Total Dipole Moment    :      0.03748      -0.23666      -0.68056
                        -----------------------------------------
Magnitude (a.u.)       :      0.72151
Magnitude (Debye)      :      1.83394

Rotational constants in cm-1:     4.374176     0.779108     0.757774
Rotational constants in MHz : 131134.497279 23357.055703 22717.482426

                             ****ORCA TERMINATED NORMALLY****
TOTAL RUN TIME: 0 days 0 hours 0 minutes 41 seconds 798 msec
