                         Program Version 4.1.2  - RELEASE  -
|  1> #Run DFT-D3 single point of the dimer
|  2> ! wB97X-D3 def2-TZVP TIGHTSCF CHELPG PMODEL PAL8
|  3>
|  4> %base "22-67_DFT_AB"
|  5>
|  6> %scf
|  7> MaxIter 1000
|  8> end
|  9>
| 10> * xyz 0 1
| 11>   C                      7.094991             -5.874388            4.295036
| 12>   O                      6.607568             -5.115187            5.413430
| 13>   H                      6.014298             -4.411971            5.145993
| 14>   H                      6.600203             -5.667700            3.315345
| 15>   H                      8.165961             -5.827261            4.147364
| 16>   H                      6.868536             -6.907309            4.499651
| 17>   C                      7.018043             -1.124810            4.419185
| 18>   O                      6.215485             -0.699244            3.333314
| 19>   H                      6.327715             0.248900             3.409414
| 20>   H                      6.851063             -2.138180            4.829330
| 21>   H                      8.113923             -0.986204            4.194208
| 22>   H                      6.869259             -0.535593            5.301788
| 23> *
| 24>
| 25> #Run DFT-D3 single point of the molecule with dimer basis set
| 26> $new_job
| 27> %base "22-67_DFT_A"
| 28> ! wB97X-D3 def2-TZVP TIGHTSCF CHELPG PMODEL
| 29>
| 30> %scf
| 31> MaxIter 1000
| 32> end
| 33>
| 34> * xyz 0 1
| 35>   C                      7.094991             -5.874388            4.295036
| 36>   O                      6.607568             -5.115187            5.413430
| 37>   H                      6.014298             -4.411971            5.145993
| 38>   H                      6.600203             -5.667700            3.315345
| 39>   H                      8.165961             -5.827261            4.147364
| 40>   H                      6.868536             -6.907309            4.499651
| 41>   C                    : 7.018043             -1.124810            4.419185
| 42>   O                    : 6.215485             -0.699244            3.333314
| 43>   H                    : 6.327715             0.248900             3.409414
| 44>   H                    : 6.851063             -2.138180            4.829330
| 45>   H                    : 8.113923             -0.986204            4.194208
| 46>   H                    : 6.869259             -0.535593            5.301788
| 47> *
| 48>
| 49> #Run DFT-D3 single point of the particle with dimer basis set
| 50> $new_job
| 51> %base "22-67_DFT_B"
| 52> ! wB97X-D3 def2-TZVP TIGHTSCF CHELPG PMODEL
| 53>
| 54> %scf
| 55> MaxIter 1000
| 56> end
| 57>
| 58> * xyz 0 1
| 59>   C                    : 7.094991             -5.874388            4.295036
| 60>   O                    : 6.607568             -5.115187            5.413430
| 61>   H                    : 6.014298             -4.411971            5.145993
| 62>   H                    : 6.600203             -5.667700            3.315345
| 63>   H                    : 8.165961             -5.827261            4.147364
| 64>   H                    : 6.868536             -6.907309            4.499651
| 65>   C                      7.018043             -1.124810            4.419185
| 66>   O                      6.215485             -0.699244            3.333314
| 67>   H                      6.327715             0.248900             3.409414
| 68>   H                      6.851063             -2.138180            4.829330
| 69>   H                      8.113923             -0.986204            4.194208
| 70>   H                      6.869259             -0.535593            5.301788
| 71> *
| 72>
| 73>                          ****END OF INPUT****
 Total Charge           Charge          ....    0
 Multiplicity           Mult            ....    1
 Number of Electrons    NEL             ....   36
Dispersion correction           -0.001212095
FINAL SINGLE POINT ENERGY      -231.464073339018
Dispersion correction           -0.000278292
FINAL SINGLE POINT ENERGY      -115.733581493603

CARTESIAN COORDINATES (ANGSTROEM)
---------------------------------
  C      7.094991   -5.874388    4.295036
  O      6.607568   -5.115187    5.413430
  H      6.014298   -4.411971    5.145993
  H      6.600203   -5.667700    3.315345
  H      8.165961   -5.827261    4.147364
  H      6.868536   -6.907309    4.499651
  C      7.018043   -1.124810    4.419185
  O      6.215485   -0.699244    3.333314
  H      6.327715    0.248900    3.409414
  H      6.851063   -2.138180    4.829330
  H      8.113923   -0.986204    4.194208
  H      6.869259   -0.535593    5.301788

 Multiplicity           Mult            ....    1
 Number of Electrons    NEL             ....   18
 Basis Dimension        Dim             ....  172

ORBITAL ENERGIES
----------------

  NO   OCC          E(Eh)            E(eV)
   0   2.0000     -19.235971      -523.4374
   1   2.0000     -10.316491      -280.7260
   2   2.0000      -1.143906       -31.1273
   3   2.0000      -0.793655       -21.5965
   4   2.0000      -0.612897       -16.6778
   5   2.0000      -0.541507       -14.7351
   6   2.0000      -0.526039       -14.3142
   7   2.0000      -0.440088       -11.9754
   8   2.0000      -0.375000       -10.2043
   9   0.0000       0.087736         2.3874
  10   0.0000       0.115746         3.1496
  11   0.0000       0.148642         4.0448
  12   0.0000       0.170170         4.6306
  13   0.0000       0.197724         5.3803

MULLIKEN ATOMIC CHARGES
-----------------------
   0 C :   -0.000120
   1 O :   -0.000161
   2 H :    0.000916
   3 H :   -0.000016
   4 H :   -0.000064
   5 H :    0.000016
   6 C :   -0.196775
   7 O :   -0.454029
   8 H :    0.316856
   9 H :    0.121981
  10 H :    0.102027
  11 H :    0.109369
Sum of atomic charges:   -0.0000000

LOEWDIN ATOMIC CHARGES
----------------------
   0 C :   -0.000424
   1 O :   -0.000755
   2 H :   -0.003405
   3 H :   -0.000018
   4 H :   -0.000024
   5 H :   -0.000004
   6 C :   -0.400154
   7 O :   -0.072113
   8 H :    0.174763
   9 H :    0.111577
  10 H :    0.100421
  11 H :    0.090135

  Mayer bond orders larger than 0.1
B(  6-C ,  7-O ) :   1.0055 B(  6-C ,  9-H ) :   0.9695 B(  6-C , 10-H ) :   0.9788
B(  6-C , 11-H ) :   0.9788 B(  7-O ,  8-H ) :   0.9022

Dispersion correction           -0.000234109
FINAL SINGLE POINT ENERGY      -115.729288243863

DIPOLE MOMENT
-------------
                                X             Y             Z
Electronic contribution:     -1.22430       0.33741      -1.57980
Nuclear contribution   :      1.57147       0.09765       2.07418
                        -----------------------------------------
Total Dipole Moment    :      0.34717       0.43506       0.49438
                        -----------------------------------------
Magnitude (a.u.)       :      0.74446
Magnitude (Debye)      :      1.89227

Rotational constants in cm-1:     4.347832     0.824234     0.794860
Rotational constants in MHz : 130344.728929 24709.911888 23829.305424

                             ****ORCA TERMINATED NORMALLY****
TOTAL RUN TIME: 0 days 0 hours 0 minutes 51 seconds 914 msec
