                         Program Version 4.1.2  - RELEASE  -
|  1> #Run DFT-D3 single point of the dimer
|  2> ! wB97X-D3 def2-TZVP TIGHTSCF CHELPG PMODEL PAL8
|  3>
|  4> %base "17-187_DFT_AB"
|  5>
|  6> %scf
|  7> MaxIter 1000
|  8> end
|  9>
| 10> * xyz 0 1
| 11>   C                      1.901071             -3.004738            -5.018031
| 12>   O                      0.554146             -3.179615            -5.105553
| 13>   H                      0.246050             -2.287583            -4.906910
| 14>   H                      2.307836             -3.605049            -4.262497
| 15>   H                      2.333775             -3.283509            -6.014184
| 16>   H                      2.174560             -1.961998            -4.899271
| 17>   C                      0.647769             0.124529             -6.481577
| 18>   O                      -0.226637            -0.471103            -5.579255
| 19>   H                      -1.142298            -0.269324            -5.796997
| 20>   H                      0.812610             1.142135             -6.183510
| 21>   H                      1.646017             -0.430610            -6.555215
| 22>   H                      0.176068             0.014633             -7.407592
| 23> *
| 24>
| 25> #Run DFT-D3 single point of the molecule with dimer basis set
| 26> $new_job
| 27> %base "17-187_DFT_A"
| 28> ! wB97X-D3 def2-TZVP TIGHTSCF CHELPG PMODEL
| 29>
| 30> %scf
| 31> MaxIter 1000
| 32> end
| 33>
| 34> * xyz 0 1
| 35>   C                      1.901071             -3.004738            -5.018031
| 36>   O                      0.554146             -3.179615            -5.105553
| 37>   H                      0.246050             -2.287583            -4.906910
| 38>   H                      2.307836             -3.605049            -4.262497
| 39>   H                      2.333775             -3.283509            -6.014184
| 40>   H                      2.174560             -1.961998            -4.899271
| 41>   C                    : 0.647769             0.124529             -6.481577
| 42>   O                    : -0.226637            -0.471103            -5.579255
| 43>   H                    : -1.142298            -0.269324            -5.796997
| 44>   H                    : 0.812610             1.142135             -6.183510
| 45>   H                    : 1.646017             -0.430610            -6.555215
| 46>   H                    : 0.176068             0.014633             -7.407592
| 47> *
| 48>
| 49> #Run DFT-D3 single point of the particle with dimer basis set
| 50> $new_job
| 51> %base "17-187_DFT_B"
| 52> ! wB97X-D3 def2-TZVP TIGHTSCF CHELPG PMODEL
| 53>
| 54> %scf
| 55> MaxIter 1000
| 56> end
| 57>
| 58> * xyz 0 1
| 59>   C                    : 1.901071             -3.004738            -5.018031
| 60>   O                    : 0.554146             -3.179615            -5.105553
| 61>   H                    : 0.246050             -2.287583            -4.906910
| 62>   H                    : 2.307836             -3.605049            -4.262497
| 63>   H                    : 2.333775             -3.283509            -6.014184
| 64>   H                    : 2.174560             -1.961998            -4.899271
| 65>   C                      0.647769             0.124529             -6.481577
| 66>   O                      -0.226637            -0.471103            -5.579255
| 67>   H                      -1.142298            -0.269324            -5.796997
| 68>   H                      0.812610             1.142135             -6.183510
| 69>   H                      1.646017             -0.430610            -6.555215
| 70>   H                      0.176068             0.014633             -7.407592
| 71> *
| 72>
| 73>                          ****END OF INPUT****
 Total Charge           Charge          ....    0
 Multiplicity           Mult            ....    1
 Number of Electrons    NEL             ....   36
Dispersion correction           -0.002150290
FINAL SINGLE POINT ENERGY      -231.465731682382
Dispersion correction           -0.000201068
FINAL SINGLE POINT ENERGY      -115.728077828684

CARTESIAN COORDINATES (ANGSTROEM)
---------------------------------
  C      1.901071   -3.004738   -5.018031
  O      0.554146   -3.179615   -5.105553
  H      0.246050   -2.287583   -4.906910
  H      2.307836   -3.605049   -4.262497
  H      2.333775   -3.283509   -6.014184
  H      2.174560   -1.961998   -4.899271
  C      0.647769    0.124529   -6.481577
  O     -0.226637   -0.471103   -5.579255
  H     -1.142298   -0.269324   -5.796997
  H      0.812610    1.142135   -6.183510
  H      1.646017   -0.430610   -6.555215
  H      0.176068    0.014633   -7.407592

 Multiplicity           Mult            ....    1
 Number of Electrons    NEL             ....   18
 Basis Dimension        Dim             ....  172

ORBITAL ENERGIES
----------------

  NO   OCC          E(Eh)            E(eV)
   0   2.0000     -19.224163      -523.1161
   1   2.0000     -10.308446      -280.5071
   2   2.0000      -1.140174       -31.0257
   3   2.0000      -0.794621       -21.6227
   4   2.0000      -0.612627       -16.6704
   5   2.0000      -0.557619       -15.1736
   6   2.0000      -0.528975       -14.3942
   7   2.0000      -0.419873       -11.4253
   8   2.0000      -0.371307       -10.1038
   9   0.0000       0.098549         2.6817
  10   0.0000       0.124035         3.3752
  11   0.0000       0.156480         4.2581
  12   0.0000       0.197472         5.3735
  13   0.0000       0.201477         5.4825

MULLIKEN ATOMIC CHARGES
-----------------------
   0 C :    0.002758
   1 O :   -0.001300
   2 H :   -0.008925
   3 H :   -0.000004
   4 H :   -0.000798
   5 H :    0.000107
   6 C :   -0.145392
   7 O :   -0.480587
   8 H :    0.316777
   9 H :    0.101623
  10 H :    0.109572
  11 H :    0.106168
Sum of atomic charges:    0.0000000

LOEWDIN ATOMIC CHARGES
----------------------
   0 C :   -0.007239
   1 O :   -0.006758
   2 H :   -0.038623
   3 H :   -0.000034
   4 H :   -0.000438
   5 H :   -0.004040
   6 C :   -0.386678
   7 O :   -0.027822
   8 H :    0.171084
   9 H :    0.092154
  10 H :    0.120701
  11 H :    0.087694

  Mayer bond orders larger than 0.1
B(  6-C ,  7-O ) :   0.9773 B(  6-C ,  9-H ) :   0.9750 B(  6-C , 10-H ) :   0.9740
B(  6-C , 11-H ) :   0.9925 B(  7-O ,  8-H ) :   0.8928

Dispersion correction           -0.000216346
FINAL SINGLE POINT ENERGY      -115.729326374300

DIPOLE MOMENT
-------------
                                X             Y             Z
Electronic contribution:     -0.99170      -0.71193       1.17522
Nuclear contribution   :      0.73143       1.07783      -1.69801
                        -----------------------------------------
Total Dipole Moment    :     -0.26027       0.36590      -0.52279
                        -----------------------------------------
Magnitude (a.u.)       :      0.68915
Magnitude (Debye)      :      1.75169

Rotational constants in cm-1:     4.314413     0.857729     0.831712
Rotational constants in MHz : 129342.835266 25714.078535 24934.090031

                             ****ORCA TERMINATED NORMALLY****
TOTAL RUN TIME: 0 days 0 hours 1 minutes 13 seconds 693 msec
