                         Program Version 4.1.2  - RELEASE  -
|  1> #Run DFT-D3 single point of the dimer
|  2> ! wB97X-D3 def2-TZVP TIGHTSCF CHELPG PMODEL PAL8
|  3>
|  4> %base "13-111_DFT_AB"
|  5>
|  6> %scf
|  7> MaxIter 1000
|  8> end
|  9>
| 10> * xyz 0 1
| 11>   C                      -6.030512            6.655904             1.816928
| 12>   O                      -5.728468            6.776601             3.218112
| 13>   H                      -4.798940            6.874311             3.255842
| 14>   H                      -7.104650            6.813739             1.601745
| 15>   H                      -5.444522            7.352368             1.185617
| 16>   H                      -5.877691            5.637061             1.551672
| 17>   C                      -0.472696            4.387089             3.663431
| 18>   O                      -1.199692            5.523932             3.957028
| 19>   H                      -2.086273            5.148454             3.979004
| 20>   H                      -0.320164            3.771186             4.547307
| 21>   H                      -0.846231            3.767167             2.796776
| 22>   H                      0.467371             4.666513             3.242969
| 23> *
| 24>
| 25> #Run DFT-D3 single point of the molecule with dimer basis set
| 26> $new_job
| 27> %base "13-111_DFT_A"
| 28> ! wB97X-D3 def2-TZVP TIGHTSCF CHELPG PMODEL
| 29>
| 30> %scf
| 31> MaxIter 1000
| 32> end
| 33>
| 34> * xyz 0 1
| 35>   C                      -6.030512            6.655904             1.816928
| 36>   O                      -5.728468            6.776601             3.218112
| 37>   H                      -4.798940            6.874311             3.255842
| 38>   H                      -7.104650            6.813739             1.601745
| 39>   H                      -5.444522            7.352368             1.185617
| 40>   H                      -5.877691            5.637061             1.551672
| 41>   C                    : -0.472696            4.387089             3.663431
| 42>   O                    : -1.199692            5.523932             3.957028
| 43>   H                    : -2.086273            5.148454             3.979004
| 44>   H                    : -0.320164            3.771186             4.547307
| 45>   H                    : -0.846231            3.767167             2.796776
| 46>   H                    : 0.467371             4.666513             3.242969
| 47> *
| 48>
| 49> #Run DFT-D3 single point of the particle with dimer basis set
| 50> $new_job
| 51> %base "13-111_DFT_B"
| 52> ! wB97X-D3 def2-TZVP TIGHTSCF CHELPG PMODEL
| 53>
| 54> %scf
| 55> MaxIter 1000
| 56> end
| 57>
| 58> * xyz 0 1
| 59>   C                    : -6.030512            6.655904             1.816928
| 60>   O                    : -5.728468            6.776601             3.218112
| 61>   H                    : -4.798940            6.874311             3.255842
| 62>   H                    : -7.104650            6.813739             1.601745
| 63>   H                    : -5.444522            7.352368             1.185617
| 64>   H                    : -5.877691            5.637061             1.551672
| 65>   C                      -0.472696            4.387089             3.663431
| 66>   O                      -1.199692            5.523932             3.957028
| 67>   H                      -2.086273            5.148454             3.979004
| 68>   H                      -0.320164            3.771186             4.547307
| 69>   H                      -0.846231            3.767167             2.796776
| 70>   H                      0.467371             4.666513             3.242969
| 71> *
| 72>
| 73>                          ****END OF INPUT****
 Total Charge           Charge          ....    0
 Multiplicity           Mult            ....    1
 Number of Electrons    NEL             ....   36
Dispersion correction           -0.000738200
FINAL SINGLE POINT ENERGY      -231.463699508078
Dispersion correction           -0.000238998
FINAL SINGLE POINT ENERGY      -115.733024058318

CARTESIAN COORDINATES (ANGSTROEM)
---------------------------------
  C     -6.030512    6.655904    1.816928
  O     -5.728468    6.776601    3.218112
  H     -4.798940    6.874311    3.255842
  H     -7.104650    6.813739    1.601745
  H     -5.444522    7.352368    1.185617
  H     -5.877691    5.637061    1.551672
  C     -0.472696    4.387089    3.663431
  O     -1.199692    5.523932    3.957028
  H     -2.086273    5.148454    3.979004
  H     -0.320164    3.771186    4.547307
  H     -0.846231    3.767167    2.796776
  H      0.467371    4.666513    3.242969

 Multiplicity           Mult            ....    1
 Number of Electrons    NEL             ....   18
 Basis Dimension        Dim             ....  172

ORBITAL ENERGIES
----------------

  NO   OCC          E(Eh)            E(eV)
   0   2.0000     -19.235022      -523.4116
   1   2.0000     -10.309866      -280.5457
   2   2.0000      -1.153622       -31.3916
   3   2.0000      -0.792140       -21.5552
   4   2.0000      -0.613852       -16.7038
   5   2.0000      -0.556040       -15.1306
   6   2.0000      -0.526932       -14.3385
   7   2.0000      -0.432329       -11.7643
   8   2.0000      -0.377142       -10.2625
   9   0.0000       0.081181         2.2090
  10   0.0000       0.116580         3.1723
  11   0.0000       0.148942         4.0529
  12   0.0000       0.179249         4.8776
  13   0.0000       0.195696         5.3252

MULLIKEN ATOMIC CHARGES
-----------------------
   0 C :    0.000018
   1 O :    0.000067
   2 H :   -0.000590
   3 H :   -0.000003
   4 H :    0.000003
   5 H :   -0.000006
   6 C :   -0.179452
   7 O :   -0.451370
   8 H :    0.319650
   9 H :    0.103308
  10 H :    0.096961
  11 H :    0.111415
Sum of atomic charges:   -0.0000000

LOEWDIN ATOMIC CHARGES
----------------------
   0 C :   -0.000027
   1 O :   -0.000018
   2 H :   -0.000462
   3 H :   -0.000001
   4 H :   -0.000001
   5 H :   -0.000003
   6 C :   -0.425273
   7 O :   -0.048854
   8 H :    0.179682
   9 H :    0.093315
  10 H :    0.100767
  11 H :    0.100875

  Mayer bond orders larger than 0.1
B(  6-C ,  7-O ) :   1.0130 B(  6-C ,  9-H ) :   0.9757 B(  6-C , 10-H ) :   0.9749
B(  6-C , 11-H ) :   0.9749 B(  7-O ,  8-H ) :   0.8998

Dispersion correction           -0.000218524
FINAL SINGLE POINT ENERGY      -115.730212735376

DIPOLE MOMENT
-------------
                                X             Y             Z
Electronic contribution:     -0.88588       1.65982       0.50773
Nuclear contribution   :      0.62365      -2.28163      -0.61982
                        -----------------------------------------
Total Dipole Moment    :     -0.26223      -0.62181      -0.11209
                        -----------------------------------------
Magnitude (a.u.)       :      0.68409
Magnitude (Debye)      :      1.73882

Rotational constants in cm-1:     4.290145     0.861190     0.840536
Rotational constants in MHz : 128615.299786 25817.818550 25198.622096

                             ****ORCA TERMINATED NORMALLY****
TOTAL RUN TIME: 0 days 0 hours 1 minutes 9 seconds 341 msec
