                         Program Version 4.1.2  - RELEASE  -
|  1> #Run DFT-D3 single point of the dimer
|  2> ! wB97X-D3 def2-TZVP TIGHTSCF CHELPG PMODEL PAL8
|  3>
|  4> %base "15-27_DFT_AB"
|  5>
|  6> %scf
|  7> MaxIter 1000
|  8> end
|  9>
| 10> * xyz 0 1
| 11>   C                      4.420336             -3.631376            1.742753
| 12>   O                      3.162538             -4.207617            1.389367
| 13>   H                      2.908502             -4.657569            2.203867
| 14>   H                      4.810058             -2.966194            0.971924
| 15>   H                      4.419981             -3.156620            2.638260
| 16>   H                      5.257324             -4.385752            1.882703
| 17>   C                      10.087443            -2.550923            2.362808
| 18>   O                      10.738613            -3.062770            3.466789
| 19>   H                      11.658350            -2.744216            3.419616
| 20>   H                      9.194699             -3.126496            2.268164
| 21>   H                      9.782305             -1.492335            2.515817
| 22>   H                      10.701467            -2.595915            1.475254
| 23> *
| 24>
| 25> #Run DFT-D3 single point of the molecule with dimer basis set
| 26> $new_job
| 27> %base "15-27_DFT_A"
| 28> ! wB97X-D3 def2-TZVP TIGHTSCF CHELPG PMODEL
| 29>
| 30> %scf
| 31> MaxIter 1000
| 32> end
| 33>
| 34> * xyz 0 1
| 35>   C                      4.420336             -3.631376            1.742753
| 36>   O                      3.162538             -4.207617            1.389367
| 37>   H                      2.908502             -4.657569            2.203867
| 38>   H                      4.810058             -2.966194            0.971924
| 39>   H                      4.419981             -3.156620            2.638260
| 40>   H                      5.257324             -4.385752            1.882703
| 41>   C                    : 10.087443            -2.550923            2.362808
| 42>   O                    : 10.738613            -3.062770            3.466789
| 43>   H                    : 11.658350            -2.744216            3.419616
| 44>   H                    : 9.194699             -3.126496            2.268164
| 45>   H                    : 9.782305             -1.492335            2.515817
| 46>   H                    : 10.701467            -2.595915            1.475254
| 47> *
| 48>
| 49> #Run DFT-D3 single point of the particle with dimer basis set
| 50> $new_job
| 51> %base "15-27_DFT_B"
| 52> ! wB97X-D3 def2-TZVP TIGHTSCF CHELPG PMODEL
| 53>
| 54> %scf
| 55> MaxIter 1000
| 56> end
| 57>
| 58> * xyz 0 1
| 59>   C                    : 4.420336             -3.631376            1.742753
| 60>   O                    : 3.162538             -4.207617            1.389367
| 61>   H                    : 2.908502             -4.657569            2.203867
| 62>   H                    : 4.810058             -2.966194            0.971924
| 63>   H                    : 4.419981             -3.156620            2.638260
| 64>   H                    : 5.257324             -4.385752            1.882703
| 65>   C                      10.087443            -2.550923            2.362808
| 66>   O                      10.738613            -3.062770            3.466789
| 67>   H                      11.658350            -2.744216            3.419616
| 68>   H                      9.194699             -3.126496            2.268164
| 69>   H                      9.782305             -1.492335            2.515817
| 70>   H                      10.701467            -2.595915            1.475254
| 71> *
| 72>
| 73>                          ****END OF INPUT****
 Total Charge           Charge          ....    0
 Multiplicity           Mult            ....    1
 Number of Electrons    NEL             ....   36
Dispersion correction           -0.000585506
FINAL SINGLE POINT ENERGY      -231.463308848900
Dispersion correction           -0.000239924
FINAL SINGLE POINT ENERGY      -115.728308630327

CARTESIAN COORDINATES (ANGSTROEM)
---------------------------------
  C      4.420336   -3.631376    1.742753
  O      3.162538   -4.207617    1.389367
  H      2.908502   -4.657569    2.203867
  H      4.810058   -2.966194    0.971924
  H      4.419981   -3.156620    2.638260
  H      5.257324   -4.385752    1.882703
  C     10.087443   -2.550923    2.362808
  O     10.738613   -3.062770    3.466789
  H     11.658350   -2.744216    3.419616
  H      9.194699   -3.126496    2.268164
  H      9.782305   -1.492335    2.515817
  H     10.701467   -2.595915    1.475254

 Multiplicity           Mult            ....    1
 Number of Electrons    NEL             ....   18
 Basis Dimension        Dim             ....  172

ORBITAL ENERGIES
----------------

  NO   OCC          E(Eh)            E(eV)
   0   2.0000     -19.230027      -523.2756
   1   2.0000     -10.306303      -280.4488
   2   2.0000      -1.145192       -31.1623
   3   2.0000      -0.792751       -21.5719
   4   2.0000      -0.617818       -16.8117
   5   2.0000      -0.542532       -14.7631
   6   2.0000      -0.531437       -14.4611
   7   2.0000      -0.437017       -11.8918
   8   2.0000      -0.369251       -10.0478
   9   0.0000       0.085711         2.3323
  10   0.0000       0.113366         3.0849
  11   0.0000       0.148425         4.0388
  12   0.0000       0.171644         4.6707
  13   0.0000       0.188014         5.1161

MULLIKEN ATOMIC CHARGES
-----------------------
   0 C :    0.000025
   1 O :   -0.000000
   2 H :   -0.000000
   3 H :   -0.000011
   4 H :   -0.000009
   5 H :   -0.000059
   6 C :   -0.146908
   7 O :   -0.468442
   8 H :    0.314755
   9 H :    0.115946
  10 H :    0.086843
  11 H :    0.097861
Sum of atomic charges:   -0.0000000

LOEWDIN ATOMIC CHARGES
----------------------
   0 C :   -0.000033
   1 O :   -0.000000
   2 H :   -0.000000
   3 H :   -0.000005
   4 H :   -0.000002
   5 H :   -0.000039
   6 C :   -0.409203
   7 O :   -0.059083
   8 H :    0.179795
   9 H :    0.103169
  10 H :    0.094612
  11 H :    0.090789

  Mayer bond orders larger than 0.1
B(  6-C ,  7-O ) :   1.0062 B(  6-C ,  9-H ) :   0.9771 B(  6-C , 10-H ) :   0.9738
B(  6-C , 11-H ) :   0.9815 B(  7-O ,  8-H ) :   0.8985

Dispersion correction           -0.000217844
FINAL SINGLE POINT ENERGY      -115.734779858284

DIPOLE MOMENT
-------------
                                X             Y             Z
Electronic contribution:      0.74264      -0.78648       1.42726
Nuclear contribution   :     -0.40628       1.15589      -1.87387
                        -----------------------------------------
Total Dipole Moment    :      0.33636       0.36942      -0.44661
                        -----------------------------------------
Magnitude (a.u.)       :      0.67012
Magnitude (Debye)      :      1.70332

Rotational constants in cm-1:     4.257757     0.874578     0.838426
Rotational constants in MHz : 127644.342508 26219.183098 25135.368192

                             ****ORCA TERMINATED NORMALLY****
TOTAL RUN TIME: 0 days 0 hours 0 minutes 58 seconds 907 msec
