                         Program Version 4.1.2  - RELEASE  -
|  1> #Run DFT-D3 single point of the dimer
|  2> ! wB97X-D3 def2-TZVP TIGHTSCF CHELPG PMODEL PAL8
|  3>
|  4> %base "19-84_DFT_AB"
|  5>
|  6> %scf
|  7> MaxIter 1000
|  8> end
|  9>
| 10> * xyz 0 1
| 11>   C                      1.790265             3.458561             8.299905
| 12>   O                      0.760315             4.348827             7.951540
| 13>   H                      0.700689             4.320397             6.985783
| 14>   H                      2.747720             4.048782             8.453165
| 15>   H                      1.540345             2.807398             9.173545
| 16>   H                      2.017215             2.823354             7.489023
| 17>   C                      -2.472019            6.718270             9.838577
| 18>   O                      -3.128777            6.038836             10.865620
| 19>   H                      -2.541078            5.623681             11.411225
| 20>   H                      -2.944758            7.683144             9.612910
| 21>   H                      -1.430267            6.842742             10.183854
| 22>   H                      -2.344871            6.126323             8.908435
| 23> *
| 24>
| 25> #Run DFT-D3 single point of the molecule with dimer basis set
| 26> $new_job
| 27> %base "19-84_DFT_A"
| 28> ! wB97X-D3 def2-TZVP TIGHTSCF CHELPG PMODEL
| 29>
| 30> %scf
| 31> MaxIter 1000
| 32> end
| 33>
| 34> * xyz 0 1
| 35>   C                      1.790265             3.458561             8.299905
| 36>   O                      0.760315             4.348827             7.951540
| 37>   H                      0.700689             4.320397             6.985783
| 38>   H                      2.747720             4.048782             8.453165
| 39>   H                      1.540345             2.807398             9.173545
| 40>   H                      2.017215             2.823354             7.489023
| 41>   C                    : -2.472019            6.718270             9.838577
| 42>   O                    : -3.128777            6.038836             10.865620
| 43>   H                    : -2.541078            5.623681             11.411225
| 44>   H                    : -2.944758            7.683144             9.612910
| 45>   H                    : -1.430267            6.842742             10.183854
| 46>   H                    : -2.344871            6.126323             8.908435
| 47> *
| 48>
| 49> #Run DFT-D3 single point of the particle with dimer basis set
| 50> $new_job
| 51> %base "19-84_DFT_B"
| 52> ! wB97X-D3 def2-TZVP TIGHTSCF CHELPG PMODEL
| 53>
| 54> %scf
| 55> MaxIter 1000
| 56> end
| 57>
| 58> * xyz 0 1
| 59>   C                    : 1.790265             3.458561             8.299905
| 60>   O                    : 0.760315             4.348827             7.951540
| 61>   H                    : 0.700689             4.320397             6.985783
| 62>   H                    : 2.747720             4.048782             8.453165
| 63>   H                    : 1.540345             2.807398             9.173545
| 64>   H                    : 2.017215             2.823354             7.489023
| 65>   C                      -2.472019            6.718270             9.838577
| 66>   O                      -3.128777            6.038836             10.865620
| 67>   H                      -2.541078            5.623681             11.411225
| 68>   H                      -2.944758            7.683144             9.612910
| 69>   H                      -1.430267            6.842742             10.183854
| 70>   H                      -2.344871            6.126323             8.908435
| 71> *
| 72>
| 73>                          ****END OF INPUT****
 Total Charge           Charge          ....    0
 Multiplicity           Mult            ....    1
 Number of Electrons    NEL             ....   36
Dispersion correction           -0.000796910
FINAL SINGLE POINT ENERGY      -231.462236818578
Dispersion correction           -0.000237640
FINAL SINGLE POINT ENERGY      -115.731623610296

CARTESIAN COORDINATES (ANGSTROEM)
---------------------------------
  C      1.790265    3.458561    8.299905
  O      0.760315    4.348827    7.951540
  H      0.700689    4.320397    6.985783
  H      2.747720    4.048782    8.453165
  H      1.540345    2.807398    9.173545
  H      2.017215    2.823354    7.489023
  C     -2.472019    6.718270    9.838577
  O     -3.128777    6.038836   10.865620
  H     -2.541078    5.623681   11.411225
  H     -2.944758    7.683144    9.612910
  H     -1.430267    6.842742   10.183854
  H     -2.344871    6.126323    8.908435

 Multiplicity           Mult            ....    1
 Number of Electrons    NEL             ....   18
 Basis Dimension        Dim             ....  172

ORBITAL ENERGIES
----------------

  NO   OCC          E(Eh)            E(eV)
   0   2.0000     -19.222637      -523.0745
   1   2.0000     -10.316288      -280.7205
   2   2.0000      -1.151914       -31.3452
   3   2.0000      -0.799331       -21.7509
   4   2.0000      -0.623150       -16.9568
   5   2.0000      -0.540733       -14.7141
   6   2.0000      -0.535472       -14.5709
   7   2.0000      -0.427870       -11.6429
   8   2.0000      -0.372478       -10.1356
   9   0.0000       0.081525         2.2184
  10   0.0000       0.116246         3.1632
  11   0.0000       0.145903         3.9702
  12   0.0000       0.173372         4.7177
  13   0.0000       0.193765         5.2726

MULLIKEN ATOMIC CHARGES
-----------------------
   0 C :   -0.000037
   1 O :   -0.000019
   2 H :   -0.000052
   3 H :    0.000001
   4 H :    0.000003
   5 H :    0.000001
   6 C :   -0.153051
   7 O :   -0.461850
   8 H :    0.305192
   9 H :    0.116473
  10 H :    0.095887
  11 H :    0.097454
Sum of atomic charges:    0.0000000

LOEWDIN ATOMIC CHARGES
----------------------
   0 C :   -0.000021
   1 O :   -0.000169
   2 H :   -0.000066
   3 H :   -0.000001
   4 H :   -0.000001
   5 H :   -0.000000
   6 C :   -0.392809
   7 O :   -0.037529
   8 H :    0.130353
   9 H :    0.105500
  10 H :    0.098416
  11 H :    0.096328

  Mayer bond orders larger than 0.1
B(  6-C ,  7-O ) :   1.0054 B(  6-C ,  9-H ) :   0.9720 B(  6-C , 10-H ) :   0.9955
B(  6-C , 11-H ) :   0.9676 B(  7-O ,  8-H ) :   0.9128

Dispersion correction           -0.000236076
FINAL SINGLE POINT ENERGY      -115.729566846069

DIPOLE MOMENT
-------------
                                X             Y             Z
Electronic contribution:     -1.06841      -0.78357       1.27111
Nuclear contribution   :      1.73976       0.77859      -1.29217
                        -----------------------------------------
Total Dipole Moment    :      0.67135      -0.00498      -0.02106
                        -----------------------------------------
Magnitude (a.u.)       :      0.67170
Magnitude (Debye)      :      1.70732

Rotational constants in cm-1:     4.369257     0.848929     0.817327
Rotational constants in MHz : 130987.025174 25450.249260 24502.861680

                             ****ORCA TERMINATED NORMALLY****
TOTAL RUN TIME: 0 days 0 hours 0 minutes 51 seconds 243 msec
