                         Program Version 4.1.2  - RELEASE  -
|  1> #Run DFT-D3 single point of the dimer
|  2> ! wB97X-D3 def2-TZVP TIGHTSCF CHELPG PMODEL PAL8
|  3>
|  4> %base "19-140_DFT_AB"
|  5>
|  6> %scf
|  7> MaxIter 1000
|  8> end
|  9>
| 10> * xyz 0 1
| 11>   C                      4.711834             -8.345417            -1.787665
| 12>   O                      4.351505             -9.380712            -2.640933
| 13>   H                      4.436691             -10.246070           -2.192788
| 14>   H                      5.247250             -7.520029            -2.200052
| 15>   H                      3.785953             -7.910492            -1.349305
| 16>   H                      5.296892             -8.815568            -0.964432
| 17>   C                      0.987124             -10.075866           -3.401196
| 18>   O                      1.955526             -9.358038            -4.191095
| 19>   H                      2.661868             -9.055012            -3.662187
| 20>   H                      0.201553             -10.550185           -4.029805
| 21>   H                      1.492201             -10.812238           -2.728188
| 22>   H                      0.364446             -9.317621            -2.876252
| 23> *
| 24>
| 25> #Run DFT-D3 single point of the molecule with dimer basis set
| 26> $new_job
| 27> %base "19-140_DFT_A"
| 28> ! wB97X-D3 def2-TZVP TIGHTSCF CHELPG PMODEL
| 29>
| 30> %scf
| 31> MaxIter 1000
| 32> end
| 33>
| 34> * xyz 0 1
| 35>   C                      4.711834             -8.345417            -1.787665
| 36>   O                      4.351505             -9.380712            -2.640933
| 37>   H                      4.436691             -10.246070           -2.192788
| 38>   H                      5.247250             -7.520029            -2.200052
| 39>   H                      3.785953             -7.910492            -1.349305
| 40>   H                      5.296892             -8.815568            -0.964432
| 41>   C                    : 0.987124             -10.075866           -3.401196
| 42>   O                    : 1.955526             -9.358038            -4.191095
| 43>   H                    : 2.661868             -9.055012            -3.662187
| 44>   H                    : 0.201553             -10.550185           -4.029805
| 45>   H                    : 1.492201             -10.812238           -2.728188
| 46>   H                    : 0.364446             -9.317621            -2.876252
| 47> *
| 48>
| 49> #Run DFT-D3 single point of the particle with dimer basis set
| 50> $new_job
| 51> %base "19-140_DFT_B"
| 52> ! wB97X-D3 def2-TZVP TIGHTSCF CHELPG PMODEL
| 53>
| 54> %scf
| 55> MaxIter 1000
| 56> end
| 57>
| 58> * xyz 0 1
| 59>   C                    : 4.711834             -8.345417            -1.787665
| 60>   O                    : 4.351505             -9.380712            -2.640933
| 61>   H                    : 4.436691             -10.246070           -2.192788
| 62>   H                    : 5.247250             -7.520029            -2.200052
| 63>   H                    : 3.785953             -7.910492            -1.349305
| 64>   H                    : 5.296892             -8.815568            -0.964432
| 65>   C                      0.987124             -10.075866           -3.401196
| 66>   O                      1.955526             -9.358038            -4.191095
| 67>   H                      2.661868             -9.055012            -3.662187
| 68>   H                      0.201553             -10.550185           -4.029805
| 69>   H                      1.492201             -10.812238           -2.728188
| 70>   H                      0.364446             -9.317621            -2.876252
| 71> *
| 72>
| 73>                          ****END OF INPUT****
 Total Charge           Charge          ....    0
 Multiplicity           Mult            ....    1
 Number of Electrons    NEL             ....   36
Dispersion correction           -0.001846400
FINAL SINGLE POINT ENERGY      -231.468017157749
Dispersion correction           -0.000234336
FINAL SINGLE POINT ENERGY      -115.730700768004

CARTESIAN COORDINATES (ANGSTROEM)
---------------------------------
  C      4.711834   -8.345417   -1.787665
  O      4.351505   -9.380712   -2.640933
  H      4.436691  -10.246070   -2.192788
  H      5.247250   -7.520029   -2.200052
  H      3.785953   -7.910492   -1.349305
  H      5.296892   -8.815568   -0.964432
  C      0.987124  -10.075866   -3.401196
  O      1.955526   -9.358038   -4.191095
  H      2.661868   -9.055012   -3.662187
  H      0.201553  -10.550185   -4.029805
  H      1.492201  -10.812238   -2.728188
  H      0.364446   -9.317621   -2.876252

 Multiplicity           Mult            ....    1
 Number of Electrons    NEL             ....   18
 Basis Dimension        Dim             ....  172

ORBITAL ENERGIES
----------------

  NO   OCC          E(Eh)            E(eV)
   0   2.0000     -19.226001      -523.1661
   1   2.0000     -10.323369      -280.9132
   2   2.0000      -1.131405       -30.7871
   3   2.0000      -0.796244       -21.6669
   4   2.0000      -0.604329       -16.4446
   5   2.0000      -0.545336       -14.8393
   6   2.0000      -0.522696       -14.2233
   7   2.0000      -0.428366       -11.6564
   8   2.0000      -0.372976       -10.1492
   9   0.0000       0.070229         1.9110
  10   0.0000       0.134073         3.6483
  11   0.0000       0.151385         4.1194
  12   0.0000       0.157520         4.2863
  13   0.0000       0.191891         5.2216

MULLIKEN ATOMIC CHARGES
-----------------------
   0 C :   -0.001480
   1 O :   -0.005974
   2 H :   -0.000408
   3 H :    0.000131
   4 H :   -0.000489
   5 H :   -0.000034
   6 C :   -0.168522
   7 O :   -0.474795
   8 H :    0.309654
   9 H :    0.124216
  10 H :    0.110986
  11 H :    0.106715
Sum of atomic charges:   -0.0000000

LOEWDIN ATOMIC CHARGES
----------------------
   0 C :   -0.004183
   1 O :   -0.017568
   2 H :   -0.001450
   3 H :   -0.000079
   4 H :   -0.000659
   5 H :   -0.000082
   6 C :   -0.369059
   7 O :   -0.074563
   8 H :    0.152394
   9 H :    0.112651
  10 H :    0.102144
  11 H :    0.100455

  Mayer bond orders larger than 0.1
B(  6-C ,  7-O ) :   0.9835 B(  6-C ,  9-H ) :   0.9707 B(  6-C , 10-H ) :   0.9704
B(  6-C , 11-H ) :   0.9819 B(  7-O ,  8-H ) :   0.9118

Dispersion correction           -0.000259674
FINAL SINGLE POINT ENERGY      -115.731476109595

DIPOLE MOMENT
-------------
                                X             Y             Z
Electronic contribution:      1.20328       0.76920      -1.07145
Nuclear contribution   :     -1.17497      -0.87383       1.72699
                        -----------------------------------------
Total Dipole Moment    :      0.02831      -0.10464       0.65554
                        -----------------------------------------
Magnitude (a.u.)       :      0.66444
Magnitude (Debye)      :      1.68888

Rotational constants in cm-1:     4.227075     0.801361     0.774857
Rotational constants in MHz : 126724.534862 24024.206409 23229.637653

                             ****ORCA TERMINATED NORMALLY****
TOTAL RUN TIME: 0 days 0 hours 0 minutes 50 seconds 58 msec
