                         Program Version 4.1.2  - RELEASE  -
|  1> #Run DFT-D3 single point of the dimer
|  2> ! wB97X-D3 def2-TZVP TIGHTSCF CHELPG PMODEL PAL8
|  3>
|  4> %base "16-151_DFT_AB"
|  5>
|  6> %scf
|  7> MaxIter 1000
|  8> end
|  9>
| 10> * xyz 0 1
| 11>   C                      3.517834             -8.747606            1.460186
| 12>   O                      4.829382             -8.235508            1.418514
| 13>   H                      5.082431             -8.293517            0.508124
| 14>   H                      3.325254             -9.482731            0.759865
| 15>   H                      3.268235             -9.300667            2.413864
| 16>   H                      2.728976             -7.938269            1.480270
| 17>   C                      3.434464             -6.323335            -0.905216
| 18>   O                      4.164704             -7.455818            -1.326360
| 19>   H                      3.560411             -8.224098            -1.348252
| 20>   H                      4.097257             -5.507385            -0.597335
| 21>   H                      2.775232             -6.025212            -1.737524
| 22>   H                      2.795566             -6.570912            -0.068298
| 23> *
| 24>
| 25> #Run DFT-D3 single point of the molecule with dimer basis set
| 26> $new_job
| 27> %base "16-151_DFT_A"
| 28> ! wB97X-D3 def2-TZVP TIGHTSCF CHELPG PMODEL
| 29>
| 30> %scf
| 31> MaxIter 1000
| 32> end
| 33>
| 34> * xyz 0 1
| 35>   C                      3.517834             -8.747606            1.460186
| 36>   O                      4.829382             -8.235508            1.418514
| 37>   H                      5.082431             -8.293517            0.508124
| 38>   H                      3.325254             -9.482731            0.759865
| 39>   H                      3.268235             -9.300667            2.413864
| 40>   H                      2.728976             -7.938269            1.480270
| 41>   C                    : 3.434464             -6.323335            -0.905216
| 42>   O                    : 4.164704             -7.455818            -1.326360
| 43>   H                    : 3.560411             -8.224098            -1.348252
| 44>   H                    : 4.097257             -5.507385            -0.597335
| 45>   H                    : 2.775232             -6.025212            -1.737524
| 46>   H                    : 2.795566             -6.570912            -0.068298
| 47> *
| 48>
| 49> #Run DFT-D3 single point of the particle with dimer basis set
| 50> $new_job
| 51> %base "16-151_DFT_B"
| 52> ! wB97X-D3 def2-TZVP TIGHTSCF CHELPG PMODEL
| 53>
| 54> %scf
| 55> MaxIter 1000
| 56> end
| 57>
| 58> * xyz 0 1
| 59>   C                    : 3.517834             -8.747606            1.460186
| 60>   O                    : 4.829382             -8.235508            1.418514
| 61>   H                    : 5.082431             -8.293517            0.508124
| 62>   H                    : 3.325254             -9.482731            0.759865
| 63>   H                    : 3.268235             -9.300667            2.413864
| 64>   H                    : 2.728976             -7.938269            1.480270
| 65>   C                      3.434464             -6.323335            -0.905216
| 66>   O                      4.164704             -7.455818            -1.326360
| 67>   H                      3.560411             -8.224098            -1.348252
| 68>   H                      4.097257             -5.507385            -0.597335
| 69>   H                      2.775232             -6.025212            -1.737524
| 70>   H                      2.795566             -6.570912            -0.068298
| 71> *
| 72>
| 73>                          ****END OF INPUT****
 Total Charge           Charge          ....    0
 Multiplicity           Mult            ....    1
 Number of Electrons    NEL             ....   36
Dispersion correction           -0.002543571
FINAL SINGLE POINT ENERGY      -231.469813833886
Dispersion correction           -0.000254398
FINAL SINGLE POINT ENERGY      -115.729186997249

CARTESIAN COORDINATES (ANGSTROEM)
---------------------------------
  C      3.517834   -8.747606    1.460186
  O      4.829382   -8.235508    1.418514
  H      5.082431   -8.293517    0.508124
  H      3.325254   -9.482731    0.759865
  H      3.268235   -9.300667    2.413864
  H      2.728976   -7.938269    1.480270
  C      3.434464   -6.323335   -0.905216
  O      4.164704   -7.455818   -1.326360
  H      3.560411   -8.224098   -1.348252
  H      4.097257   -5.507385   -0.597335
  H      2.775232   -6.025212   -1.737524
  H      2.795566   -6.570912   -0.068298

 Multiplicity           Mult            ....    1
 Number of Electrons    NEL             ....   18
 Basis Dimension        Dim             ....  172

ORBITAL ENERGIES
----------------

  NO   OCC          E(Eh)            E(eV)
   0   2.0000     -19.230790      -523.2964
   1   2.0000     -10.312868      -280.6274
   2   2.0000      -1.133547       -30.8454
   3   2.0000      -0.793368       -21.5886
   4   2.0000      -0.609778       -16.5929
   5   2.0000      -0.543637       -14.7931
   6   2.0000      -0.529151       -14.3989
   7   2.0000      -0.433527       -11.7969
   8   2.0000      -0.370957       -10.0943
   9   0.0000       0.083561         2.2738
  10   0.0000       0.137333         3.7370
  11   0.0000       0.150065         4.0835
  12   0.0000       0.172482         4.6935
  13   0.0000       0.199910         5.4398

MULLIKEN ATOMIC CHARGES
-----------------------
   0 C :   -0.017691
   1 O :    0.005806
   2 H :   -0.008720
   3 H :   -0.000932
   4 H :   -0.000827
   5 H :    0.002228
   6 C :   -0.170019
   7 O :   -0.468627
   8 H :    0.318735
   9 H :    0.125350
  10 H :    0.109410
  11 H :    0.105287
Sum of atomic charges:    0.0000000

LOEWDIN ATOMIC CHARGES
----------------------
   0 C :   -0.018801
   1 O :   -0.004887
   2 H :   -0.024560
   3 H :   -0.002727
   4 H :   -0.000204
   5 H :   -0.007511
   6 C :   -0.377613
   7 O :   -0.054195
   8 H :    0.182254
   9 H :    0.110610
  10 H :    0.098928
  11 H :    0.098704

  Mayer bond orders larger than 0.1
B(  6-C ,  7-O ) :   0.9738 B(  6-C ,  9-H ) :   0.9730 B(  6-C , 10-H ) :   0.9800
B(  6-C , 11-H ) :   0.9769 B(  7-O ,  8-H ) :   0.8940

Dispersion correction           -0.000227648
FINAL SINGLE POINT ENERGY      -115.736016001204

DIPOLE MOMENT
-------------
                                X             Y             Z
Electronic contribution:      1.11081      -1.28715      -0.52068
Nuclear contribution   :     -1.78042       1.26589       0.67901
                        -----------------------------------------
Total Dipole Moment    :     -0.66962      -0.02126       0.15833
                        -----------------------------------------
Magnitude (a.u.)       :      0.68841
Magnitude (Debye)      :      1.74979

Rotational constants in cm-1:     4.237884     0.837100     0.804613
Rotational constants in MHz : 127048.569542 25095.638613 24121.684387

                             ****ORCA TERMINATED NORMALLY****
TOTAL RUN TIME: 0 days 0 hours 0 minutes 58 seconds 611 msec
