                         Program Version 4.1.2  - RELEASE  -
|  1> #Run DFT-D3 single point of the dimer
|  2> ! wB97X-D3 def2-TZVP TIGHTSCF CHELPG PMODEL PAL8
|  3>
|  4> %base "22-106_DFT_AB"
|  5>
|  6> %scf
|  7> MaxIter 1000
|  8> end
|  9>
| 10> * xyz 0 1
| 11>   C                      5.079205             10.088721            1.155748
| 12>   O                      4.727494             10.801788            -0.003881
| 13>   H                      5.357990             11.570185            -0.053049
| 14>   H                      4.991311             9.059950             0.974332
| 15>   H                      6.151954             10.261616            1.523012
| 16>   H                      4.377701             10.170308            2.005355
| 17>   C                      8.731289             11.229532            -2.875286
| 18>   O                      7.314470             11.463683            -2.924470
| 19>   H                      6.838119             10.783308            -3.419614
| 20>   H                      8.907719             10.207985            -2.506736
| 21>   H                      9.225511             11.278878            -3.791571
| 22>   H                      9.287927             11.966581            -2.234232
| 23> *
| 24>
| 25> #Run DFT-D3 single point of the molecule with dimer basis set
| 26> $new_job
| 27> %base "22-106_DFT_A"
| 28> ! wB97X-D3 def2-TZVP TIGHTSCF CHELPG PMODEL
| 29>
| 30> %scf
| 31> MaxIter 1000
| 32> end
| 33>
| 34> * xyz 0 1
| 35>   C                      5.079205             10.088721            1.155748
| 36>   O                      4.727494             10.801788            -0.003881
| 37>   H                      5.357990             11.570185            -0.053049
| 38>   H                      4.991311             9.059950             0.974332
| 39>   H                      6.151954             10.261616            1.523012
| 40>   H                      4.377701             10.170308            2.005355
| 41>   C                    : 8.731289             11.229532            -2.875286
| 42>   O                    : 7.314470             11.463683            -2.924470
| 43>   H                    : 6.838119             10.783308            -3.419614
| 44>   H                    : 8.907719             10.207985            -2.506736
| 45>   H                    : 9.225511             11.278878            -3.791571
| 46>   H                    : 9.287927             11.966581            -2.234232
| 47> *
| 48>
| 49> #Run DFT-D3 single point of the particle with dimer basis set
| 50> $new_job
| 51> %base "22-106_DFT_B"
| 52> ! wB97X-D3 def2-TZVP TIGHTSCF CHELPG PMODEL
| 53>
| 54> %scf
| 55> MaxIter 1000
| 56> end
| 57>
| 58> * xyz 0 1
| 59>   C                    : 5.079205             10.088721            1.155748
| 60>   O                    : 4.727494             10.801788            -0.003881
| 61>   H                    : 5.357990             11.570185            -0.053049
| 62>   H                    : 4.991311             9.059950             0.974332
| 63>   H                    : 6.151954             10.261616            1.523012
| 64>   H                    : 4.377701             10.170308            2.005355
| 65>   C                      8.731289             11.229532            -2.875286
| 66>   O                      7.314470             11.463683            -2.924470
| 67>   H                      6.838119             10.783308            -3.419614
| 68>   H                      8.907719             10.207985            -2.506736
| 69>   H                      9.225511             11.278878            -3.791571
| 70>   H                      9.287927             11.966581            -2.234232
| 71> *
| 72>
| 73>                          ****END OF INPUT****
 Total Charge           Charge          ....    0
 Multiplicity           Mult            ....    1
 Number of Electrons    NEL             ....   36
Dispersion correction           -0.000976329
FINAL SINGLE POINT ENERGY      -231.461344434681
Dispersion correction           -0.000265139
FINAL SINGLE POINT ENERGY      -115.728680723184

CARTESIAN COORDINATES (ANGSTROEM)
---------------------------------
  C      5.079205   10.088721    1.155748
  O      4.727494   10.801788   -0.003881
  H      5.357990   11.570185   -0.053049
  H      4.991311    9.059950    0.974332
  H      6.151954   10.261616    1.523012
  H      4.377701   10.170308    2.005355
  C      8.731289   11.229532   -2.875286
  O      7.314470   11.463683   -2.924470
  H      6.838119   10.783308   -3.419614
  H      8.907719   10.207985   -2.506736
  H      9.225511   11.278878   -3.791571
  H      9.287927   11.966581   -2.234232

 Multiplicity           Mult            ....    1
 Number of Electrons    NEL             ....   18
 Basis Dimension        Dim             ....  172

ORBITAL ENERGIES
----------------

  NO   OCC          E(Eh)            E(eV)
   0   2.0000     -19.229711      -523.2670
   1   2.0000     -10.314312      -280.6667
   2   2.0000      -1.124875       -30.6094
   3   2.0000      -0.800767       -21.7900
   4   2.0000      -0.610217       -16.6048
   5   2.0000      -0.540028       -14.6949
   6   2.0000      -0.523232       -14.2379
   7   2.0000      -0.428871       -11.6702
   8   2.0000      -0.373648       -10.1675
   9   0.0000       0.092243         2.5101
  10   0.0000       0.117450         3.1960
  11   0.0000       0.148472         4.0401
  12   0.0000       0.179402         4.8818
  13   0.0000       0.198977         5.4144

MULLIKEN ATOMIC CHARGES
-----------------------
   0 C :   -0.000379
   1 O :   -0.000106
   2 H :   -0.001972
   3 H :    0.000083
   4 H :   -0.000004
   5 H :   -0.000020
   6 C :   -0.158760
   7 O :   -0.489873
   8 H :    0.318282
   9 H :    0.100818
  10 H :    0.110961
  11 H :    0.120969
Sum of atomic charges:    0.0000000

LOEWDIN ATOMIC CHARGES
----------------------
   0 C :   -0.000196
   1 O :   -0.000462
   2 H :   -0.002049
   3 H :   -0.000002
   4 H :   -0.000013
   5 H :   -0.000009
   6 C :   -0.366330
   7 O :   -0.097623
   8 H :    0.170402
   9 H :    0.097264
  10 H :    0.082372
  11 H :    0.116645

  Mayer bond orders larger than 0.1
B(  6-C ,  7-O ) :   0.9896 B(  6-C ,  9-H ) :   0.9853 B(  6-C , 10-H ) :   0.9690
B(  6-C , 11-H ) :   0.9718 B(  7-O ,  8-H ) :   0.8925

Dispersion correction           -0.000263086
FINAL SINGLE POINT ENERGY      -115.730836964658

DIPOLE MOMENT
-------------
                                X             Y             Z
Electronic contribution:     -1.78774       0.45854      -0.05034
Nuclear contribution   :      2.09852      -0.99551      -0.27788
                        -----------------------------------------
Total Dipole Moment    :      0.31078      -0.53697      -0.32822
                        -----------------------------------------
Magnitude (a.u.)       :      0.70189
Magnitude (Debye)      :      1.78406

Rotational constants in cm-1:     4.471782     0.800872     0.767374
Rotational constants in MHz : 134060.659330 24009.532295 23005.293745

                             ****ORCA TERMINATED NORMALLY****
TOTAL RUN TIME: 0 days 0 hours 0 minutes 53 seconds 972 msec
