                         Program Version 4.1.2  - RELEASE  -
|  1> #Run DFT-D3 single point of the dimer
|  2> ! wB97X-D3 def2-TZVP TIGHTSCF CHELPG PMODEL PAL8
|  3>
|  4> %base "16-197_DFT_AB"
|  5>
|  6> %scf
|  7> MaxIter 1000
|  8> end
|  9>
| 10> * xyz 0 1
| 11>   C                      1.445543             6.271822             7.864828
| 12>   O                      0.619448             5.105705             7.883585
| 13>   H                      1.042122             4.627553             8.589441
| 14>   H                      1.205711             6.888363             8.726111
| 15>   H                      2.581618             6.086424             7.823544
| 16>   H                      1.035779             6.923905             7.011461
| 17>   C                      0.073207             3.280420             4.744708
| 18>   O                      -0.777346            4.145417             5.499248
| 19>   H                      -0.465038            4.121903             6.407785
| 20>   H                      1.088714             3.540638             4.926400
| 21>   H                      0.023586             2.303060             5.157050
| 22>   H                      -0.040117            3.339934             3.648191
| 23> *
| 24>
| 25> #Run DFT-D3 single point of the molecule with dimer basis set
| 26> $new_job
| 27> %base "16-197_DFT_A"
| 28> ! wB97X-D3 def2-TZVP TIGHTSCF CHELPG PMODEL
| 29>
| 30> %scf
| 31> MaxIter 1000
| 32> end
| 33>
| 34> * xyz 0 1
| 35>   C                      1.445543             6.271822             7.864828
| 36>   O                      0.619448             5.105705             7.883585
| 37>   H                      1.042122             4.627553             8.589441
| 38>   H                      1.205711             6.888363             8.726111
| 39>   H                      2.581618             6.086424             7.823544
| 40>   H                      1.035779             6.923905             7.011461
| 41>   C                    : 0.073207             3.280420             4.744708
| 42>   O                    : -0.777346            4.145417             5.499248
| 43>   H                    : -0.465038            4.121903             6.407785
| 44>   H                    : 1.088714             3.540638             4.926400
| 45>   H                    : 0.023586             2.303060             5.157050
| 46>   H                    : -0.040117            3.339934             3.648191
| 47> *
| 48>
| 49> #Run DFT-D3 single point of the particle with dimer basis set
| 50> $new_job
| 51> %base "16-197_DFT_B"
| 52> ! wB97X-D3 def2-TZVP TIGHTSCF CHELPG PMODEL
| 53>
| 54> %scf
| 55> MaxIter 1000
| 56> end
| 57>
| 58> * xyz 0 1
| 59>   C                    : 1.445543             6.271822             7.864828
| 60>   O                    : 0.619448             5.105705             7.883585
| 61>   H                    : 1.042122             4.627553             8.589441
| 62>   H                    : 1.205711             6.888363             8.726111
| 63>   H                    : 2.581618             6.086424             7.823544
| 64>   H                    : 1.035779             6.923905             7.011461
| 65>   C                      0.073207             3.280420             4.744708
| 66>   O                      -0.777346            4.145417             5.499248
| 67>   H                      -0.465038            4.121903             6.407785
| 68>   H                      1.088714             3.540638             4.926400
| 69>   H                      0.023586             2.303060             5.157050
| 70>   H                      -0.040117            3.339934             3.648191
| 71> *
| 72>
| 73>                          ****END OF INPUT****
 Total Charge           Charge          ....    0
 Multiplicity           Mult            ....    1
 Number of Electrons    NEL             ....   36
Dispersion correction           -0.001641126
FINAL SINGLE POINT ENERGY      -231.465512526890
Dispersion correction           -0.000241858
FINAL SINGLE POINT ENERGY      -115.728468657115

CARTESIAN COORDINATES (ANGSTROEM)
---------------------------------
  C      1.445543    6.271822    7.864828
  O      0.619448    5.105705    7.883585
  H      1.042122    4.627553    8.589441
  H      1.205711    6.888363    8.726111
  H      2.581618    6.086424    7.823544
  H      1.035779    6.923905    7.011461
  C      0.073207    3.280420    4.744708
  O     -0.777346    4.145417    5.499248
  H     -0.465038    4.121903    6.407785
  H      1.088714    3.540638    4.926400
  H      0.023586    2.303060    5.157050
  H     -0.040117    3.339934    3.648191

 Multiplicity           Mult            ....    1
 Number of Electrons    NEL             ....   18
 Basis Dimension        Dim             ....  172

ORBITAL ENERGIES
----------------

  NO   OCC          E(Eh)            E(eV)
   0   2.0000     -19.229563      -523.2630
   1   2.0000     -10.308917      -280.5199
   2   2.0000      -1.132138       -30.8070
   3   2.0000      -0.800393       -21.7798
   4   2.0000      -0.611677       -16.6446
   5   2.0000      -0.545251       -14.8370
   6   2.0000      -0.525492       -14.2994
   7   2.0000      -0.437873       -11.9151
   8   2.0000      -0.371094       -10.0980
   9   0.0000       0.071999         1.9592
  10   0.0000       0.129958         3.5363
  11   0.0000       0.150413         4.0929
  12   0.0000       0.169907         4.6234
  13   0.0000       0.187708         5.1078

MULLIKEN ATOMIC CHARGES
-----------------------
   0 C :   -0.002348
   1 O :   -0.003523
   2 H :   -0.000237
   3 H :   -0.000038
   4 H :    0.000067
   5 H :   -0.001145
   6 C :   -0.181074
   7 O :   -0.469522
   8 H :    0.314055
   9 H :    0.105081
  10 H :    0.110738
  11 H :    0.127946
Sum of atomic charges:   -0.0000000

LOEWDIN ATOMIC CHARGES
----------------------
   0 C :   -0.002653
   1 O :   -0.015336
   2 H :   -0.000961
   3 H :   -0.000054
   4 H :   -0.000031
   5 H :   -0.000848
   6 C :   -0.369544
   7 O :   -0.078987
   8 H :    0.174296
   9 H :    0.089784
  10 H :    0.090771
  11 H :    0.113562

  Mayer bond orders larger than 0.1
B(  6-C ,  7-O ) :   0.9884 B(  6-C ,  9-H ) :   0.9788 B(  6-C , 10-H ) :   0.9854
B(  6-C , 11-H ) :   0.9692 B(  7-O ,  8-H ) :   0.9018

Dispersion correction           -0.000222669
FINAL SINGLE POINT ENERGY      -115.730844567371

DIPOLE MOMENT
-------------
                                X             Y             Z
Electronic contribution:     -1.27129       1.09372       0.71315
Nuclear contribution   :      1.84508      -1.46371      -0.45696
                        -----------------------------------------
Total Dipole Moment    :      0.57379      -0.36999       0.25619
                        -----------------------------------------
Magnitude (a.u.)       :      0.72922
Magnitude (Debye)      :      1.85352

Rotational constants in cm-1:     4.432122     0.825982     0.786009
Rotational constants in MHz : 132871.677288 24762.332255 23563.970669

                             ****ORCA TERMINATED NORMALLY****
TOTAL RUN TIME: 0 days 0 hours 1 minutes 4 seconds 725 msec
