                         Program Version 4.1.2  - RELEASE  -
|  1> #Run DFT-D3 single point of the dimer
|  2> ! wB97X-D3 def2-TZVP TIGHTSCF CHELPG PMODEL PAL8
|  3>
|  4> %base "7-68_DFT_AB"
|  5>
|  6> %scf
|  7> MaxIter 1000
|  8> end
|  9>
| 10> * xyz 0 1
| 11>   C                      -3.843015            3.387278             11.452532
| 12>   O                      -4.433860            3.915718             10.307268
| 13>   H                      -3.773737            3.785140             9.575087
| 14>   H                      -2.782898            3.479782             11.476008
| 15>   H                      -4.203933            3.855851             12.326470
| 16>   H                      -4.218804            2.365851             11.573091
| 17>   C                      -1.131126            6.943872             9.337002
| 18>   O                      -1.336318            6.584339             7.948773
| 19>   H                      -2.032077            5.936859             7.854210
| 20>   H                      -2.051176            7.337864             9.696394
| 21>   H                      -0.953307            6.030843             9.931406
| 22>   H                      -0.297737            7.670743             9.423129
| 23> *
| 24>
| 25> #Run DFT-D3 single point of the molecule with dimer basis set
| 26> $new_job
| 27> %base "7-68_DFT_A"
| 28> ! wB97X-D3 def2-TZVP TIGHTSCF CHELPG PMODEL
| 29>
| 30> %scf
| 31> MaxIter 1000
| 32> end
| 33>
| 34> * xyz 0 1
| 35>   C                      -3.843015            3.387278             11.452532
| 36>   O                      -4.433860            3.915718             10.307268
| 37>   H                      -3.773737            3.785140             9.575087
| 38>   H                      -2.782898            3.479782             11.476008
| 39>   H                      -4.203933            3.855851             12.326470
| 40>   H                      -4.218804            2.365851             11.573091
| 41>   C                    : -1.131126            6.943872             9.337002
| 42>   O                    : -1.336318            6.584339             7.948773
| 43>   H                    : -2.032077            5.936859             7.854210
| 44>   H                    : -2.051176            7.337864             9.696394
| 45>   H                    : -0.953307            6.030843             9.931406
| 46>   H                    : -0.297737            7.670743             9.423129
| 47> *
| 48>
| 49> #Run DFT-D3 single point of the particle with dimer basis set
| 50> $new_job
| 51> %base "7-68_DFT_B"
| 52> ! wB97X-D3 def2-TZVP TIGHTSCF CHELPG PMODEL
| 53>
| 54> %scf
| 55> MaxIter 1000
| 56> end
| 57>
| 58> * xyz 0 1
| 59>   C                    : -3.843015            3.387278             11.452532
| 60>   O                    : -4.433860            3.915718             10.307268
| 61>   H                    : -3.773737            3.785140             9.575087
| 62>   H                    : -2.782898            3.479782             11.476008
| 63>   H                    : -4.203933            3.855851             12.326470
| 64>   H                    : -4.218804            2.365851             11.573091
| 65>   C                      -1.131126            6.943872             9.337002
| 66>   O                      -1.336318            6.584339             7.948773
| 67>   H                      -2.032077            5.936859             7.854210
| 68>   H                      -2.051176            7.337864             9.696394
| 69>   H                      -0.953307            6.030843             9.931406
| 70>   H                      -0.297737            7.670743             9.423129
| 71> *
| 72>
| 73>                          ****END OF INPUT****
 Total Charge           Charge          ....    0
 Multiplicity           Mult            ....    1
 Number of Electrons    NEL             ....   36
Dispersion correction           -0.001088236
FINAL SINGLE POINT ENERGY      -231.464395809213
Dispersion correction           -0.000225766
FINAL SINGLE POINT ENERGY      -115.730945285665

CARTESIAN COORDINATES (ANGSTROEM)
---------------------------------
  C     -3.843015    3.387278   11.452532
  O     -4.433860    3.915718   10.307268
  H     -3.773737    3.785140    9.575087
  H     -2.782898    3.479782   11.476008
  H     -4.203933    3.855851   12.326470
  H     -4.218804    2.365851   11.573091
  C     -1.131126    6.943872    9.337002
  O     -1.336318    6.584339    7.948773
  H     -2.032077    5.936859    7.854210
  H     -2.051176    7.337864    9.696394
  H     -0.953307    6.030843    9.931406
  H     -0.297737    7.670743    9.423129

 Multiplicity           Mult            ....    1
 Number of Electrons    NEL             ....   18
 Basis Dimension        Dim             ....  172

ORBITAL ENERGIES
----------------

  NO   OCC          E(Eh)            E(eV)
   0   2.0000     -19.223657      -523.1023
   1   2.0000     -10.316331      -280.7216
   2   2.0000      -1.122606       -30.5477
   3   2.0000      -0.797499       -21.7011
   4   2.0000      -0.605201       -16.4684
   5   2.0000      -0.536774       -14.6064
   6   2.0000      -0.527253       -14.3473
   7   2.0000      -0.432145       -11.7593
   8   2.0000      -0.369989       -10.0679
   9   0.0000       0.073163         1.9909
  10   0.0000       0.116500         3.1701
  11   0.0000       0.149272         4.0619
  12   0.0000       0.174539         4.7494
  13   0.0000       0.180412         4.9093

MULLIKEN ATOMIC CHARGES
-----------------------
   0 C :    0.000021
   1 O :    0.000073
   2 H :   -0.000466
   3 H :   -0.000167
   4 H :   -0.000020
   5 H :    0.000000
   6 C :   -0.154225
   7 O :   -0.492517
   8 H :    0.311693
   9 H :    0.106220
  10 H :    0.103604
  11 H :    0.125783
Sum of atomic charges:   -0.0000000

LOEWDIN ATOMIC CHARGES
----------------------
   0 C :   -0.000171
   1 O :   -0.000027
   2 H :   -0.000512
   3 H :   -0.000238
   4 H :   -0.000006
   5 H :   -0.000001
   6 C :   -0.351666
   7 O :   -0.106674
   8 H :    0.159145
   9 H :    0.088939
  10 H :    0.097448
  11 H :    0.113762

  Mayer bond orders larger than 0.1
B(  6-C ,  7-O ) :   0.9796 B(  6-C ,  9-H ) :   0.9816 B(  6-C , 10-H ) :   0.9775
B(  6-C , 11-H ) :   0.9698 B(  7-O ,  8-H ) :   0.9013

Dispersion correction           -0.000240705
FINAL SINGLE POINT ENERGY      -115.733388395657

DIPOLE MOMENT
-------------
                                X             Y             Z
Electronic contribution:     -0.09047      -0.27422      -1.68729
Nuclear contribution   :     -0.28079       0.01597       2.22795
                        -----------------------------------------
Total Dipole Moment    :     -0.37126      -0.25825       0.54066
                        -----------------------------------------
Magnitude (a.u.)       :      0.70487
Magnitude (Debye)      :      1.79165

Rotational constants in cm-1:     4.271598     0.806681     0.771108
Rotational constants in MHz : 128059.278689 24183.685318 23117.246445

                             ****ORCA TERMINATED NORMALLY****
TOTAL RUN TIME: 0 days 0 hours 1 minutes 3 seconds 292 msec
