                         Program Version 4.1.2  - RELEASE  -
|  1> #Run DFT-D3 single point of the dimer
|  2> ! wB97X-D3 def2-TZVP TIGHTSCF CHELPG PMODEL PAL8
|  3>
|  4> %base "16-179_DFT_AB"
|  5>
|  6> %scf
|  7> MaxIter 1000
|  8> end
|  9>
| 10> * xyz 0 1
| 11>   C                      -1.471844            -7.273723            0.057177
| 12>   O                      -2.592648            -7.401229            0.927050
| 13>   H                      -2.462836            -8.147191            1.506804
| 14>   H                      -0.583023            -6.910695            0.610701
| 15>   H                      -1.283247            -8.174641            -0.447536
| 16>   H                      -1.621950            -6.560480            -0.744089
| 17>   C                      -4.560682            -4.329770            1.110956
| 18>   O                      -3.928309            -5.024112            2.117217
| 19>   H                      -3.662203            -5.864956            1.700131
| 20>   H                      -5.471232            -4.871591            0.797603
| 21>   H                      -4.921328            -3.343781            1.562688
| 22>   H                      -3.888416            -4.178399            0.273072
| 23> *
| 24>
| 25> #Run DFT-D3 single point of the molecule with dimer basis set
| 26> $new_job
| 27> %base "16-179_DFT_A"
| 28> ! wB97X-D3 def2-TZVP TIGHTSCF CHELPG PMODEL
| 29>
| 30> %scf
| 31> MaxIter 1000
| 32> end
| 33>
| 34> * xyz 0 1
| 35>   C                      -1.471844            -7.273723            0.057177
| 36>   O                      -2.592648            -7.401229            0.927050
| 37>   H                      -2.462836            -8.147191            1.506804
| 38>   H                      -0.583023            -6.910695            0.610701
| 39>   H                      -1.283247            -8.174641            -0.447536
| 40>   H                      -1.621950            -6.560480            -0.744089
| 41>   C                    : -4.560682            -4.329770            1.110956
| 42>   O                    : -3.928309            -5.024112            2.117217
| 43>   H                    : -3.662203            -5.864956            1.700131
| 44>   H                    : -5.471232            -4.871591            0.797603
| 45>   H                    : -4.921328            -3.343781            1.562688
| 46>   H                    : -3.888416            -4.178399            0.273072
| 47> *
| 48>
| 49> #Run DFT-D3 single point of the particle with dimer basis set
| 50> $new_job
| 51> %base "16-179_DFT_B"
| 52> ! wB97X-D3 def2-TZVP TIGHTSCF CHELPG PMODEL
| 53>
| 54> %scf
| 55> MaxIter 1000
| 56> end
| 57>
| 58> * xyz 0 1
| 59>   C                    : -1.471844            -7.273723            0.057177
| 60>   O                    : -2.592648            -7.401229            0.927050
| 61>   H                    : -2.462836            -8.147191            1.506804
| 62>   H                    : -0.583023            -6.910695            0.610701
| 63>   H                    : -1.283247            -8.174641            -0.447536
| 64>   H                    : -1.621950            -6.560480            -0.744089
| 65>   C                      -4.560682            -4.329770            1.110956
| 66>   O                      -3.928309            -5.024112            2.117217
| 67>   H                      -3.662203            -5.864956            1.700131
| 68>   H                      -5.471232            -4.871591            0.797603
| 69>   H                      -4.921328            -3.343781            1.562688
| 70>   H                      -3.888416            -4.178399            0.273072
| 71> *
| 72>
| 73>                          ****END OF INPUT****
 Total Charge           Charge          ....    0
 Multiplicity           Mult            ....    1
 Number of Electrons    NEL             ....   36
Dispersion correction           -0.001661483
FINAL SINGLE POINT ENERGY      -231.476373599545
Dispersion correction           -0.000244004
FINAL SINGLE POINT ENERGY      -115.734150895846

CARTESIAN COORDINATES (ANGSTROEM)
---------------------------------
  C     -1.471844   -7.273723    0.057177
  O     -2.592648   -7.401229    0.927050
  H     -2.462836   -8.147191    1.506804
  H     -0.583023   -6.910695    0.610701
  H     -1.283247   -8.174641   -0.447536
  H     -1.621950   -6.560480   -0.744089
  C     -4.560682   -4.329770    1.110956
  O     -3.928309   -5.024112    2.117217
  H     -3.662203   -5.864956    1.700131
  H     -5.471232   -4.871591    0.797603
  H     -4.921328   -3.343781    1.562688
  H     -3.888416   -4.178399    0.273072

 Multiplicity           Mult            ....    1
 Number of Electrons    NEL             ....   18
 Basis Dimension        Dim             ....  172

ORBITAL ENERGIES
----------------

  NO   OCC          E(Eh)            E(eV)
   0   2.0000     -19.231652      -523.3199
   1   2.0000     -10.314593      -280.6743
   2   2.0000      -1.148786       -31.2601
   3   2.0000      -0.785044       -21.3621
   4   2.0000      -0.615029       -16.7358
   5   2.0000      -0.552087       -15.0230
   6   2.0000      -0.524520       -14.2729
   7   2.0000      -0.430983       -11.7276
   8   2.0000      -0.371538       -10.1101
   9   0.0000       0.068830         1.8730
  10   0.0000       0.130985         3.5643
  11   0.0000       0.142320         3.8727
  12   0.0000       0.173601         4.7239
  13   0.0000       0.193179         5.2567

MULLIKEN ATOMIC CHARGES
-----------------------
   0 C :   -0.003389
   1 O :   -0.001441
   2 H :   -0.000330
   3 H :    0.000431
   4 H :   -0.000086
   5 H :    0.000114
   6 C :   -0.153956
   7 O :   -0.457485
   8 H :    0.312976
   9 H :    0.094497
  10 H :    0.109713
  11 H :    0.098956
Sum of atomic charges:    0.0000000

LOEWDIN ATOMIC CHARGES
----------------------
   0 C :   -0.002935
   1 O :   -0.016561
   2 H :   -0.001253
   3 H :   -0.000116
   4 H :   -0.000096
   5 H :   -0.000198
   6 C :   -0.420984
   7 O :   -0.049562
   8 H :    0.189617
   9 H :    0.093893
  10 H :    0.117623
  11 H :    0.090572

  Mayer bond orders larger than 0.1
B(  6-C ,  7-O ) :   0.9988 B(  6-C ,  9-H ) :   0.9815 B(  6-C , 10-H ) :   0.9723
B(  6-C , 11-H ) :   0.9742 B(  7-O ,  8-H ) :   0.9028

Dispersion correction           -0.000209110
FINAL SINGLE POINT ENERGY      -115.733370473678

DIPOLE MOMENT
-------------
                                X             Y             Z
Electronic contribution:      0.86748      -0.79180       1.35124
Nuclear contribution   :     -0.93472       0.52571      -1.96849
                        -----------------------------------------
Total Dipole Moment    :     -0.06723      -0.26608      -0.61725
                        -----------------------------------------
Magnitude (a.u.)       :      0.67552
Magnitude (Debye)      :      1.71702

Rotational constants in cm-1:     4.058628     0.879441     0.841081
Rotational constants in MHz : 121674.591592 26364.972091 25214.985797

                             ****ORCA TERMINATED NORMALLY****
TOTAL RUN TIME: 0 days 0 hours 1 minutes 7 seconds 719 msec
