                         Program Version 4.1.2  - RELEASE  -
|  1> #Run DFT-D3 single point of the dimer
|  2> ! wB97X-D3 def2-TZVP TIGHTSCF CHELPG PMODEL PAL8
|  3>
|  4> %base "7-11_DFT_AB"
|  5>
|  6> %scf
|  7> MaxIter 1000
|  8> end
|  9>
| 10> * xyz 0 1
| 11>   C                      0.107441             2.741054             -3.055841
| 12>   O                      0.093632             2.479985             -1.676650
| 13>   H                      -0.116713            3.352322             -1.369150
| 14>   H                      0.781831             3.560905             -3.329535
| 15>   H                      0.429337             1.873700             -3.602147
| 16>   H                      -0.921354            2.900499             -3.482296
| 17>   C                      3.290816             2.639390             -6.435223
| 18>   O                      2.221507             3.210297             -7.185437
| 19>   H                      1.960015             3.895836             -6.607853
| 20>   H                      3.608396             1.654702             -6.888811
| 21>   H                      4.077403             3.324916             -6.281360
| 22>   H                      2.889501             2.348891             -5.371082
| 23> *
| 24>
| 25> #Run DFT-D3 single point of the molecule with dimer basis set
| 26> $new_job
| 27> %base "7-11_DFT_A"
| 28> ! wB97X-D3 def2-TZVP TIGHTSCF CHELPG PMODEL
| 29>
| 30> %scf
| 31> MaxIter 1000
| 32> end
| 33>
| 34> * xyz 0 1
| 35>   C                      0.107441             2.741054             -3.055841
| 36>   O                      0.093632             2.479985             -1.676650
| 37>   H                      -0.116713            3.352322             -1.369150
| 38>   H                      0.781831             3.560905             -3.329535
| 39>   H                      0.429337             1.873700             -3.602147
| 40>   H                      -0.921354            2.900499             -3.482296
| 41>   C                    : 3.290816             2.639390             -6.435223
| 42>   O                    : 2.221507             3.210297             -7.185437
| 43>   H                    : 1.960015             3.895836             -6.607853
| 44>   H                    : 3.608396             1.654702             -6.888811
| 45>   H                    : 4.077403             3.324916             -6.281360
| 46>   H                    : 2.889501             2.348891             -5.371082
| 47> *
| 48>
| 49> #Run DFT-D3 single point of the particle with dimer basis set
| 50> $new_job
| 51> %base "7-11_DFT_B"
| 52> ! wB97X-D3 def2-TZVP TIGHTSCF CHELPG PMODEL
| 53>
| 54> %scf
| 55> MaxIter 1000
| 56> end
| 57>
| 58> * xyz 0 1
| 59>   C                    : 0.107441             2.741054             -3.055841
| 60>   O                    : 0.093632             2.479985             -1.676650
| 61>   H                    : -0.116713            3.352322             -1.369150
| 62>   H                    : 0.781831             3.560905             -3.329535
| 63>   H                    : 0.429337             1.873700             -3.602147
| 64>   H                    : -0.921354            2.900499             -3.482296
| 65>   C                      3.290816             2.639390             -6.435223
| 66>   O                      2.221507             3.210297             -7.185437
| 67>   H                      1.960015             3.895836             -6.607853
| 68>   H                      3.608396             1.654702             -6.888811
| 69>   H                      4.077403             3.324916             -6.281360
| 70>   H                      2.889501             2.348891             -5.371082
| 71> *
| 72>
| 73>                          ****END OF INPUT****
 Total Charge           Charge          ....    0
 Multiplicity           Mult            ....    1
 Number of Electrons    NEL             ....   36
Dispersion correction           -0.001100044
FINAL SINGLE POINT ENERGY      -231.461587458837
Dispersion correction           -0.000223019
FINAL SINGLE POINT ENERGY      -115.732577944322

CARTESIAN COORDINATES (ANGSTROEM)
---------------------------------
  C      0.107441    2.741054   -3.055841
  O      0.093632    2.479985   -1.676650
  H     -0.116713    3.352322   -1.369150
  H      0.781831    3.560905   -3.329535
  H      0.429337    1.873700   -3.602147
  H     -0.921354    2.900499   -3.482296
  C      3.290816    2.639390   -6.435223
  O      2.221507    3.210297   -7.185437
  H      1.960015    3.895836   -6.607853
  H      3.608396    1.654702   -6.888811
  H      4.077403    3.324916   -6.281360
  H      2.889501    2.348891   -5.371082

 Multiplicity           Mult            ....    1
 Number of Electrons    NEL             ....   18
 Basis Dimension        Dim             ....  172

ORBITAL ENERGIES
----------------

  NO   OCC          E(Eh)            E(eV)
   0   2.0000     -19.230743      -523.2951
   1   2.0000     -10.323448      -280.9153
   2   2.0000      -1.144728       -31.1496
   3   2.0000      -0.789524       -21.4841
   4   2.0000      -0.612084       -16.6556
   5   2.0000      -0.542955       -14.7745
   6   2.0000      -0.520891       -14.1742
   7   2.0000      -0.441835       -12.0229
   8   2.0000      -0.374298       -10.1852
   9   0.0000       0.076830         2.0906
  10   0.0000       0.119714         3.2576
  11   0.0000       0.151455         4.1213
  12   0.0000       0.167236         4.5507
  13   0.0000       0.187604         5.1050

MULLIKEN ATOMIC CHARGES
-----------------------
   0 C :   -0.000216
   1 O :    0.000091
   2 H :    0.000016
   3 H :   -0.000203
   4 H :    0.000329
   5 H :    0.000010
   6 C :   -0.178799
   7 O :   -0.454726
   8 H :    0.308354
   9 H :    0.119925
  10 H :    0.115519
  11 H :    0.089700
Sum of atomic charges:   -0.0000000

LOEWDIN ATOMIC CHARGES
----------------------
   0 C :   -0.001137
   1 O :   -0.000014
   2 H :   -0.000002
   3 H :   -0.000425
   4 H :   -0.000597
   5 H :   -0.000009
   6 C :   -0.384048
   7 O :   -0.072226
   8 H :    0.153918
   9 H :    0.115501
  10 H :    0.084434
  11 H :    0.104604

  Mayer bond orders larger than 0.1
B(  6-C ,  7-O ) :   0.9972 B(  6-C ,  9-H ) :   0.9718 B(  6-C , 10-H ) :   0.9702
B(  6-C , 11-H ) :   0.9801 B(  7-O ,  8-H ) :   0.9100

Dispersion correction           -0.000225697
FINAL SINGLE POINT ENERGY      -115.728511926377

DIPOLE MOMENT
-------------
                                X             Y             Z
Electronic contribution:     -1.22151       0.73254      -1.25203
Nuclear contribution   :      1.48103      -0.51899       1.88524
                        -----------------------------------------
Total Dipole Moment    :      0.25951       0.21355       0.63321
                        -----------------------------------------
Magnitude (a.u.)       :      0.71687
Magnitude (Debye)      :      1.82214

Rotational constants in cm-1:     4.092421     0.828711     0.795079
Rotational constants in MHz : 122687.697309 24844.138572 23835.855509

                             ****ORCA TERMINATED NORMALLY****
TOTAL RUN TIME: 0 days 0 hours 1 minutes 7 seconds 432 msec
