                         Program Version 4.1.2  - RELEASE  -
|  1> #Run DFT-D3 single point of the dimer
|  2> ! wB97X-D3 def2-TZVP TIGHTSCF CHELPG PMODEL PAL8
|  3>
|  4> %base "5-89_DFT_AB"
|  5>
|  6> %scf
|  7> MaxIter 1000
|  8> end
|  9>
| 10> * xyz 0 1
| 11>   C                      3.523408             -5.923778            2.070169
| 12>   O                      3.834441             -4.576411            1.836301
| 13>   H                      4.763971             -4.562166            1.509061
| 14>   H                      2.729272             -5.991882            2.856450
| 15>   H                      3.330591             -6.484672            1.252621
| 16>   H                      4.446997             -6.457884            2.510366
| 17>   C                      2.972572             -0.901774            1.372664
| 18>   O                      3.715877             -0.053173            0.503747
| 19>   H                      4.643713             -0.350892            0.272494
| 20>   H                      2.042537             -0.463022            1.683760
| 21>   H                      2.718830             -1.816522            0.938662
| 22>   H                      3.540776             -1.169969            2.319029
| 23> *
| 24>
| 25> #Run DFT-D3 single point of the molecule with dimer basis set
| 26> $new_job
| 27> %base "5-89_DFT_A"
| 28> ! wB97X-D3 def2-TZVP TIGHTSCF CHELPG PMODEL
| 29>
| 30> %scf
| 31> MaxIter 1000
| 32> end
| 33>
| 34> * xyz 0 1
| 35>   C                      3.523408             -5.923778            2.070169
| 36>   O                      3.834441             -4.576411            1.836301
| 37>   H                      4.763971             -4.562166            1.509061
| 38>   H                      2.729272             -5.991882            2.856450
| 39>   H                      3.330591             -6.484672            1.252621
| 40>   H                      4.446997             -6.457884            2.510366
| 41>   C                    : 2.972572             -0.901774            1.372664
| 42>   O                    : 3.715877             -0.053173            0.503747
| 43>   H                    : 4.643713             -0.350892            0.272494
| 44>   H                    : 2.042537             -0.463022            1.683760
| 45>   H                    : 2.718830             -1.816522            0.938662
| 46>   H                    : 3.540776             -1.169969            2.319029
| 47> *
| 48>
| 49> #Run DFT-D3 single point of the particle with dimer basis set
| 50> $new_job
| 51> %base "5-89_DFT_B"
| 52> ! wB97X-D3 def2-TZVP TIGHTSCF CHELPG PMODEL
| 53>
| 54> %scf
| 55> MaxIter 1000
| 56> end
| 57>
| 58> * xyz 0 1
| 59>   C                    : 3.523408             -5.923778            2.070169
| 60>   O                    : 3.834441             -4.576411            1.836301
| 61>   H                    : 4.763971             -4.562166            1.509061
| 62>   H                    : 2.729272             -5.991882            2.856450
| 63>   H                    : 3.330591             -6.484672            1.252621
| 64>   H                    : 4.446997             -6.457884            2.510366
| 65>   C                      2.972572             -0.901774            1.372664
| 66>   O                      3.715877             -0.053173            0.503747
| 67>   H                      4.643713             -0.350892            0.272494
| 68>   H                      2.042537             -0.463022            1.683760
| 69>   H                      2.718830             -1.816522            0.938662
| 70>   H                      3.540776             -1.169969            2.319029
| 71> *
| 72>
| 73>                          ****END OF INPUT****
 Total Charge           Charge          ....    0
 Multiplicity           Mult            ....    1
 Number of Electrons    NEL             ....   36
Dispersion correction           -0.001155266
FINAL SINGLE POINT ENERGY      -231.456909910025
Dispersion correction           -0.000230739
FINAL SINGLE POINT ENERGY      -115.726539920296

CARTESIAN COORDINATES (ANGSTROEM)
---------------------------------
  C      3.523408   -5.923778    2.070169
  O      3.834441   -4.576411    1.836301
  H      4.763971   -4.562166    1.509061
  H      2.729272   -5.991882    2.856450
  H      3.330591   -6.484672    1.252621
  H      4.446997   -6.457884    2.510366
  C      2.972572   -0.901774    1.372664
  O      3.715877   -0.053173    0.503747
  H      4.643713   -0.350892    0.272494
  H      2.042537   -0.463022    1.683760
  H      2.718830   -1.816522    0.938662
  H      3.540776   -1.169969    2.319029

 Multiplicity           Mult            ....    1
 Number of Electrons    NEL             ....   18
 Basis Dimension        Dim             ....  172

ORBITAL ENERGIES
----------------

  NO   OCC          E(Eh)            E(eV)
   0   2.0000     -19.231297      -523.3102
   1   2.0000     -10.310981      -280.5761
   2   2.0000      -1.119968       -30.4759
   3   2.0000      -0.799949       -21.7677
   4   2.0000      -0.607797       -16.5390
   5   2.0000      -0.535215       -14.5639
   6   2.0000      -0.530023       -14.4227
   7   2.0000      -0.423306       -11.5187
   8   2.0000      -0.371622       -10.1123
   9   0.0000       0.079792         2.1713
  10   0.0000       0.111384         3.0309
  11   0.0000       0.143175         3.8960
  12   0.0000       0.172811         4.7024
  13   0.0000       0.188933         5.1411

MULLIKEN ATOMIC CHARGES
-----------------------
   0 C :   -0.000422
   1 O :   -0.000271
   2 H :    0.000036
   3 H :    0.000010
   4 H :    0.000019
   5 H :    0.000010
   6 C :   -0.142096
   7 O :   -0.497880
   8 H :    0.324126
   9 H :    0.119586
  10 H :    0.104600
  11 H :    0.092282
Sum of atomic charges:   -0.0000000

LOEWDIN ATOMIC CHARGES
----------------------
   0 C :   -0.000160
   1 O :   -0.001110
   2 H :   -0.000189
   3 H :   -0.000006
   4 H :   -0.000004
   5 H :   -0.000003
   6 C :   -0.374266
   7 O :   -0.105064
   8 H :    0.191085
   9 H :    0.105212
  10 H :    0.082437
  11 H :    0.102068

  Mayer bond orders larger than 0.1
B(  6-C ,  7-O ) :   0.9994 B(  6-C ,  9-H ) :   0.9705 B(  6-C , 10-H ) :   0.9761
B(  6-C , 11-H ) :   0.9800 B(  7-O ,  8-H ) :   0.8826

Dispersion correction           -0.000276552
FINAL SINGLE POINT ENERGY      -115.729269836903

DIPOLE MOMENT
-------------
                                X             Y             Z
Electronic contribution:      0.78744       1.18620      -1.19405
Nuclear contribution   :     -0.52208      -1.74225       1.39491
                        -----------------------------------------
Total Dipole Moment    :      0.26536      -0.55605       0.20087
                        -----------------------------------------
Magnitude (a.u.)       :      0.64804
Magnitude (Debye)      :      1.64719

Rotational constants in cm-1:     4.498391     0.803901     0.774598
Rotational constants in MHz : 134858.363932 24100.339232 23221.876660

                             ****ORCA TERMINATED NORMALLY****
TOTAL RUN TIME: 0 days 0 hours 1 minutes 3 seconds 230 msec
