                         Program Version 4.1.2  - RELEASE  -
|  1> #Run DFT-D3 single point of the dimer
|  2> ! wB97X-D3 def2-TZVP TIGHTSCF CHELPG PMODEL PAL8
|  3>
|  4> %base "5-57_DFT_AB"
|  5>
|  6> %scf
|  7> MaxIter 1000
|  8> end
|  9>
| 10> * xyz 0 1
| 11>   C                      -6.273322            -9.533329            -8.368384
| 12>   O                      -7.523562            -10.051300           -8.014050
| 13>   H                      -8.078851            -9.952586            -8.778788
| 14>   H                      -5.871098            -8.781854            -7.648397
| 15>   H                      -5.513111            -10.350072           -8.413968
| 16>   H                      -6.238926            -9.095729            -9.396470
| 17>   C                      -9.802897            -8.642307            -10.382443
| 18>   O                      -9.020798            -9.753919            -10.557155
| 19>   H                      -9.596838            -10.495844           -10.632737
| 20>   H                      -9.158925            -7.789647            -10.218208
| 21>   H                      -10.388234           -8.420589            -11.125207
| 22>   H                      -10.366768           -8.786615            -9.508903
| 23> *
| 24>
| 25> #Run DFT-D3 single point of the molecule with dimer basis set
| 26> $new_job
| 27> %base "5-57_DFT_A"
| 28> ! wB97X-D3 def2-TZVP TIGHTSCF CHELPG PMODEL
| 29>
| 30> %scf
| 31> MaxIter 1000
| 32> end
| 33>
| 34> * xyz 0 1
| 35>   C                      -6.273322            -9.533329            -8.368384
| 36>   O                      -7.523562            -10.051300           -8.014050
| 37>   H                      -8.078851            -9.952586            -8.778788
| 38>   H                      -5.871098            -8.781854            -7.648397
| 39>   H                      -5.513111            -10.350072           -8.413968
| 40>   H                      -6.238926            -9.095729            -9.396470
| 41>   C                    : -9.802897            -8.642307            -10.382443
| 42>   O                    : -9.020798            -9.753919            -10.557155
| 43>   H                    : -9.596838            -10.495844           -10.632737
| 44>   H                    : -9.158925            -7.789647            -10.218208
| 45>   H                    : -10.388234           -8.420589            -11.125207
| 46>   H                    : -10.366768           -8.786615            -9.508903
| 47> *
| 48>
| 49> #Run DFT-D3 single point of the particle with dimer basis set
| 50> $new_job
| 51> %base "5-57_DFT_B"
| 52> ! wB97X-D3 def2-TZVP TIGHTSCF CHELPG PMODEL
| 53>
| 54> %scf
| 55> MaxIter 1000
| 56> end
| 57>
| 58> * xyz 0 1
| 59>   C                    : -6.273322            -9.533329            -8.368384
| 60>   O                    : -7.523562            -10.051300           -8.014050
| 61>   H                    : -8.078851            -9.952586            -8.778788
| 62>   H                    : -5.871098            -8.781854            -7.648397
| 63>   H                    : -5.513111            -10.350072           -8.413968
| 64>   H                    : -6.238926            -9.095729            -9.396470
| 65>   C                      -9.802897            -8.642307            -10.382443
| 66>   O                      -9.020798            -9.753919            -10.557155
| 67>   H                      -9.596838            -10.495844           -10.632737
| 68>   H                      -9.158925            -7.789647            -10.218208
| 69>   H                      -10.388234           -8.420589            -11.125207
| 70>   H                      -10.366768           -8.786615            -9.508903
| 71> *
| 72>
| 73>                          ****END OF INPUT****
 Total Charge           Charge          ....    0
 Multiplicity           Mult            ....    1
 Number of Electrons    NEL             ....   36
Dispersion correction           -0.001923805
FINAL SINGLE POINT ENERGY      -231.464788445718
Dispersion correction           -0.000255993
FINAL SINGLE POINT ENERGY      -115.734034690604

CARTESIAN COORDINATES (ANGSTROEM)
---------------------------------
  C     -6.273322   -9.533329   -8.368384
  O     -7.523562  -10.051300   -8.014050
  H     -8.078851   -9.952586   -8.778788
  H     -5.871098   -8.781854   -7.648397
  H     -5.513111  -10.350072   -8.413968
  H     -6.238926   -9.095729   -9.396470
  C     -9.802897   -8.642307  -10.382443
  O     -9.020798   -9.753919  -10.557155
  H     -9.596838  -10.495844  -10.632737
  H     -9.158925   -7.789647  -10.218208
  H    -10.388234   -8.420589  -11.125207
  H    -10.366768   -8.786615   -9.508903

 Multiplicity           Mult            ....    1
 Number of Electrons    NEL             ....   18
 Basis Dimension        Dim             ....  172

ORBITAL ENERGIES
----------------

  NO   OCC          E(Eh)            E(eV)
   0   2.0000     -19.225141      -523.1427
   1   2.0000     -10.287959      -279.9496
   2   2.0000      -1.152785       -31.3689
   3   2.0000      -0.809341       -22.0233
   4   2.0000      -0.626481       -17.0474
   5   2.0000      -0.563949       -15.3458
   6   2.0000      -0.532666       -14.4946
   7   2.0000      -0.432577       -11.7710
   8   2.0000      -0.373979       -10.1765
   9   0.0000       0.099219         2.6999
  10   0.0000       0.127182         3.4608
  11   0.0000       0.161726         4.4008
  12   0.0000       0.187174         5.0933
  13   0.0000       0.201565         5.4849

MULLIKEN ATOMIC CHARGES
-----------------------
   0 C :    0.004658
   1 O :   -0.001135
   2 H :   -0.011280
   3 H :   -0.000076
   4 H :   -0.000327
   5 H :   -0.003408
   6 C :   -0.150263
   7 O :   -0.469459
   8 H :    0.308471
   9 H :    0.109137
  10 H :    0.114524
  11 H :    0.099158
Sum of atomic charges:   -0.0000000

LOEWDIN ATOMIC CHARGES
----------------------
   0 C :   -0.003456
   1 O :   -0.004263
   2 H :   -0.035681
   3 H :   -0.000029
   4 H :   -0.000042
   5 H :   -0.001607
   6 C :   -0.386871
   7 O :   -0.000282
   8 H :    0.161594
   9 H :    0.112742
  10 H :    0.066208
  11 H :    0.091688

  Mayer bond orders larger than 0.1
B(  6-C ,  7-O ) :   0.9751 B(  6-C ,  9-H ) :   0.9786 B(  6-C , 10-H ) :   0.9717
B(  6-C , 11-H ) :   0.9977 B(  7-O ,  8-H ) :   0.9037

Dispersion correction           -0.000187847
FINAL SINGLE POINT ENERGY      -115.721842417717

DIPOLE MOMENT
-------------
                                X             Y             Z
Electronic contribution:      1.00888      -1.34522      -0.36563
Nuclear contribution   :     -1.70491       1.31776       0.36273
                        -----------------------------------------
Total Dipole Moment    :     -0.69603      -0.02746      -0.00290
                        -----------------------------------------
Magnitude (a.u.)       :      0.69657
Magnitude (Debye)      :      1.77055

Rotational constants in cm-1:     4.718286     0.895048     0.857627
Rotational constants in MHz : 141450.662947 26832.869207 25711.015135

                             ****ORCA TERMINATED NORMALLY****
TOTAL RUN TIME: 0 days 0 hours 0 minutes 56 seconds 1 msec
