                         Program Version 4.1.2  - RELEASE  -
|  1> #Run DFT-D3 single point of the dimer
|  2> ! wB97X-D3 def2-TZVP TIGHTSCF CHELPG PMODEL PAL8
|  3>
|  4> %base "1-95_DFT_AB"
|  5>
|  6> %scf
|  7> MaxIter 1000
|  8> end
|  9>
| 10> * xyz 0 1
| 11>   C                      -6.076476            10.396994            8.572423
| 12>   O                      -4.913337            11.136352            8.302519
| 13>   H                      -4.968444            12.080275            8.375493
| 14>   H                      -6.294389            9.678972             7.724420
| 15>   H                      -6.081936            9.823034             9.605426
| 16>   H                      -6.905947            11.125597            8.466702
| 17>   C                      -2.352219            10.439322            10.170331
| 18>   O                      -1.281838            10.542575            11.094813
| 19>   H                      -1.493749            11.144150            11.777500
| 20>   H                      -3.329597            10.545099            10.691131
| 21>   H                      -2.210866            11.196965            9.360382
| 22>   H                      -2.462432            9.438291             9.770519
| 23> *
| 24>
| 25> #Run DFT-D3 single point of the molecule with dimer basis set
| 26> $new_job
| 27> %base "1-95_DFT_A"
| 28> ! wB97X-D3 def2-TZVP TIGHTSCF CHELPG PMODEL
| 29>
| 30> %scf
| 31> MaxIter 1000
| 32> end
| 33>
| 34> * xyz 0 1
| 35>   C                      -6.076476            10.396994            8.572423
| 36>   O                      -4.913337            11.136352            8.302519
| 37>   H                      -4.968444            12.080275            8.375493
| 38>   H                      -6.294389            9.678972             7.724420
| 39>   H                      -6.081936            9.823034             9.605426
| 40>   H                      -6.905947            11.125597            8.466702
| 41>   C                    : -2.352219            10.439322            10.170331
| 42>   O                    : -1.281838            10.542575            11.094813
| 43>   H                    : -1.493749            11.144150            11.777500
| 44>   H                    : -3.329597            10.545099            10.691131
| 45>   H                    : -2.210866            11.196965            9.360382
| 46>   H                    : -2.462432            9.438291             9.770519
| 47> *
| 48>
| 49> #Run DFT-D3 single point of the particle with dimer basis set
| 50> $new_job
| 51> %base "1-95_DFT_B"
| 52> ! wB97X-D3 def2-TZVP TIGHTSCF CHELPG PMODEL
| 53>
| 54> %scf
| 55> MaxIter 1000
| 56> end
| 57>
| 58> * xyz 0 1
| 59>   C                    : -6.076476            10.396994            8.572423
| 60>   O                    : -4.913337            11.136352            8.302519
| 61>   H                    : -4.968444            12.080275            8.375493
| 62>   H                    : -6.294389            9.678972             7.724420
| 63>   H                    : -6.081936            9.823034             9.605426
| 64>   H                    : -6.905947            11.125597            8.466702
| 65>   C                      -2.352219            10.439322            10.170331
| 66>   O                      -1.281838            10.542575            11.094813
| 67>   H                      -1.493749            11.144150            11.777500
| 68>   H                      -3.329597            10.545099            10.691131
| 69>   H                      -2.210866            11.196965            9.360382
| 70>   H                      -2.462432            9.438291             9.770519
| 71> *
| 72>
| 73>                          ****END OF INPUT****
 Total Charge           Charge          ....    0
 Multiplicity           Mult            ....    1
 Number of Electrons    NEL             ....   36
Dispersion correction           -0.001797663
FINAL SINGLE POINT ENERGY      -231.459648448286
Dispersion correction           -0.000271579
FINAL SINGLE POINT ENERGY      -115.725302509033

CARTESIAN COORDINATES (ANGSTROEM)
---------------------------------
  C     -6.076476   10.396994    8.572423
  O     -4.913337   11.136352    8.302519
  H     -4.968444   12.080275    8.375493
  H     -6.294389    9.678972    7.724420
  H     -6.081936    9.823034    9.605426
  H     -6.905947   11.125597    8.466702
  C     -2.352219   10.439322   10.170331
  O     -1.281838   10.542575   11.094813
  H     -1.493749   11.144150   11.777500
  H     -3.329597   10.545099   10.691131
  H     -2.210866   11.196965    9.360382
  H     -2.462432    9.438291    9.770519

 Multiplicity           Mult            ....    1
 Number of Electrons    NEL             ....   18
 Basis Dimension        Dim             ....  172

ORBITAL ENERGIES
----------------

  NO   OCC          E(Eh)            E(eV)
   0   2.0000     -19.225877      -523.1627
   1   2.0000     -10.317333      -280.7489
   2   2.0000      -1.137846       -30.9624
   3   2.0000      -0.797187       -21.6926
   4   2.0000      -0.610848       -16.6220
   5   2.0000      -0.547695       -14.9035
   6   2.0000      -0.524609       -14.2753
   7   2.0000      -0.424369       -11.5477
   8   2.0000      -0.375941       -10.2299
   9   0.0000       0.080405         2.1879
  10   0.0000       0.118921         3.2360
  11   0.0000       0.149143         4.0584
  12   0.0000       0.163062         4.4372
  13   0.0000       0.184062         5.0086

MULLIKEN ATOMIC CHARGES
-----------------------
   0 C :   -0.000089
   1 O :   -0.000567
   2 H :   -0.000514
   3 H :   -0.000030
   4 H :   -0.000591
   5 H :   -0.000007
   6 C :   -0.166530
   7 O :   -0.473854
   8 H :    0.313466
   9 H :    0.100676
  10 H :    0.106475
  11 H :    0.121565
Sum of atomic charges:   -0.0000000

LOEWDIN ATOMIC CHARGES
----------------------
   0 C :   -0.001774
   1 O :   -0.003249
   2 H :   -0.001074
   3 H :   -0.000016
   4 H :   -0.000770
   5 H :   -0.000014
   6 C :   -0.383145
   7 O :   -0.069026
   8 H :    0.150760
   9 H :    0.101207
  10 H :    0.102511
  11 H :    0.104591

  Mayer bond orders larger than 0.1
B(  6-C ,  7-O ) :   1.0038 B(  6-C ,  9-H ) :   0.9828 B(  6-C , 10-H ) :   0.9731
B(  6-C , 11-H ) :   0.9685 B(  7-O ,  8-H ) :   0.9037

Dispersion correction           -0.000250883
FINAL SINGLE POINT ENERGY      -115.732936670815

DIPOLE MOMENT
-------------
                                X             Y             Z
Electronic contribution:      1.48488       0.05093       1.06993
Nuclear contribution   :     -2.06967       0.27221      -0.97281
                        -----------------------------------------
Total Dipole Moment    :     -0.58479       0.32315       0.09712
                        -----------------------------------------
Magnitude (a.u.)       :      0.67515
Magnitude (Debye)      :      1.71610

Rotational constants in cm-1:     4.296476     0.815845     0.802858
Rotational constants in MHz : 128805.099394 24458.411520 24069.076916

                             ****ORCA TERMINATED NORMALLY****
TOTAL RUN TIME: 0 days 0 hours 4 minutes 46 seconds 995 msec
