                         Program Version 4.1.2  - RELEASE  -
|  1> #Run DFT-D3 single point of the dimer
|  2> ! wB97X-D3 def2-TZVP TIGHTSCF CHELPG PMODEL PAL8
|  3>
|  4> %base "19-169_DFT_AB"
|  5>
|  6> %scf
|  7> MaxIter 1000
|  8> end
|  9>
| 10> * xyz 0 1
| 11>   C                      8.905412             3.723221             8.095253
| 12>   O                      7.644204             3.455748             8.700712
| 13>   H                      7.890491             2.887441             9.435179
| 14>   H                      9.317823             2.764151             7.637089
| 15>   H                      8.787449             4.390905             7.335888
| 16>   H                      9.649400             4.099344             8.856138
| 17>   C                      6.435617             6.801561             8.504808
| 18>   O                      5.582423             5.675321             8.583733
| 19>   H                      6.153218             4.870023             8.502210
| 20>   H                      6.244634             7.321155             7.549957
| 21>   H                      6.047535             7.462052             9.286655
| 22>   H                      7.490550             6.660002             8.846777
| 23> *
| 24>
| 25> #Run DFT-D3 single point of the molecule with dimer basis set
| 26> $new_job
| 27> %base "19-169_DFT_A"
| 28> ! wB97X-D3 def2-TZVP TIGHTSCF CHELPG PMODEL
| 29>
| 30> %scf
| 31> MaxIter 1000
| 32> end
| 33>
| 34> * xyz 0 1
| 35>   C                      8.905412             3.723221             8.095253
| 36>   O                      7.644204             3.455748             8.700712
| 37>   H                      7.890491             2.887441             9.435179
| 38>   H                      9.317823             2.764151             7.637089
| 39>   H                      8.787449             4.390905             7.335888
| 40>   H                      9.649400             4.099344             8.856138
| 41>   C                    : 6.435617             6.801561             8.504808
| 42>   O                    : 5.582423             5.675321             8.583733
| 43>   H                    : 6.153218             4.870023             8.502210
| 44>   H                    : 6.244634             7.321155             7.549957
| 45>   H                    : 6.047535             7.462052             9.286655
| 46>   H                    : 7.490550             6.660002             8.846777
| 47> *
| 48>
| 49> #Run DFT-D3 single point of the particle with dimer basis set
| 50> $new_job
| 51> %base "19-169_DFT_B"
| 52> ! wB97X-D3 def2-TZVP TIGHTSCF CHELPG PMODEL
| 53>
| 54> %scf
| 55> MaxIter 1000
| 56> end
| 57>
| 58> * xyz 0 1
| 59>   C                    : 8.905412             3.723221             8.095253
| 60>   O                    : 7.644204             3.455748             8.700712
| 61>   H                    : 7.890491             2.887441             9.435179
| 62>   H                    : 9.317823             2.764151             7.637089
| 63>   H                    : 8.787449             4.390905             7.335888
| 64>   H                    : 9.649400             4.099344             8.856138
| 65>   C                      6.435617             6.801561             8.504808
| 66>   O                      5.582423             5.675321             8.583733
| 67>   H                      6.153218             4.870023             8.502210
| 68>   H                      6.244634             7.321155             7.549957
| 69>   H                      6.047535             7.462052             9.286655
| 70>   H                      7.490550             6.660002             8.846777
| 71> *
| 72>
| 73>                          ****END OF INPUT****
 Total Charge           Charge          ....    0
 Multiplicity           Mult            ....    1
 Number of Electrons    NEL             ....   36
Dispersion correction           -0.001937819
FINAL SINGLE POINT ENERGY      -231.468813167541
Dispersion correction           -0.000225163
FINAL SINGLE POINT ENERGY      -115.731130205336

CARTESIAN COORDINATES (ANGSTROEM)
---------------------------------
  C      8.905412    3.723221    8.095253
  O      7.644204    3.455748    8.700712
  H      7.890491    2.887441    9.435179
  H      9.317823    2.764151    7.637089
  H      8.787449    4.390905    7.335888
  H      9.649400    4.099344    8.856138
  C      6.435617    6.801561    8.504808
  O      5.582423    5.675321    8.583733
  H      6.153218    4.870023    8.502210
  H      6.244634    7.321155    7.549957
  H      6.047535    7.462052    9.286655
  H      7.490550    6.660002    8.846777

 Multiplicity           Mult            ....    1
 Number of Electrons    NEL             ....   18
 Basis Dimension        Dim             ....  172

ORBITAL ENERGIES
----------------

  NO   OCC          E(Eh)            E(eV)
   0   2.0000     -19.232344      -523.3387
   1   2.0000     -10.314737      -280.6783
   2   2.0000      -1.130715       -30.7683
   3   2.0000      -0.790137       -21.5007
   4   2.0000      -0.605140       -16.4667
   5   2.0000      -0.544901       -14.8275
   6   2.0000      -0.517592       -14.0844
   7   2.0000      -0.433012       -11.7828
   8   2.0000      -0.370414       -10.0795
   9   0.0000       0.066394         1.8067
  10   0.0000       0.135709         3.6928
  11   0.0000       0.142203         3.8695
  12   0.0000       0.165452         4.5022
  13   0.0000       0.182310         4.9609

MULLIKEN ATOMIC CHARGES
-----------------------
   0 C :   -0.002522
   1 O :   -0.002537
   2 H :   -0.000219
   3 H :   -0.000006
   4 H :    0.000816
   5 H :   -0.000066
   6 C :   -0.183451
   7 O :   -0.470072
   8 H :    0.314960
   9 H :    0.113228
  10 H :    0.117011
  11 H :    0.112858
Sum of atomic charges:   -0.0000000

LOEWDIN ATOMIC CHARGES
----------------------
   0 C :   -0.004474
   1 O :   -0.015017
   2 H :   -0.000836
   3 H :   -0.000042
   4 H :   -0.000757
   5 H :   -0.000181
   6 C :   -0.397758
   7 O :   -0.085373
   8 H :    0.191914
   9 H :    0.102283
  10 H :    0.106037
  11 H :    0.104204

  Mayer bond orders larger than 0.1
B(  6-C ,  7-O ) :   0.9887 B(  6-C ,  9-H ) :   0.9770 B(  6-C , 10-H ) :   0.9793
B(  6-C , 11-H ) :   0.9672 B(  7-O ,  8-H ) :   0.9053

Dispersion correction           -0.000257910
FINAL SINGLE POINT ENERGY      -115.729425761130

DIPOLE MOMENT
-------------
                                X             Y             Z
Electronic contribution:     -1.07017      -1.42971      -0.02941
Nuclear contribution   :      1.75095       1.37002      -0.01094
                        -----------------------------------------
Total Dipole Moment    :      0.68079      -0.05969      -0.04035
                        -----------------------------------------
Magnitude (a.u.)       :      0.68459
Magnitude (Debye)      :      1.74009

Rotational constants in cm-1:     4.138217     0.832130     0.800804
Rotational constants in MHz : 124060.621074 24946.637378 24007.512429

                             ****ORCA TERMINATED NORMALLY****
TOTAL RUN TIME: 0 days 0 hours 0 minutes 51 seconds 445 msec
