                         Program Version 4.1.2  - RELEASE  -
|  1> #Run DFT-D3 single point of the dimer
|  2> ! wB97X-D3 def2-TZVP TIGHTSCF CHELPG PMODEL PAL8
|  3>
|  4> %base "16-162_DFT_AB"
|  5>
|  6> %scf
|  7> MaxIter 1000
|  8> end
|  9>
| 10> * xyz 0 1
| 11>   C                      5.477825             10.222591            2.055904
| 12>   O                      6.314687             9.784553             0.931115
| 13>   H                      6.687954             8.989488             1.259072
| 14>   H                      5.959780             10.902845            2.777499
| 15>   H                      4.533393             10.671920            1.844271
| 16>   H                      5.174428             9.336066             2.686822
| 17>   C                      7.856281             6.990472             2.461391
| 18>   O                      7.999837             7.573358             1.195961
| 19>   H                      8.965035             7.663970             0.982130
| 20>   H                      8.441369             7.390414             3.360844
| 21>   H                      6.849756             6.852662             2.832672
| 22>   H                      8.225145             5.967884             2.572257
| 23> *
| 24>
| 25> #Run DFT-D3 single point of the molecule with dimer basis set
| 26> $new_job
| 27> %base "16-162_DFT_A"
| 28> ! wB97X-D3 def2-TZVP TIGHTSCF CHELPG PMODEL
| 29>
| 30> %scf
| 31> MaxIter 1000
| 32> end
| 33>
| 34> * xyz 0 1
| 35>   C                      5.477825             10.222591            2.055904
| 36>   O                      6.314687             9.784553             0.931115
| 37>   H                      6.687954             8.989488             1.259072
| 38>   H                      5.959780             10.902845            2.777499
| 39>   H                      4.533393             10.671920            1.844271
| 40>   H                      5.174428             9.336066             2.686822
| 41>   C                    : 7.856281             6.990472             2.461391
| 42>   O                    : 7.999837             7.573358             1.195961
| 43>   H                    : 8.965035             7.663970             0.982130
| 44>   H                    : 8.441369             7.390414             3.360844
| 45>   H                    : 6.849756             6.852662             2.832672
| 46>   H                    : 8.225145             5.967884             2.572257
| 47> *
| 48>
| 49> #Run DFT-D3 single point of the particle with dimer basis set
| 50> $new_job
| 51> %base "16-162_DFT_B"
| 52> ! wB97X-D3 def2-TZVP TIGHTSCF CHELPG PMODEL
| 53>
| 54> %scf
| 55> MaxIter 1000
| 56> end
| 57>
| 58> * xyz 0 1
| 59>   C                    : 5.477825             10.222591            2.055904
| 60>   O                    : 6.314687             9.784553             0.931115
| 61>   H                    : 6.687954             8.989488             1.259072
| 62>   H                    : 5.959780             10.902845            2.777499
| 63>   H                    : 4.533393             10.671920            1.844271
| 64>   H                    : 5.174428             9.336066             2.686822
| 65>   C                      7.856281             6.990472             2.461391
| 66>   O                      7.999837             7.573358             1.195961
| 67>   H                      8.965035             7.663970             0.982130
| 68>   H                      8.441369             7.390414             3.360844
| 69>   H                      6.849756             6.852662             2.832672
| 70>   H                      8.225145             5.967884             2.572257
| 71> *
| 72>
| 73>                          ****END OF INPUT****
 Total Charge           Charge          ....    0
 Multiplicity           Mult            ....    1
 Number of Electrons    NEL             ....   36
Dispersion correction           -0.001922182
FINAL SINGLE POINT ENERGY      -231.457097014114
Dispersion correction           -0.000278453
FINAL SINGLE POINT ENERGY      -115.727457293834

CARTESIAN COORDINATES (ANGSTROEM)
---------------------------------
  C      5.477825   10.222591    2.055904
  O      6.314687    9.784553    0.931115
  H      6.687954    8.989488    1.259072
  H      5.959780   10.902845    2.777499
  H      4.533393   10.671920    1.844271
  H      5.174428    9.336066    2.686822
  C      7.856281    6.990472    2.461391
  O      7.999837    7.573358    1.195961
  H      8.965035    7.663970    0.982130
  H      8.441369    7.390414    3.360844
  H      6.849756    6.852662    2.832672
  H      8.225145    5.967884    2.572257

 Multiplicity           Mult            ....    1
 Number of Electrons    NEL             ....   18
 Basis Dimension        Dim             ....  172

ORBITAL ENERGIES
----------------

  NO   OCC          E(Eh)            E(eV)
   0   2.0000     -19.244225      -523.6620
   1   2.0000     -10.316328      -280.7216
   2   2.0000      -1.138903       -30.9911
   3   2.0000      -0.797775       -21.7086
   4   2.0000      -0.621177       -16.9031
   5   2.0000      -0.534595       -14.5471
   6   2.0000      -0.520885       -14.1740
   7   2.0000      -0.437203       -11.8969
   8   2.0000      -0.370877       -10.0921
   9   0.0000       0.096085         2.6146
  10   0.0000       0.118248         3.2177
  11   0.0000       0.141526         3.8511
  12   0.0000       0.189330         5.1519
  13   0.0000       0.203785         5.5453

MULLIKEN ATOMIC CHARGES
-----------------------
   0 C :   -0.000643
   1 O :   -0.000474
   2 H :   -0.003754
   3 H :   -0.000082
   4 H :   -0.000045
   5 H :   -0.000129
   6 C :   -0.183737
   7 O :   -0.465012
   8 H :    0.324015
   9 H :    0.094301
  10 H :    0.131611
  11 H :    0.103948
Sum of atomic charges:   -0.0000000

LOEWDIN ATOMIC CHARGES
----------------------
   0 C :   -0.001450
   1 O :   -0.008615
   2 H :   -0.039810
   3 H :   -0.000029
   4 H :   -0.000025
   5 H :   -0.000684
   6 C :   -0.418088
   7 O :   -0.030831
   8 H :    0.194531
   9 H :    0.101948
  10 H :    0.108587
  11 H :    0.094467

  Mayer bond orders larger than 0.1
B(  6-C ,  7-O ) :   1.0000 B(  6-C ,  9-H ) :   0.9712 B(  6-C , 10-H ) :   0.9756
B(  6-C , 11-H ) :   0.9698 B(  7-O ,  8-H ) :   0.8852

Dispersion correction           -0.000288983
FINAL SINGLE POINT ENERGY      -115.724904569885

DIPOLE MOMENT
-------------
                                X             Y             Z
Electronic contribution:     -0.04992       0.95695      -1.94634
Nuclear contribution   :      0.59778      -1.15916       2.28171
                        -----------------------------------------
Total Dipole Moment    :      0.54785      -0.20220       0.33538
                        -----------------------------------------
Magnitude (a.u.)       :      0.67343
Magnitude (Debye)      :      1.71172

Rotational constants in cm-1:     4.577269     0.814102     0.775857
Rotational constants in MHz : 137223.077991 24406.172711 23259.604796

                             ****ORCA TERMINATED NORMALLY****
TOTAL RUN TIME: 0 days 0 hours 1 minutes 5 seconds 975 msec
