                         Program Version 4.1.2  - RELEASE  -
|  1> #Run DFT-D3 single point of the dimer
|  2> ! wB97X-D3 def2-TZVP TIGHTSCF CHELPG PMODEL PAL8
|  3>
|  4> %base "17-185_DFT_AB"
|  5>
|  6> %scf
|  7> MaxIter 1000
|  8> end
|  9>
| 10> * xyz 0 1
| 11>   C                      -8.877339            9.266009             -2.068696
| 12>   O                      -7.797559            8.549895             -1.538670
| 13>   H                      -7.596468            8.973117             -0.634894
| 14>   H                      -9.542508            8.540720             -2.635445
| 15>   H                      -9.628912            9.599043             -1.270512
| 16>   H                      -8.547660            10.072176            -2.649976
| 17>   C                      -8.029411            7.739947             2.573963
| 18>   O                      -8.494416            8.683860             1.526940
| 19>   H                      -8.317794            9.569038             1.798553
| 20>   H                      -8.707188            7.533347             3.350604
| 21>   H                      -7.805995            6.785000             2.105661
| 22>   H                      -7.176193            8.088793             3.115905
| 23> *
| 24>
| 25> #Run DFT-D3 single point of the molecule with dimer basis set
| 26> $new_job
| 27> %base "17-185_DFT_A"
| 28> ! wB97X-D3 def2-TZVP TIGHTSCF CHELPG PMODEL
| 29>
| 30> %scf
| 31> MaxIter 1000
| 32> end
| 33>
| 34> * xyz 0 1
| 35>   C                      -8.877339            9.266009             -2.068696
| 36>   O                      -7.797559            8.549895             -1.538670
| 37>   H                      -7.596468            8.973117             -0.634894
| 38>   H                      -9.542508            8.540720             -2.635445
| 39>   H                      -9.628912            9.599043             -1.270512
| 40>   H                      -8.547660            10.072176            -2.649976
| 41>   C                    : -8.029411            7.739947             2.573963
| 42>   O                    : -8.494416            8.683860             1.526940
| 43>   H                    : -8.317794            9.569038             1.798553
| 44>   H                    : -8.707188            7.533347             3.350604
| 45>   H                    : -7.805995            6.785000             2.105661
| 46>   H                    : -7.176193            8.088793             3.115905
| 47> *
| 48>
| 49> #Run DFT-D3 single point of the particle with dimer basis set
| 50> $new_job
| 51> %base "17-185_DFT_B"
| 52> ! wB97X-D3 def2-TZVP TIGHTSCF CHELPG PMODEL
| 53>
| 54> %scf
| 55> MaxIter 1000
| 56> end
| 57>
| 58> * xyz 0 1
| 59>   C                    : -8.877339            9.266009             -2.068696
| 60>   O                    : -7.797559            8.549895             -1.538670
| 61>   H                    : -7.596468            8.973117             -0.634894
| 62>   H                    : -9.542508            8.540720             -2.635445
| 63>   H                    : -9.628912            9.599043             -1.270512
| 64>   H                    : -8.547660            10.072176            -2.649976
| 65>   C                      -8.029411            7.739947             2.573963
| 66>   O                      -8.494416            8.683860             1.526940
| 67>   H                      -8.317794            9.569038             1.798553
| 68>   H                      -8.707188            7.533347             3.350604
| 69>   H                      -7.805995            6.785000             2.105661
| 70>   H                      -7.176193            8.088793             3.115905
| 71> *
| 72>
| 73>                          ****END OF INPUT****
 Total Charge           Charge          ....    0
 Multiplicity           Mult            ....    1
 Number of Electrons    NEL             ....   36
Dispersion correction           -0.001613141
FINAL SINGLE POINT ENERGY      -231.461620116108
Dispersion correction           -0.000244685
FINAL SINGLE POINT ENERGY      -115.727614807894

CARTESIAN COORDINATES (ANGSTROEM)
---------------------------------
  C     -8.877339    9.266009   -2.068696
  O     -7.797559    8.549895   -1.538670
  H     -7.596468    8.973117   -0.634894
  H     -9.542508    8.540720   -2.635445
  H     -9.628912    9.599043   -1.270512
  H     -8.547660   10.072176   -2.649976
  C     -8.029411    7.739947    2.573963
  O     -8.494416    8.683860    1.526940
  H     -8.317794    9.569038    1.798553
  H     -8.707188    7.533347    3.350604
  H     -7.805995    6.785000    2.105661
  H     -7.176193    8.088793    3.115905

 Multiplicity           Mult            ....    1
 Number of Electrons    NEL             ....   18
 Basis Dimension        Dim             ....  172

ORBITAL ENERGIES
----------------

  NO   OCC          E(Eh)            E(eV)
   0   2.0000     -19.230900      -523.2994
   1   2.0000     -10.312258      -280.6108
   2   2.0000      -1.119827       -30.4720
   3   2.0000      -0.809439       -22.0260
   4   2.0000      -0.608414       -16.5558
   5   2.0000      -0.531281       -14.4569
   6   2.0000      -0.522625       -14.2213
   7   2.0000      -0.442908       -12.0521
   8   2.0000      -0.378230       -10.2922
   9   0.0000       0.098618         2.6835
  10   0.0000       0.125645         3.4190
  11   0.0000       0.148510         4.0411
  12   0.0000       0.186732         5.0812
  13   0.0000       0.200494         5.4557

MULLIKEN ATOMIC CHARGES
-----------------------
   0 C :    0.002779
   1 O :    0.002257
   2 H :   -0.014304
   3 H :   -0.000085
   4 H :   -0.003290
   5 H :   -0.000240
   6 C :   -0.174686
   7 O :   -0.474490
   8 H :    0.311452
   9 H :    0.114228
  10 H :    0.125823
  11 H :    0.110555
Sum of atomic charges:    0.0000000

LOEWDIN ATOMIC CHARGES
----------------------
   0 C :   -0.002897
   1 O :   -0.002715
   2 H :   -0.019708
   3 H :   -0.000026
   4 H :   -0.002011
   5 H :   -0.000026
   6 C :   -0.326961
   7 O :   -0.090047
   8 H :    0.151898
   9 H :    0.089190
  10 H :    0.109286
  11 H :    0.094016

  Mayer bond orders larger than 0.1
B(  6-C ,  7-O ) :   0.9931 B(  6-C ,  9-H ) :   0.9668 B(  6-C , 10-H ) :   0.9806
B(  6-C , 11-H ) :   0.9776 B(  7-O ,  8-H ) :   0.9032

Dispersion correction           -0.000280635
FINAL SINGLE POINT ENERGY      -115.729902729918

DIPOLE MOMENT
-------------
                                X             Y             Z
Electronic contribution:     -0.63407       1.08011      -1.34245
Nuclear contribution   :      0.95842      -0.92860       2.01550
                        -----------------------------------------
Total Dipole Moment    :      0.32435       0.15151       0.67305
                        -----------------------------------------
Magnitude (a.u.)       :      0.76234
Magnitude (Debye)      :      1.93770

Rotational constants in cm-1:     4.605859     0.766367     0.734645
Rotational constants in MHz : 138080.167369 22975.095573 22024.094022

                             ****ORCA TERMINATED NORMALLY****
TOTAL RUN TIME: 0 days 0 hours 1 minutes 8 seconds 283 msec
