                         Program Version 4.1.2  - RELEASE  -
|  1> #Run DFT-D3 single point of the dimer
|  2> ! wB97X-D3 def2-TZVP TIGHTSCF CHELPG PMODEL PAL8
|  3>
|  4> %base "9-42_DFT_AB"
|  5>
|  6> %scf
|  7> MaxIter 1000
|  8> end
|  9>
| 10> * xyz 0 1
| 11>   C                      -2.321207            -5.271564            -0.117392
| 12>   O                      -1.699948            -4.236620            -0.812064
| 13>   H                      -1.067507            -3.804357            -0.260356
| 14>   H                      -3.067091            -5.682834            -0.736439
| 15>   H                      -1.643910            -6.077927            0.202816
| 16>   H                      -2.851049            -4.806668            0.717258
| 17>   C                      -5.982742            -6.095501            1.316982
| 18>   O                      -6.760569            -4.916011            1.577320
| 19>   H                      -6.135223            -4.206989            1.780978
| 20>   H                      -5.438071            -6.346295            2.215708
| 21>   H                      -6.528076            -6.986041            1.068226
| 22>   H                      -5.230619            -5.928635            0.561390
| 23> *
| 24>
| 25> #Run DFT-D3 single point of the molecule with dimer basis set
| 26> $new_job
| 27> %base "9-42_DFT_A"
| 28> ! wB97X-D3 def2-TZVP TIGHTSCF CHELPG PMODEL
| 29>
| 30> %scf
| 31> MaxIter 1000
| 32> end
| 33>
| 34> * xyz 0 1
| 35>   C                      -2.321207            -5.271564            -0.117392
| 36>   O                      -1.699948            -4.236620            -0.812064
| 37>   H                      -1.067507            -3.804357            -0.260356
| 38>   H                      -3.067091            -5.682834            -0.736439
| 39>   H                      -1.643910            -6.077927            0.202816
| 40>   H                      -2.851049            -4.806668            0.717258
| 41>   C                    : -5.982742            -6.095501            1.316982
| 42>   O                    : -6.760569            -4.916011            1.577320
| 43>   H                    : -6.135223            -4.206989            1.780978
| 44>   H                    : -5.438071            -6.346295            2.215708
| 45>   H                    : -6.528076            -6.986041            1.068226
| 46>   H                    : -5.230619            -5.928635            0.561390
| 47> *
| 48>
| 49> #Run DFT-D3 single point of the particle with dimer basis set
| 50> $new_job
| 51> %base "9-42_DFT_B"
| 52> ! wB97X-D3 def2-TZVP TIGHTSCF CHELPG PMODEL
| 53>
| 54> %scf
| 55> MaxIter 1000
| 56> end
| 57>
| 58> * xyz 0 1
| 59>   C                    : -2.321207            -5.271564            -0.117392
| 60>   O                    : -1.699948            -4.236620            -0.812064
| 61>   H                    : -1.067507            -3.804357            -0.260356
| 62>   H                    : -3.067091            -5.682834            -0.736439
| 63>   H                    : -1.643910            -6.077927            0.202816
| 64>   H                    : -2.851049            -4.806668            0.717258
| 65>   C                      -5.982742            -6.095501            1.316982
| 66>   O                      -6.760569            -4.916011            1.577320
| 67>   H                      -6.135223            -4.206989            1.780978
| 68>   H                      -5.438071            -6.346295            2.215708
| 69>   H                      -6.528076            -6.986041            1.068226
| 70>   H                      -5.230619            -5.928635            0.561390
| 71> *
| 72>
| 73>                          ****END OF INPUT****
 Total Charge           Charge          ....    0
 Multiplicity           Mult            ....    1
 Number of Electrons    NEL             ....   36
Dispersion correction           -0.001389374
FINAL SINGLE POINT ENERGY      -231.467868480846
Dispersion correction           -0.000224301
FINAL SINGLE POINT ENERGY      -115.734535483582

CARTESIAN COORDINATES (ANGSTROEM)
---------------------------------
  C     -2.321207   -5.271564   -0.117392
  O     -1.699948   -4.236620   -0.812064
  H     -1.067507   -3.804357   -0.260356
  H     -3.067091   -5.682834   -0.736439
  H     -1.643910   -6.077927    0.202816
  H     -2.851049   -4.806668    0.717258
  C     -5.982742   -6.095501    1.316982
  O     -6.760569   -4.916011    1.577320
  H     -6.135223   -4.206989    1.780978
  H     -5.438071   -6.346295    2.215708
  H     -6.528076   -6.986041    1.068226
  H     -5.230619   -5.928635    0.561390

 Multiplicity           Mult            ....    1
 Number of Electrons    NEL             ....   18
 Basis Dimension        Dim             ....  172

ORBITAL ENERGIES
----------------

  NO   OCC          E(Eh)            E(eV)
   0   2.0000     -19.230388      -523.2855
   1   2.0000     -10.309975      -280.5487
   2   2.0000      -1.128145       -30.6984
   3   2.0000      -0.800385       -21.7796
   4   2.0000      -0.606067       -16.4919
   5   2.0000      -0.538429       -14.6514
   6   2.0000      -0.532624       -14.4934
   7   2.0000      -0.436019       -11.8647
   8   2.0000      -0.372377       -10.1329
   9   0.0000       0.078230         2.1287
  10   0.0000       0.117928         3.2090
  11   0.0000       0.145624         3.9626
  12   0.0000       0.173867         4.7312
  13   0.0000       0.186139         5.0651

MULLIKEN ATOMIC CHARGES
-----------------------
   0 C :   -0.000810
   1 O :   -0.000075
   2 H :   -0.000006
   3 H :   -0.000917
   4 H :    0.000248
   5 H :    0.000742
   6 C :   -0.172721
   7 O :   -0.480265
   8 H :    0.315437
   9 H :    0.106110
  10 H :    0.126548
  11 H :    0.105709
Sum of atomic charges:   -0.0000000

LOEWDIN ATOMIC CHARGES
----------------------
   0 C :   -0.004895
   1 O :   -0.000017
   2 H :   -0.000008
   3 H :   -0.002765
   4 H :   -0.000042
   5 H :   -0.001408
   6 C :   -0.363371
   7 O :   -0.096894
   8 H :    0.173017
   9 H :    0.095090
  10 H :    0.105314
  11 H :    0.095978

  Mayer bond orders larger than 0.1
B(  6-C ,  7-O ) :   0.9883 B(  6-C ,  9-H ) :   0.9849 B(  6-C , 10-H ) :   0.9689
B(  6-C , 11-H ) :   0.9795 B(  7-O ,  8-H ) :   0.8990

Dispersion correction           -0.000237401
FINAL SINGLE POINT ENERGY      -115.732980820786

DIPOLE MOMENT
-------------
                                X             Y             Z
Electronic contribution:     -1.22439       1.39519       0.21850
Nuclear contribution   :      1.94267      -1.45216      -0.19214
                        -----------------------------------------
Total Dipole Moment    :      0.71828      -0.05698       0.02636
                        -----------------------------------------
Magnitude (a.u.)       :      0.72101
Magnitude (Debye)      :      1.83267

Rotational constants in cm-1:     4.461782     0.809177     0.778776
Rotational constants in MHz : 133760.859875 24258.516676 23347.125657

                             ****ORCA TERMINATED NORMALLY****
TOTAL RUN TIME: 0 days 0 hours 0 minutes 41 seconds 517 msec
