                         Program Version 4.1.2  - RELEASE  -
|  1> #Run DFT-D3 single point of the dimer
|  2> ! wB97X-D3 def2-TZVP TIGHTSCF CHELPG PMODEL PAL8
|  3>
|  4> %base "9-138_DFT_AB"
|  5>
|  6> %scf
|  7> MaxIter 1000
|  8> end
|  9>
| 10> * xyz 0 1
| 11>   C                      -4.397125            -7.593060            -10.839823
| 12>   O                      -4.202316            -8.964188            -11.107021
| 13>   H                      -5.042504            -9.349486            -11.080620
| 14>   H                      -5.053239            -7.373010            -10.011849
| 15>   H                      -3.476378            -7.130394            -10.584298
| 16>   H                      -4.792753            -7.068452            -11.742962
| 17>   C                      -5.910148            -10.046534           -7.948405
| 18>   O                      -6.127992            -11.410757           -8.287481
| 19>   H                      -7.064967            -11.502188           -8.310808
| 20>   H                      -6.612028            -9.410980            -8.510518
| 21>   H                      -5.888905            -9.812329            -6.822695
| 22>   H                      -4.862819            -9.842723            -8.251322
| 23> *
| 24>
| 25> #Run DFT-D3 single point of the molecule with dimer basis set
| 26> $new_job
| 27> %base "9-138_DFT_A"
| 28> ! wB97X-D3 def2-TZVP TIGHTSCF CHELPG PMODEL
| 29>
| 30> %scf
| 31> MaxIter 1000
| 32> end
| 33>
| 34> * xyz 0 1
| 35>   C                      -4.397125            -7.593060            -10.839823
| 36>   O                      -4.202316            -8.964188            -11.107021
| 37>   H                      -5.042504            -9.349486            -11.080620
| 38>   H                      -5.053239            -7.373010            -10.011849
| 39>   H                      -3.476378            -7.130394            -10.584298
| 40>   H                      -4.792753            -7.068452            -11.742962
| 41>   C                    : -5.910148            -10.046534           -7.948405
| 42>   O                    : -6.127992            -11.410757           -8.287481
| 43>   H                    : -7.064967            -11.502188           -8.310808
| 44>   H                    : -6.612028            -9.410980            -8.510518
| 45>   H                    : -5.888905            -9.812329            -6.822695
| 46>   H                    : -4.862819            -9.842723            -8.251322
| 47> *
| 48>
| 49> #Run DFT-D3 single point of the particle with dimer basis set
| 50> $new_job
| 51> %base "9-138_DFT_B"
| 52> ! wB97X-D3 def2-TZVP TIGHTSCF CHELPG PMODEL
| 53>
| 54> %scf
| 55> MaxIter 1000
| 56> end
| 57>
| 58> * xyz 0 1
| 59>   C                    : -4.397125            -7.593060            -10.839823
| 60>   O                    : -4.202316            -8.964188            -11.107021
| 61>   H                    : -5.042504            -9.349486            -11.080620
| 62>   H                    : -5.053239            -7.373010            -10.011849
| 63>   H                    : -3.476378            -7.130394            -10.584298
| 64>   H                    : -4.792753            -7.068452            -11.742962
| 65>   C                      -5.910148            -10.046534           -7.948405
| 66>   O                      -6.127992            -11.410757           -8.287481
| 67>   H                      -7.064967            -11.502188           -8.310808
| 68>   H                      -6.612028            -9.410980            -8.510518
| 69>   H                      -5.888905            -9.812329            -6.822695
| 70>   H                      -4.862819            -9.842723            -8.251322
| 71> *
| 72>
| 73>                          ****END OF INPUT****
 Total Charge           Charge          ....    0
 Multiplicity           Mult            ....    1
 Number of Electrons    NEL             ....   36
Dispersion correction           -0.001746718
FINAL SINGLE POINT ENERGY      -231.468497683731
Dispersion correction           -0.000235239
FINAL SINGLE POINT ENERGY      -115.734785899658

CARTESIAN COORDINATES (ANGSTROEM)
---------------------------------
  C     -4.397125   -7.593060  -10.839823
  O     -4.202316   -8.964188  -11.107021
  H     -5.042504   -9.349486  -11.080620
  H     -5.053239   -7.373010  -10.011849
  H     -3.476378   -7.130394  -10.584298
  H     -4.792753   -7.068452  -11.742962
  C     -5.910148  -10.046534   -7.948405
  O     -6.127992  -11.410757   -8.287481
  H     -7.064967  -11.502188   -8.310808
  H     -6.612028   -9.410980   -8.510518
  H     -5.888905   -9.812329   -6.822695
  H     -4.862819   -9.842723   -8.251322

 Multiplicity           Mult            ....    1
 Number of Electrons    NEL             ....   18
 Basis Dimension        Dim             ....  172

ORBITAL ENERGIES
----------------

  NO   OCC          E(Eh)            E(eV)
   0   2.0000     -19.231180      -523.3070
   1   2.0000     -10.322084      -280.8782
   2   2.0000      -1.141090       -31.0506
   3   2.0000      -0.790121       -21.5003
   4   2.0000      -0.610018       -16.5994
   5   2.0000      -0.541365       -14.7313
   6   2.0000      -0.519731       -14.1426
   7   2.0000      -0.438382       -11.9290
   8   2.0000      -0.374494       -10.1905
   9   0.0000       0.085704         2.3321
  10   0.0000       0.117307         3.1921
  11   0.0000       0.155511         4.2317
  12   0.0000       0.170690         4.6447
  13   0.0000       0.176703         4.8083

MULLIKEN ATOMIC CHARGES
-----------------------
   0 C :   -0.001922
   1 O :    0.000134
   2 H :    0.000892
   3 H :   -0.000602
   4 H :   -0.000050
   5 H :   -0.000035
   6 C :   -0.168386
   7 O :   -0.460400
   8 H :    0.308465
   9 H :    0.104868
  10 H :    0.099177
  11 H :    0.117859
Sum of atomic charges:    0.0000000

LOEWDIN ATOMIC CHARGES
----------------------
   0 C :   -0.002588
   1 O :   -0.000765
   2 H :   -0.001185
   3 H :   -0.001528
   4 H :   -0.000052
   5 H :   -0.000023
   6 C :   -0.390013
   7 O :   -0.071958
   8 H :    0.156133
   9 H :    0.097636
  10 H :    0.103178
  11 H :    0.111165

  Mayer bond orders larger than 0.1
B(  6-C ,  7-O ) :   1.0030 B(  6-C ,  9-H ) :   0.9808 B(  6-C , 10-H ) :   0.9609
B(  6-C , 11-H ) :   0.9790 B(  7-O ,  8-H ) :   0.9084

Dispersion correction           -0.000252611
FINAL SINGLE POINT ENERGY      -115.732533215574

DIPOLE MOMENT
-------------
                                X             Y             Z
Electronic contribution:     -0.25797      -1.76993      -0.45987
Nuclear contribution   :     -0.23942       2.23297       0.54946
                        -----------------------------------------
Total Dipole Moment    :     -0.49738       0.46304       0.08959
                        -----------------------------------------
Magnitude (a.u.)       :      0.68544
Magnitude (Debye)      :      1.74224

Rotational constants in cm-1:     4.121096     0.824711     0.795556
Rotational constants in MHz : 123547.338917 24724.198798 23850.176813

                             ****ORCA TERMINATED NORMALLY****
TOTAL RUN TIME: 0 days 0 hours 0 minutes 42 seconds 715 msec
