                         Program Version 4.1.2  - RELEASE  -
|  1> #Run DFT-D3 single point of the dimer
|  2> ! wB97X-D3 def2-TZVP TIGHTSCF CHELPG PMODEL PAL8
|  3>
|  4> %base "15-213_DFT_AB"
|  5>
|  6> %scf
|  7> MaxIter 1000
|  8> end
|  9>
| 10> * xyz 0 1
| 11>   C                      -4.269144            2.055567             5.808991
| 12>   O                      -5.267021            1.395423             6.577179
| 13>   H                      -5.608203            2.101774             7.139157
| 14>   H                      -4.525395            1.965355             4.778729
| 15>   H                      -4.252099            3.121950             6.038937
| 16>   H                      -3.231462            1.807759             6.003058
| 17>   C                      -6.365571            -1.251759            7.931191
| 18>   O                      -5.651537            -1.468568            6.714341
| 19>   H                      -5.583828            -0.598254            6.254804
| 20>   H                      -5.797838            -0.597540            8.592115
| 21>   H                      -7.310449            -0.721390            7.800427
| 22>   H                      -6.647615            -2.216046            8.482298
| 23> *
| 24>
| 25> #Run DFT-D3 single point of the molecule with dimer basis set
| 26> $new_job
| 27> %base "15-213_DFT_A"
| 28> ! wB97X-D3 def2-TZVP TIGHTSCF CHELPG PMODEL
| 29>
| 30> %scf
| 31> MaxIter 1000
| 32> end
| 33>
| 34> * xyz 0 1
| 35>   C                      -4.269144            2.055567             5.808991
| 36>   O                      -5.267021            1.395423             6.577179
| 37>   H                      -5.608203            2.101774             7.139157
| 38>   H                      -4.525395            1.965355             4.778729
| 39>   H                      -4.252099            3.121950             6.038937
| 40>   H                      -3.231462            1.807759             6.003058
| 41>   C                    : -6.365571            -1.251759            7.931191
| 42>   O                    : -5.651537            -1.468568            6.714341
| 43>   H                    : -5.583828            -0.598254            6.254804
| 44>   H                    : -5.797838            -0.597540            8.592115
| 45>   H                    : -7.310449            -0.721390            7.800427
| 46>   H                    : -6.647615            -2.216046            8.482298
| 47> *
| 48>
| 49> #Run DFT-D3 single point of the particle with dimer basis set
| 50> $new_job
| 51> %base "15-213_DFT_B"
| 52> ! wB97X-D3 def2-TZVP TIGHTSCF CHELPG PMODEL
| 53>
| 54> %scf
| 55> MaxIter 1000
| 56> end
| 57>
| 58> * xyz 0 1
| 59>   C                    : -4.269144            2.055567             5.808991
| 60>   O                    : -5.267021            1.395423             6.577179
| 61>   H                    : -5.608203            2.101774             7.139157
| 62>   H                    : -4.525395            1.965355             4.778729
| 63>   H                    : -4.252099            3.121950             6.038937
| 64>   H                    : -3.231462            1.807759             6.003058
| 65>   C                      -6.365571            -1.251759            7.931191
| 66>   O                      -5.651537            -1.468568            6.714341
| 67>   H                      -5.583828            -0.598254            6.254804
| 68>   H                      -5.797838            -0.597540            8.592115
| 69>   H                      -7.310449            -0.721390            7.800427
| 70>   H                      -6.647615            -2.216046            8.482298
| 71> *
| 72>
| 73>                          ****END OF INPUT****
 Total Charge           Charge          ....    0
 Multiplicity           Mult            ....    1
 Number of Electrons    NEL             ....   36
Dispersion correction           -0.001897434
FINAL SINGLE POINT ENERGY      -231.470147149204
Dispersion correction           -0.000239590
FINAL SINGLE POINT ENERGY      -115.731040497684

CARTESIAN COORDINATES (ANGSTROEM)
---------------------------------
  C     -4.269144    2.055567    5.808991
  O     -5.267021    1.395423    6.577179
  H     -5.608203    2.101774    7.139157
  H     -4.525395    1.965355    4.778729
  H     -4.252099    3.121950    6.038937
  H     -3.231462    1.807759    6.003058
  C     -6.365571   -1.251759    7.931191
  O     -5.651537   -1.468568    6.714341
  H     -5.583828   -0.598254    6.254804
  H     -5.797838   -0.597540    8.592115
  H     -7.310449   -0.721390    7.800427
  H     -6.647615   -2.216046    8.482298

 Multiplicity           Mult            ....    1
 Number of Electrons    NEL             ....   18
 Basis Dimension        Dim             ....  172

ORBITAL ENERGIES
----------------

  NO   OCC          E(Eh)            E(eV)
   0   2.0000     -19.235550      -523.4259
   1   2.0000     -10.319366      -280.8042
   2   2.0000      -1.128964       -30.7207
   3   2.0000      -0.791388       -21.5348
   4   2.0000      -0.608509       -16.5584
   5   2.0000      -0.537153       -14.6167
   6   2.0000      -0.521161       -14.1815
   7   2.0000      -0.434794       -11.8313
   8   2.0000      -0.373291       -10.1578
   9   0.0000       0.067953         1.8491
  10   0.0000       0.129001         3.5103
  11   0.0000       0.141673         3.8551
  12   0.0000       0.174961         4.7609
  13   0.0000       0.186741         5.0815

MULLIKEN ATOMIC CHARGES
-----------------------
   0 C :   -0.003557
   1 O :   -0.003800
   2 H :   -0.000108
   3 H :    0.000124
   4 H :    0.000021
   5 H :    0.000121
   6 C :   -0.180067
   7 O :   -0.473034
   8 H :    0.320109
   9 H :    0.105683
  10 H :    0.108213
  11 H :    0.126294
Sum of atomic charges:   -0.0000000

LOEWDIN ATOMIC CHARGES
----------------------
   0 C :   -0.003548
   1 O :   -0.017352
   2 H :   -0.000927
   3 H :   -0.000209
   4 H :   -0.000074
   5 H :   -0.000145
   6 C :   -0.386451
   7 O :   -0.088286
   8 H :    0.191123
   9 H :    0.092789
  10 H :    0.093341
  11 H :    0.119739

  Mayer bond orders larger than 0.1
B(  6-C ,  7-O ) :   0.9921 B(  6-C ,  9-H ) :   0.9788 B(  6-C , 10-H ) :   0.9764
B(  6-C , 11-H ) :   0.9690 B(  7-O ,  8-H ) :   0.8969

Dispersion correction           -0.000254899
FINAL SINGLE POINT ENERGY      -115.732556096612

DIPOLE MOMENT
-------------
                                X             Y             Z
Electronic contribution:      0.97456      -0.48923      -1.58410
Nuclear contribution   :     -1.23220       1.12087       1.78330
                        -----------------------------------------
Total Dipole Moment    :     -0.25764       0.63163       0.19920
                        -----------------------------------------
Magnitude (a.u.)       :      0.71065
Magnitude (Debye)      :      1.80632

Rotational constants in cm-1:     4.245252     0.811421     0.774229
Rotational constants in MHz : 127269.460007 24325.797426 23210.809437

                             ****ORCA TERMINATED NORMALLY****
TOTAL RUN TIME: 0 days 0 hours 1 minutes 4 seconds 597 msec
