                         Program Version 4.1.2  - RELEASE  -
|  1> #Run DFT-D3 single point of the dimer
|  2> ! wB97X-D3 def2-TZVP TIGHTSCF CHELPG PMODEL PAL8
|  3>
|  4> %base "12-113_DFT_AB"
|  5>
|  6> %scf
|  7> MaxIter 1000
|  8> end
|  9>
| 10> * xyz 0 1
| 11>   C                      0.458656             -0.930274            -4.011846
| 12>   O                      1.515919             -0.989407            -3.097757
| 13>   H                      2.343066             -1.128490            -3.561394
| 14>   H                      0.659038             -0.054227            -4.714166
| 15>   H                      0.496070             -1.799020            -4.676867
| 16>   H                      -0.554769            -0.926448            -3.628725
| 17>   C                      0.089987             -3.422612            -0.634549
| 18>   O                      0.445780             -4.147892            -1.754119
| 19>   H                      0.889978             -3.509935            -2.357126
| 20>   H                      -1.004363            -3.350308            -0.387464
| 21>   H                      0.526002             -3.938563            0.227510
| 22>   H                      0.405570             -2.373225            -0.646882
| 23> *
| 24>
| 25> #Run DFT-D3 single point of the molecule with dimer basis set
| 26> $new_job
| 27> %base "12-113_DFT_A"
| 28> ! wB97X-D3 def2-TZVP TIGHTSCF CHELPG PMODEL
| 29>
| 30> %scf
| 31> MaxIter 1000
| 32> end
| 33>
| 34> * xyz 0 1
| 35>   C                      0.458656             -0.930274            -4.011846
| 36>   O                      1.515919             -0.989407            -3.097757
| 37>   H                      2.343066             -1.128490            -3.561394
| 38>   H                      0.659038             -0.054227            -4.714166
| 39>   H                      0.496070             -1.799020            -4.676867
| 40>   H                      -0.554769            -0.926448            -3.628725
| 41>   C                    : 0.089987             -3.422612            -0.634549
| 42>   O                    : 0.445780             -4.147892            -1.754119
| 43>   H                    : 0.889978             -3.509935            -2.357126
| 44>   H                    : -1.004363            -3.350308            -0.387464
| 45>   H                    : 0.526002             -3.938563            0.227510
| 46>   H                    : 0.405570             -2.373225            -0.646882
| 47> *
| 48>
| 49> #Run DFT-D3 single point of the particle with dimer basis set
| 50> $new_job
| 51> %base "12-113_DFT_B"
| 52> ! wB97X-D3 def2-TZVP TIGHTSCF CHELPG PMODEL
| 53>
| 54> %scf
| 55> MaxIter 1000
| 56> end
| 57>
| 58> * xyz 0 1
| 59>   C                    : 0.458656             -0.930274            -4.011846
| 60>   O                    : 1.515919             -0.989407            -3.097757
| 61>   H                    : 2.343066             -1.128490            -3.561394
| 62>   H                    : 0.659038             -0.054227            -4.714166
| 63>   H                    : 0.496070             -1.799020            -4.676867
| 64>   H                    : -0.554769            -0.926448            -3.628725
| 65>   C                      0.089987             -3.422612            -0.634549
| 66>   O                      0.445780             -4.147892            -1.754119
| 67>   H                      0.889978             -3.509935            -2.357126
| 68>   H                      -1.004363            -3.350308            -0.387464
| 69>   H                      0.526002             -3.938563            0.227510
| 70>   H                      0.405570             -2.373225            -0.646882
| 71> *
| 72>
| 73>                          ****END OF INPUT****
 Total Charge           Charge          ....    0
 Multiplicity           Mult            ....    1
 Number of Electrons    NEL             ....   36
Dispersion correction           -0.001887389
FINAL SINGLE POINT ENERGY      -231.467469296081
Dispersion correction           -0.000231921
FINAL SINGLE POINT ENERGY      -115.730815646431

CARTESIAN COORDINATES (ANGSTROEM)
---------------------------------
  C      0.458656   -0.930274   -4.011846
  O      1.515919   -0.989407   -3.097757
  H      2.343066   -1.128490   -3.561394
  H      0.659038   -0.054227   -4.714166
  H      0.496070   -1.799020   -4.676867
  H     -0.554769   -0.926448   -3.628725
  C      0.089987   -3.422612   -0.634549
  O      0.445780   -4.147892   -1.754119
  H      0.889978   -3.509935   -2.357126
  H     -1.004363   -3.350308   -0.387464
  H      0.526002   -3.938563    0.227510
  H      0.405570   -2.373225   -0.646882

 Multiplicity           Mult            ....    1
 Number of Electrons    NEL             ....   18
 Basis Dimension        Dim             ....  172

ORBITAL ENERGIES
----------------

  NO   OCC          E(Eh)            E(eV)
   0   2.0000     -19.236456      -523.4506
   1   2.0000     -10.312869      -280.6274
   2   2.0000      -1.146394       -31.1950
   3   2.0000      -0.789551       -21.4848
   4   2.0000      -0.619903       -16.8684
   5   2.0000      -0.535605       -14.5746
   6   2.0000      -0.532492       -14.4898
   7   2.0000      -0.435583       -11.8528
   8   2.0000      -0.369510       -10.0549
   9   0.0000       0.064269         1.7488
  10   0.0000       0.133366         3.6291
  11   0.0000       0.145381         3.9560
  12   0.0000       0.159473         4.3395
  13   0.0000       0.185890         5.0583

MULLIKEN ATOMIC CHARGES
-----------------------
   0 C :   -0.004510
   1 O :   -0.000110
   2 H :   -0.000099
   3 H :   -0.000175
   4 H :    0.000327
   5 H :    0.000678
   6 C :   -0.168718
   7 O :   -0.459608
   8 H :    0.321997
   9 H :    0.097451
  10 H :    0.109151
  11 H :    0.103616
Sum of atomic charges:    0.0000000

LOEWDIN ATOMIC CHARGES
----------------------
   0 C :   -0.003819
   1 O :   -0.002152
   2 H :   -0.000309
   3 H :   -0.000088
   4 H :   -0.000605
   5 H :   -0.000235
   6 C :   -0.423907
   7 O :   -0.055656
   8 H :    0.189431
   9 H :    0.101068
  10 H :    0.101001
  11 H :    0.095270

  Mayer bond orders larger than 0.1
B(  6-C ,  7-O ) :   1.0060 B(  6-C ,  9-H ) :   0.9670 B(  6-C , 10-H ) :   0.9857
B(  6-C , 11-H ) :   0.9817 B(  7-O ,  8-H ) :   0.8988

Dispersion correction           -0.000248658
FINAL SINGLE POINT ENERGY      -115.731327738987

DIPOLE MOMENT
-------------
                                X             Y             Z
Electronic contribution:      0.45907      -1.09686      -1.55493
Nuclear contribution   :     -0.28926       1.77857       1.57662
                        -----------------------------------------
Total Dipole Moment    :      0.16980       0.68171       0.02169
                        -----------------------------------------
Magnitude (a.u.)       :      0.70287
Magnitude (Debye)      :      1.78656

Rotational constants in cm-1:     4.291238     0.856951     0.819305
Rotational constants in MHz : 128648.068854 25690.753430 24562.152983

                             ****ORCA TERMINATED NORMALLY****
TOTAL RUN TIME: 0 days 0 hours 1 minutes 13 seconds 137 msec
