                         Program Version 4.1.2  - RELEASE  -
|  1> #Run DFT-D3 single point of the dimer
|  2> ! wB97X-D3 def2-TZVP TIGHTSCF CHELPG PMODEL PAL8
|  3>
|  4> %base "8-124_DFT_AB"
|  5>
|  6> %scf
|  7> MaxIter 1000
|  8> end
|  9>
| 10> * xyz 0 1
| 11>   C                      6.823729             6.653392             4.663200
| 12>   O                      5.853408             7.293050             3.735871
| 13>   H                      5.958699             6.875321             2.844677
| 14>   H                      6.405214             6.361899             5.666741
| 15>   H                      7.327214             5.758224             4.307533
| 16>   H                      7.632612             7.335827             4.701187
| 17>   C                      5.516910             4.798344             0.486500
| 18>   O                      5.933246             5.897615             1.108298
| 19>   H                      6.394821             6.479765             0.481301
| 20>   H                      4.789262             4.296935             1.139114
| 21>   H                      4.936789             4.924250             -0.411263
| 22>   H                      6.246772             4.066543             0.165103
| 23> *
| 24>
| 25> #Run DFT-D3 single point of the molecule with dimer basis set
| 26> $new_job
| 27> %base "8-124_DFT_A"
| 28> ! wB97X-D3 def2-TZVP TIGHTSCF CHELPG PMODEL
| 29>
| 30> %scf
| 31> MaxIter 1000
| 32> end
| 33>
| 34> * xyz 0 1
| 35>   C                      6.823729             6.653392             4.663200
| 36>   O                      5.853408             7.293050             3.735871
| 37>   H                      5.958699             6.875321             2.844677
| 38>   H                      6.405214             6.361899             5.666741
| 39>   H                      7.327214             5.758224             4.307533
| 40>   H                      7.632612             7.335827             4.701187
| 41>   C                    : 5.516910             4.798344             0.486500
| 42>   O                    : 5.933246             5.897615             1.108298
| 43>   H                    : 6.394821             6.479765             0.481301
| 44>   H                    : 4.789262             4.296935             1.139114
| 45>   H                    : 4.936789             4.924250             -0.411263
| 46>   H                    : 6.246772             4.066543             0.165103
| 47> *
| 48>
| 49> #Run DFT-D3 single point of the particle with dimer basis set
| 50> $new_job
| 51> %base "8-124_DFT_B"
| 52> ! wB97X-D3 def2-TZVP TIGHTSCF CHELPG PMODEL
| 53>
| 54> %scf
| 55> MaxIter 1000
| 56> end
| 57>
| 58> * xyz 0 1
| 59>   C                    : 6.823729             6.653392             4.663200
| 60>   O                    : 5.853408             7.293050             3.735871
| 61>   H                    : 5.958699             6.875321             2.844677
| 62>   H                    : 6.405214             6.361899             5.666741
| 63>   H                    : 7.327214             5.758224             4.307533
| 64>   H                    : 7.632612             7.335827             4.701187
| 65>   C                      5.516910             4.798344             0.486500
| 66>   O                      5.933246             5.897615             1.108298
| 67>   H                      6.394821             6.479765             0.481301
| 68>   H                      4.789262             4.296935             1.139114
| 69>   H                      4.936789             4.924250             -0.411263
| 70>   H                      6.246772             4.066543             0.165103
| 71> *
| 72>
| 73>                          ****END OF INPUT****
 Total Charge           Charge          ....    0
 Multiplicity           Mult            ....    1
 Number of Electrons    NEL             ....   36
Dispersion correction           -0.001528183
FINAL SINGLE POINT ENERGY      -231.461886581626
Dispersion correction           -0.000287315
FINAL SINGLE POINT ENERGY      -115.725284708870

CARTESIAN COORDINATES (ANGSTROEM)
---------------------------------
  C      6.823729    6.653392    4.663200
  O      5.853408    7.293050    3.735871
  H      5.958699    6.875321    2.844677
  H      6.405214    6.361899    5.666741
  H      7.327214    5.758224    4.307533
  H      7.632612    7.335827    4.701187
  C      5.516910    4.798344    0.486500
  O      5.933246    5.897615    1.108298
  H      6.394821    6.479765    0.481301
  H      4.789262    4.296935    1.139114
  H      4.936789    4.924250   -0.411263
  H      6.246772    4.066543    0.165103

 Multiplicity           Mult            ....    1
 Number of Electrons    NEL             ....   18
 Basis Dimension        Dim             ....  172

ORBITAL ENERGIES
----------------

  NO   OCC          E(Eh)            E(eV)
   0   2.0000     -19.236994      -523.4652
   1   2.0000     -10.301898      -280.3289
   2   2.0000      -1.164604       -31.6905
   3   2.0000      -0.797479       -21.7005
   4   2.0000      -0.635966       -17.3055
   5   2.0000      -0.548449       -14.9241
   6   2.0000      -0.535891       -14.5823
   7   2.0000      -0.425800       -11.5866
   8   2.0000      -0.371894       -10.1198
   9   0.0000       0.098471         2.6795
  10   0.0000       0.121712         3.3119
  11   0.0000       0.154224         4.1967
  12   0.0000       0.190981         5.1969
  13   0.0000       0.202595         5.5129

MULLIKEN ATOMIC CHARGES
-----------------------
   0 C :    0.001404
   1 O :   -0.000206
   2 H :   -0.008755
   3 H :   -0.000091
   4 H :   -0.002027
   5 H :   -0.000106
   6 C :   -0.151799
   7 O :   -0.447207
   8 H :    0.319358
   9 H :    0.110358
  10 H :    0.090306
  11 H :    0.088765
Sum of atomic charges:    0.0000000

LOEWDIN ATOMIC CHARGES
----------------------
   0 C :   -0.002072
   1 O :   -0.003550
   2 H :   -0.036809
   3 H :   -0.000020
   4 H :   -0.000870
   5 H :   -0.000023
   6 C :   -0.459472
   7 O :    0.026931
   8 H :    0.186381
   9 H :    0.112167
  10 H :    0.088684
  11 H :    0.088653

  Mayer bond orders larger than 0.1
B(  6-C ,  7-O ) :   1.0187 B(  6-C ,  9-H ) :   0.9807 B(  6-C , 10-H ) :   0.9734
B(  6-C , 11-H ) :   0.9687 B(  7-O ,  8-H ) :   0.8875

Dispersion correction           -0.000231216
FINAL SINGLE POINT ENERGY      -115.729607364914

DIPOLE MOMENT
-------------
                                X             Y             Z
Electronic contribution:      0.66485       1.58927       0.99681
Nuclear contribution   :     -0.53114      -1.58107      -1.62914
                        -----------------------------------------
Total Dipole Moment    :      0.13372       0.00820      -0.63233
                        -----------------------------------------
Magnitude (a.u.)       :      0.64637
Magnitude (Debye)      :      1.64294

Rotational constants in cm-1:     4.567823     0.902926     0.864489
Rotational constants in MHz : 136939.877931 27069.032904 25916.736739

                             ****ORCA TERMINATED NORMALLY****
TOTAL RUN TIME: 0 days 0 hours 0 minutes 47 seconds 228 msec
