                         Program Version 4.1.2  - RELEASE  -
|  1> #Run DFT-D3 single point of the dimer
|  2> ! wB97X-D3 def2-TZVP TIGHTSCF CHELPG PMODEL PAL8
|  3>
|  4> %base "9-68_DFT_AB"
|  5>
|  6> %scf
|  7> MaxIter 1000
|  8> end
|  9>
| 10> * xyz 0 1
| 11>   C                      8.125646             0.140868             0.205538
| 12>   O                      9.020085             0.985751             0.913121
| 13>   H                      8.829592             1.132982             1.835882
| 14>   H                      7.075105             0.521568             0.141395
| 15>   H                      8.639908             -0.057721            -0.755773
| 16>   H                      8.148752             -0.882839            0.640323
| 17>   C                      10.068561            -3.208010            -3.177799
| 18>   O                      9.310852             -4.300594            -3.592050
| 19>   H                      8.967328             -4.079463            -4.439330
| 20>   H                      10.890299            -3.065571            -3.831773
| 21>   H                      9.479196             -2.275013            -3.274973
| 22>   H                      10.390322            -3.248299            -2.115350
| 23> *
| 24>
| 25> #Run DFT-D3 single point of the molecule with dimer basis set
| 26> $new_job
| 27> %base "9-68_DFT_A"
| 28> ! wB97X-D3 def2-TZVP TIGHTSCF CHELPG PMODEL
| 29>
| 30> %scf
| 31> MaxIter 1000
| 32> end
| 33>
| 34> * xyz 0 1
| 35>   C                      8.125646             0.140868             0.205538
| 36>   O                      9.020085             0.985751             0.913121
| 37>   H                      8.829592             1.132982             1.835882
| 38>   H                      7.075105             0.521568             0.141395
| 39>   H                      8.639908             -0.057721            -0.755773
| 40>   H                      8.148752             -0.882839            0.640323
| 41>   C                    : 10.068561            -3.208010            -3.177799
| 42>   O                    : 9.310852             -4.300594            -3.592050
| 43>   H                    : 8.967328             -4.079463            -4.439330
| 44>   H                    : 10.890299            -3.065571            -3.831773
| 45>   H                    : 9.479196             -2.275013            -3.274973
| 46>   H                    : 10.390322            -3.248299            -2.115350
| 47> *
| 48>
| 49> #Run DFT-D3 single point of the particle with dimer basis set
| 50> $new_job
| 51> %base "9-68_DFT_B"
| 52> ! wB97X-D3 def2-TZVP TIGHTSCF CHELPG PMODEL
| 53>
| 54> %scf
| 55> MaxIter 1000
| 56> end
| 57>
| 58> * xyz 0 1
| 59>   C                    : 8.125646             0.140868             0.205538
| 60>   O                    : 9.020085             0.985751             0.913121
| 61>   H                    : 8.829592             1.132982             1.835882
| 62>   H                    : 7.075105             0.521568             0.141395
| 63>   H                    : 8.639908             -0.057721            -0.755773
| 64>   H                    : 8.148752             -0.882839            0.640323
| 65>   C                      10.068561            -3.208010            -3.177799
| 66>   O                      9.310852             -4.300594            -3.592050
| 67>   H                      8.967328             -4.079463            -4.439330
| 68>   H                      10.890299            -3.065571            -3.831773
| 69>   H                      9.479196             -2.275013            -3.274973
| 70>   H                      10.390322            -3.248299            -2.115350
| 71> *
| 72>
| 73>                          ****END OF INPUT****
 Total Charge           Charge          ....    0
 Multiplicity           Mult            ....    1
 Number of Electrons    NEL             ....   36
Dispersion correction           -0.000785420
FINAL SINGLE POINT ENERGY      -231.465143175574
Dispersion correction           -0.000272531
FINAL SINGLE POINT ENERGY      -115.731676985041

CARTESIAN COORDINATES (ANGSTROEM)
---------------------------------
  C      8.125646    0.140868    0.205538
  O      9.020085    0.985751    0.913121
  H      8.829592    1.132982    1.835882
  H      7.075105    0.521568    0.141395
  H      8.639908   -0.057721   -0.755773
  H      8.148752   -0.882839    0.640323
  C     10.068561   -3.208010   -3.177799
  O      9.310852   -4.300594   -3.592050
  H      8.967328   -4.079463   -4.439330
  H     10.890299   -3.065571   -3.831773
  H      9.479196   -2.275013   -3.274973
  H     10.390322   -3.248299   -2.115350

 Multiplicity           Mult            ....    1
 Number of Electrons    NEL             ....   18
 Basis Dimension        Dim             ....  172

ORBITAL ENERGIES
----------------

  NO   OCC          E(Eh)            E(eV)
   0   2.0000     -19.228111      -523.2235
   1   2.0000     -10.311018      -280.5771
   2   2.0000      -1.148091       -31.2411
   3   2.0000      -0.795758       -21.6537
   4   2.0000      -0.618957       -16.8427
   5   2.0000      -0.546146       -14.8614
   6   2.0000      -0.530584       -14.4379
   7   2.0000      -0.434585       -11.8257
   8   2.0000      -0.371101       -10.0982
   9   0.0000       0.084671         2.3040
  10   0.0000       0.116279         3.1641
  11   0.0000       0.144064         3.9202
  12   0.0000       0.173331         4.7166
  13   0.0000       0.186684         5.0799

MULLIKEN ATOMIC CHARGES
-----------------------
   0 C :    0.000342
   1 O :   -0.000004
   2 H :   -0.000000
   3 H :   -0.000015
   4 H :   -0.000704
   5 H :   -0.000064
   6 C :   -0.162145
   7 O :   -0.467720
   8 H :    0.314038
   9 H :    0.101978
  10 H :    0.094690
  11 H :    0.119605
Sum of atomic charges:   -0.0000000

LOEWDIN ATOMIC CHARGES
----------------------
   0 C :   -0.000115
   1 O :   -0.000004
   2 H :   -0.000000
   3 H :   -0.000001
   4 H :   -0.000469
   5 H :   -0.000019
   6 C :   -0.400047
   7 O :   -0.054000
   8 H :    0.160439
   9 H :    0.085919
  10 H :    0.095460
  11 H :    0.112836

  Mayer bond orders larger than 0.1
B(  6-C ,  7-O ) :   0.9934 B(  6-C ,  9-H ) :   0.9776 B(  6-C , 10-H ) :   0.9846
B(  6-C , 11-H ) :   0.9701 B(  7-O ,  8-H ) :   0.9015

Dispersion correction           -0.000215799
FINAL SINGLE POINT ENERGY      -115.733018513438

DIPOLE MOMENT
-------------
                                X             Y             Z
Electronic contribution:     -0.88938      -1.60508      -0.37913
Nuclear contribution   :      0.96573       2.17334      -0.00572
                        -----------------------------------------
Total Dipole Moment    :      0.07635       0.56827      -0.38484
                        -----------------------------------------
Magnitude (a.u.)       :      0.69055
Magnitude (Debye)      :      1.75524

Rotational constants in cm-1:     4.364540     0.856077     0.818987
Rotational constants in MHz : 130845.620266 25664.536591 24552.603245

                             ****ORCA TERMINATED NORMALLY****
TOTAL RUN TIME: 0 days 0 hours 0 minutes 39 seconds 161 msec
