                         Program Version 4.1.2  - RELEASE  -
|  1> #Run DFT-D3 single point of the dimer
|  2> ! wB97X-D3 def2-TZVP TIGHTSCF CHELPG PMODEL PAL8
|  3>
|  4> %base "18-146_DFT_AB"
|  5>
|  6> %scf
|  7> MaxIter 1000
|  8> end
|  9>
| 10> * xyz 0 1
| 11>   C                      -2.842685            3.477370             9.832134
| 12>   O                      -2.659729            4.454011             8.772866
| 13>   H                      -3.537312            4.885008             8.687711
| 14>   H                      -3.533470            2.727091             9.585934
| 15>   H                      -1.929909            3.003346             10.104780
| 16>   H                      -3.244043            4.038388             10.664281
| 17>   C                      -1.590801            5.259536             5.444712
| 18>   O                      -2.579005            6.075560             5.969634
| 19>   H                      -2.371255            6.166465             6.898647
| 20>   H                      -0.617165            5.294617             6.040935
| 21>   H                      -1.920685            4.210477             5.363840
| 22>   H                      -1.254184            5.604891             4.450927
| 23> *
| 24>
| 25> #Run DFT-D3 single point of the molecule with dimer basis set
| 26> $new_job
| 27> %base "18-146_DFT_A"
| 28> ! wB97X-D3 def2-TZVP TIGHTSCF CHELPG PMODEL
| 29>
| 30> %scf
| 31> MaxIter 1000
| 32> end
| 33>
| 34> * xyz 0 1
| 35>   C                      -2.842685            3.477370             9.832134
| 36>   O                      -2.659729            4.454011             8.772866
| 37>   H                      -3.537312            4.885008             8.687711
| 38>   H                      -3.533470            2.727091             9.585934
| 39>   H                      -1.929909            3.003346             10.104780
| 40>   H                      -3.244043            4.038388             10.664281
| 41>   C                    : -1.590801            5.259536             5.444712
| 42>   O                    : -2.579005            6.075560             5.969634
| 43>   H                    : -2.371255            6.166465             6.898647
| 44>   H                    : -0.617165            5.294617             6.040935
| 45>   H                    : -1.920685            4.210477             5.363840
| 46>   H                    : -1.254184            5.604891             4.450927
| 47> *
| 48>
| 49> #Run DFT-D3 single point of the particle with dimer basis set
| 50> $new_job
| 51> %base "18-146_DFT_B"
| 52> ! wB97X-D3 def2-TZVP TIGHTSCF CHELPG PMODEL
| 53>
| 54> %scf
| 55> MaxIter 1000
| 56> end
| 57>
| 58> * xyz 0 1
| 59>   C                    : -2.842685            3.477370             9.832134
| 60>   O                    : -2.659729            4.454011             8.772866
| 61>   H                    : -3.537312            4.885008             8.687711
| 62>   H                    : -3.533470            2.727091             9.585934
| 63>   H                    : -1.929909            3.003346             10.104780
| 64>   H                    : -3.244043            4.038388             10.664281
| 65>   C                      -1.590801            5.259536             5.444712
| 66>   O                      -2.579005            6.075560             5.969634
| 67>   H                      -2.371255            6.166465             6.898647
| 68>   H                      -0.617165            5.294617             6.040935
| 69>   H                      -1.920685            4.210477             5.363840
| 70>   H                      -1.254184            5.604891             4.450927
| 71> *
| 72>
| 73>                          ****END OF INPUT****
 Total Charge           Charge          ....    0
 Multiplicity           Mult            ....    1
 Number of Electrons    NEL             ....   36
Dispersion correction           -0.001517567
FINAL SINGLE POINT ENERGY      -231.469797223763
Dispersion correction           -0.000223979
FINAL SINGLE POINT ENERGY      -115.732096828376

CARTESIAN COORDINATES (ANGSTROEM)
---------------------------------
  C     -2.842685    3.477370    9.832134
  O     -2.659729    4.454011    8.772866
  H     -3.537312    4.885008    8.687711
  H     -3.533470    2.727091    9.585934
  H     -1.929909    3.003346   10.104780
  H     -3.244043    4.038388   10.664281
  C     -1.590801    5.259536    5.444712
  O     -2.579005    6.075560    5.969634
  H     -2.371255    6.166465    6.898647
  H     -0.617165    5.294617    6.040935
  H     -1.920685    4.210477    5.363840
  H     -1.254184    5.604891    4.450927

 Multiplicity           Mult            ....    1
 Number of Electrons    NEL             ....   18
 Basis Dimension        Dim             ....  172

ORBITAL ENERGIES
----------------

  NO   OCC          E(Eh)            E(eV)
   0   2.0000     -19.233971      -523.3829
   1   2.0000     -10.318295      -280.7751
   2   2.0000      -1.150095       -31.2957
   3   2.0000      -0.789821       -21.4921
   4   2.0000      -0.616432       -16.7740
   5   2.0000      -0.546593       -14.8736
   6   2.0000      -0.528920       -14.3926
   7   2.0000      -0.428323       -11.6553
   8   2.0000      -0.375805       -10.2262
   9   0.0000       0.077511         2.1092
  10   0.0000       0.118433         3.2227
  11   0.0000       0.148612         4.0439
  12   0.0000       0.179135         4.8745
  13   0.0000       0.191319         5.2060

MULLIKEN ATOMIC CHARGES
-----------------------
   0 C :   -0.000309
   1 O :   -0.002559
   2 H :   -0.003225
   3 H :   -0.000030
   4 H :    0.000034
   5 H :    0.000022
   6 C :   -0.173100
   7 O :   -0.454527
   8 H :    0.320168
   9 H :    0.097324
  10 H :    0.105266
  11 H :    0.110937
Sum of atomic charges:    0.0000000

LOEWDIN ATOMIC CHARGES
----------------------
   0 C :   -0.000220
   1 O :   -0.005052
   2 H :   -0.003561
   3 H :   -0.000007
   4 H :   -0.000007
   5 H :   -0.000004
   6 C :   -0.420007
   7 O :   -0.046565
   8 H :    0.171971
   9 H :    0.102642
  10 H :    0.096649
  11 H :    0.104161

  Mayer bond orders larger than 0.1
B(  6-C ,  7-O ) :   1.0094 B(  6-C ,  9-H ) :   0.9845 B(  6-C , 10-H ) :   0.9726
B(  6-C , 11-H ) :   0.9741 B(  7-O ,  8-H ) :   0.8996

Dispersion correction           -0.000244111
FINAL SINGLE POINT ENERGY      -115.733834634438

DIPOLE MOMENT
-------------
                                X             Y             Z
Electronic contribution:     -1.50212       1.10784       0.56662
Nuclear contribution   :      2.00822      -1.32767      -0.18012
                        -----------------------------------------
Total Dipole Moment    :      0.50609      -0.21983       0.38650
                        -----------------------------------------
Magnitude (a.u.)       :      0.67368
Magnitude (Debye)      :      1.71235

Rotational constants in cm-1:     4.206399     0.849932     0.822954
Rotational constants in MHz : 126104.664016 25480.334490 24671.532083

                             ****ORCA TERMINATED NORMALLY****
TOTAL RUN TIME: 0 days 0 hours 0 minutes 54 seconds 760 msec
