                         Program Version 4.1.2  - RELEASE  -
|  1> #Run DFT-D3 single point of the dimer
|  2> ! wB97X-D3 def2-TZVP TIGHTSCF CHELPG PMODEL PAL8
|  3>
|  4> %base "20-68_DFT_AB"
|  5>
|  6> %scf
|  7> MaxIter 1000
|  8> end
|  9>
| 10> * xyz 0 1
| 11>   C                      0.659082             8.615269             -3.643497
| 12>   O                      0.571755             9.841283             -3.042450
| 13>   H                      0.633439             10.539445            -3.712564
| 14>   H                      1.490287             8.549697             -4.355124
| 15>   H                      0.762765             7.880298             -2.852222
| 16>   H                      -0.254403            8.351689             -4.285406
| 17>   C                      -3.434642            10.098755            -2.541995
| 18>   O                      -2.486791            9.020784             -2.459724
| 19>   H                      -1.622324            9.363562             -2.421603
| 20>   H                      -4.241317            9.969688             -1.871554
| 21>   H                      -2.977795            11.011380            -2.118214
| 22>   H                      -3.871249            10.220332            -3.510029
| 23> *
| 24>
| 25> #Run DFT-D3 single point of the molecule with dimer basis set
| 26> $new_job
| 27> %base "20-68_DFT_A"
| 28> ! wB97X-D3 def2-TZVP TIGHTSCF CHELPG PMODEL
| 29>
| 30> %scf
| 31> MaxIter 1000
| 32> end
| 33>
| 34> * xyz 0 1
| 35>   C                      0.659082             8.615269             -3.643497
| 36>   O                      0.571755             9.841283             -3.042450
| 37>   H                      0.633439             10.539445            -3.712564
| 38>   H                      1.490287             8.549697             -4.355124
| 39>   H                      0.762765             7.880298             -2.852222
| 40>   H                      -0.254403            8.351689             -4.285406
| 41>   C                    : -3.434642            10.098755            -2.541995
| 42>   O                    : -2.486791            9.020784             -2.459724
| 43>   H                    : -1.622324            9.363562             -2.421603
| 44>   H                    : -4.241317            9.969688             -1.871554
| 45>   H                    : -2.977795            11.011380            -2.118214
| 46>   H                    : -3.871249            10.220332            -3.510029
| 47> *
| 48>
| 49> #Run DFT-D3 single point of the particle with dimer basis set
| 50> $new_job
| 51> %base "20-68_DFT_B"
| 52> ! wB97X-D3 def2-TZVP TIGHTSCF CHELPG PMODEL
| 53>
| 54> %scf
| 55> MaxIter 1000
| 56> end
| 57>
| 58> * xyz 0 1
| 59>   C                    : 0.659082             8.615269             -3.643497
| 60>   O                    : 0.571755             9.841283             -3.042450
| 61>   H                    : 0.633439             10.539445            -3.712564
| 62>   H                    : 1.490287             8.549697             -4.355124
| 63>   H                    : 0.762765             7.880298             -2.852222
| 64>   H                    : -0.254403            8.351689             -4.285406
| 65>   C                      -3.434642            10.098755            -2.541995
| 66>   O                      -2.486791            9.020784             -2.459724
| 67>   H                      -1.622324            9.363562             -2.421603
| 68>   H                      -4.241317            9.969688             -1.871554
| 69>   H                      -2.977795            11.011380            -2.118214
| 70>   H                      -3.871249            10.220332            -3.510029
| 71> *
| 72>
| 73>                          ****END OF INPUT****
 Total Charge           Charge          ....    0
 Multiplicity           Mult            ....    1
 Number of Electrons    NEL             ....   36
Dispersion correction           -0.001776235
FINAL SINGLE POINT ENERGY      -231.471621987045
Dispersion correction           -0.000234560
FINAL SINGLE POINT ENERGY      -115.734604263147

CARTESIAN COORDINATES (ANGSTROEM)
---------------------------------
  C      0.659082    8.615269   -3.643497
  O      0.571755    9.841283   -3.042450
  H      0.633439   10.539445   -3.712564
  H      1.490287    8.549697   -4.355124
  H      0.762765    7.880298   -2.852222
  H     -0.254403    8.351689   -4.285406
  C     -3.434642   10.098755   -2.541995
  O     -2.486791    9.020784   -2.459724
  H     -1.622324    9.363562   -2.421603
  H     -4.241317    9.969688   -1.871554
  H     -2.977795   11.011380   -2.118214
  H     -3.871249   10.220332   -3.510029

 Multiplicity           Mult            ....    1
 Number of Electrons    NEL             ....   18
 Basis Dimension        Dim             ....  172

ORBITAL ENERGIES
----------------

  NO   OCC          E(Eh)            E(eV)
   0   2.0000     -19.227293      -523.2013
   1   2.0000     -10.310635      -280.5666
   2   2.0000      -1.133857       -30.8538
   3   2.0000      -0.806055       -21.9339
   4   2.0000      -0.609659       -16.5897
   5   2.0000      -0.548642       -14.9293
   6   2.0000      -0.528997       -14.3947
   7   2.0000      -0.427933       -11.6447
   8   2.0000      -0.378912       -10.3107
   9   0.0000       0.076066         2.0698
  10   0.0000       0.132167         3.5965
  11   0.0000       0.157250         4.2790
  12   0.0000       0.166533         4.5316
  13   0.0000       0.187414         5.0998

MULLIKEN ATOMIC CHARGES
-----------------------
   0 C :   -0.001108
   1 O :   -0.001335
   2 H :   -0.000095
   3 H :   -0.000289
   4 H :    0.000299
   5 H :   -0.005797
   6 C :   -0.167389
   7 O :   -0.466336
   8 H :    0.310589
   9 H :    0.116919
  10 H :    0.102243
  11 H :    0.112298
Sum of atomic charges:    0.0000000

LOEWDIN ATOMIC CHARGES
----------------------
   0 C :   -0.008645
   1 O :   -0.005817
   2 H :   -0.000601
   3 H :   -0.000082
   4 H :   -0.000399
   5 H :   -0.004431
   6 C :   -0.357106
   7 O :   -0.067809
   8 H :    0.150657
   9 H :    0.096609
  10 H :    0.103385
  11 H :    0.094240

  Mayer bond orders larger than 0.1
B(  6-C ,  7-O ) :   1.0066 B(  6-C ,  9-H ) :   0.9754 B(  6-C , 10-H ) :   0.9894
B(  6-C , 11-H ) :   0.9722 B(  7-O ,  8-H ) :   0.9091

Dispersion correction           -0.000253835
FINAL SINGLE POINT ENERGY      -115.731078324825

DIPOLE MOMENT
-------------
                                X             Y             Z
Electronic contribution:      1.06648      -1.46466      -0.02213
Nuclear contribution   :     -0.92817       2.15119       0.04856
                        -----------------------------------------
Total Dipole Moment    :      0.13831       0.68653       0.02643
                        -----------------------------------------
Magnitude (a.u.)       :      0.70082
Magnitude (Debye)      :      1.78134

Rotational constants in cm-1:     4.525831     0.807230     0.781685
Rotational constants in MHz : 135681.003453 24200.154018 23434.321959

                             ****ORCA TERMINATED NORMALLY****
TOTAL RUN TIME: 0 days 0 hours 1 minutes 7 seconds 656 msec
