                         Program Version 4.1.2  - RELEASE  -
|  1> #Run DFT-D3 single point of the dimer
|  2> ! wB97X-D3 def2-TZVP TIGHTSCF CHELPG PMODEL PAL8
|  3>
|  4> %base "1-129_DFT_AB"
|  5>
|  6> %scf
|  7> MaxIter 1000
|  8> end
|  9>
| 10> * xyz 0 1
| 11>   C                      8.306979             -1.199292            -5.182348
| 12>   O                      7.537905             -1.703815            -6.246899
| 13>   H                      7.832907             -1.390369            -7.097220
| 14>   H                      8.184739             -0.143854            -5.200148
| 15>   H                      8.096430             -1.585496            -4.205000
| 16>   H                      9.355720             -1.370345            -5.333518
| 17>   C                      6.424644             0.249695             -3.087599
| 18>   O                      5.605370             0.999326             -4.013546
| 19>   H                      5.486739             1.888098             -3.695304
| 20>   H                      7.473081             0.469245             -3.089258
| 21>   H                      6.142132             0.441381             -2.008885
| 22>   H                      6.478099             -0.831879            -3.366217
| 23> *
| 24>
| 25> #Run DFT-D3 single point of the molecule with dimer basis set
| 26> $new_job
| 27> %base "1-129_DFT_A"
| 28> ! wB97X-D3 def2-TZVP TIGHTSCF CHELPG PMODEL
| 29>
| 30> %scf
| 31> MaxIter 1000
| 32> end
| 33>
| 34> * xyz 0 1
| 35>   C                      8.306979             -1.199292            -5.182348
| 36>   O                      7.537905             -1.703815            -6.246899
| 37>   H                      7.832907             -1.390369            -7.097220
| 38>   H                      8.184739             -0.143854            -5.200148
| 39>   H                      8.096430             -1.585496            -4.205000
| 40>   H                      9.355720             -1.370345            -5.333518
| 41>   C                    : 6.424644             0.249695             -3.087599
| 42>   O                    : 5.605370             0.999326             -4.013546
| 43>   H                    : 5.486739             1.888098             -3.695304
| 44>   H                    : 7.473081             0.469245             -3.089258
| 45>   H                    : 6.142132             0.441381             -2.008885
| 46>   H                    : 6.478099             -0.831879            -3.366217
| 47> *
| 48>
| 49> #Run DFT-D3 single point of the particle with dimer basis set
| 50> $new_job
| 51> %base "1-129_DFT_B"
| 52> ! wB97X-D3 def2-TZVP TIGHTSCF CHELPG PMODEL
| 53>
| 54> %scf
| 55> MaxIter 1000
| 56> end
| 57>
| 58> * xyz 0 1
| 59>   C                    : 8.306979             -1.199292            -5.182348
| 60>   O                    : 7.537905             -1.703815            -6.246899
| 61>   H                    : 7.832907             -1.390369            -7.097220
| 62>   H                    : 8.184739             -0.143854            -5.200148
| 63>   H                    : 8.096430             -1.585496            -4.205000
| 64>   H                    : 9.355720             -1.370345            -5.333518
| 65>   C                      6.424644             0.249695             -3.087599
| 66>   O                      5.605370             0.999326             -4.013546
| 67>   H                      5.486739             1.888098             -3.695304
| 68>   H                      7.473081             0.469245             -3.089258
| 69>   H                      6.142132             0.441381             -2.008885
| 70>   H                      6.478099             -0.831879            -3.366217
| 71> *
| 72>
| 73>                          ****END OF INPUT****
 Total Charge           Charge          ....    0
 Multiplicity           Mult            ....    1
 Number of Electrons    NEL             ....   36
Dispersion correction           -0.001942099
FINAL SINGLE POINT ENERGY      -231.457516545510
Dispersion correction           -0.000227317
FINAL SINGLE POINT ENERGY      -115.731301143579

CARTESIAN COORDINATES (ANGSTROEM)
---------------------------------
  C      8.306979   -1.199292   -5.182348
  O      7.537905   -1.703815   -6.246899
  H      7.832907   -1.390369   -7.097220
  H      8.184739   -0.143854   -5.200148
  H      8.096430   -1.585496   -4.205000
  H      9.355720   -1.370345   -5.333518
  C      6.424644    0.249695   -3.087599
  O      5.605370    0.999326   -4.013546
  H      5.486739    1.888098   -3.695304
  H      7.473081    0.469245   -3.089258
  H      6.142132    0.441381   -2.008885
  H      6.478099   -0.831879   -3.366217

 Multiplicity           Mult            ....    1
 Number of Electrons    NEL             ....   18
 Basis Dimension        Dim             ....  172

ORBITAL ENERGIES
----------------

  NO   OCC          E(Eh)            E(eV)
   0   2.0000     -19.233292      -523.3645
   1   2.0000     -10.320776      -280.8426
   2   2.0000      -1.129071       -30.7236
   3   2.0000      -0.798795       -21.7363
   4   2.0000      -0.611220       -16.6321
   5   2.0000      -0.537489       -14.6258
   6   2.0000      -0.514751       -14.0071
   7   2.0000      -0.437876       -11.9152
   8   2.0000      -0.374040       -10.1781
   9   0.0000       0.091299         2.4844
  10   0.0000       0.121303         3.3008
  11   0.0000       0.147632         4.0173
  12   0.0000       0.176853         4.8124
  13   0.0000       0.188524         5.1300

MULLIKEN ATOMIC CHARGES
-----------------------
   0 C :    0.002011
   1 O :   -0.000558
   2 H :   -0.000077
   3 H :    0.002277
   4 H :   -0.003794
   5 H :    0.000395
   6 C :   -0.189045
   7 O :   -0.473476
   8 H :    0.314422
   9 H :    0.109164
  10 H :    0.112117
  11 H :    0.126564
Sum of atomic charges:    0.0000000

LOEWDIN ATOMIC CHARGES
----------------------
   0 C :   -0.020904
   1 O :   -0.000148
   2 H :   -0.000025
   3 H :   -0.004843
   4 H :   -0.010196
   5 H :   -0.000099
   6 C :   -0.360651
   7 O :   -0.088492
   8 H :    0.161107
   9 H :    0.095042
  10 H :    0.103317
  11 H :    0.125892

  Mayer bond orders larger than 0.1
B(  6-C ,  7-O ) :   1.0020 B(  6-C ,  9-H ) :   0.9692 B(  6-C , 10-H ) :   0.9708
B(  6-C , 11-H ) :   0.9753 B(  7-O ,  8-H ) :   0.8990

Dispersion correction           -0.000280571
FINAL SINGLE POINT ENERGY      -115.729603366697

DIPOLE MOMENT
-------------
                                X             Y             Z
Electronic contribution:     -1.14259       0.87843      -1.31353
Nuclear contribution   :      1.43192      -0.60561       1.88450
                        -----------------------------------------
Total Dipole Moment    :      0.28933       0.27282       0.57097
                        -----------------------------------------
Magnitude (a.u.)       :      0.69581
Magnitude (Debye)      :      1.76861

Rotational constants in cm-1:     4.379905     0.793521     0.753243
Rotational constants in MHz : 131306.256977 23789.150811 22581.656200

                             ****ORCA TERMINATED NORMALLY****
TOTAL RUN TIME: 0 days 0 hours 5 minutes 38 seconds 641 msec
