                         Program Version 4.1.2  - RELEASE  -
|  1> #Run DFT-D3 single point of the dimer
|  2> ! wB97X-D3 def2-TZVP TIGHTSCF CHELPG PMODEL PAL8
|  3>
|  4> %base "21-152_DFT_AB"
|  5>
|  6> %scf
|  7> MaxIter 1000
|  8> end
|  9>
| 10> * xyz 0 1
| 11>   C                      11.352334            -1.833774            7.507405
| 12>   O                      10.991320            -2.294420            8.776849
| 13>   H                      11.814612            -2.590562            9.205641
| 14>   H                      11.764814            -0.857709            7.498647
| 15>   H                      12.122750            -2.483678            6.969875
| 16>   H                      10.452367            -1.798629            6.862661
| 17>   C                      8.709918             0.738969             9.802240
| 18>   O                      8.914689             -0.590089            10.314988
| 19>   H                      9.775413             -0.927752            9.986057
| 20>   H                      9.412410             1.495473             10.198041
| 21>   H                      8.877136             0.653799             8.706523
| 22>   H                      7.783355             1.130612             10.176391
| 23> *
| 24>
| 25> #Run DFT-D3 single point of the molecule with dimer basis set
| 26> $new_job
| 27> %base "21-152_DFT_A"
| 28> ! wB97X-D3 def2-TZVP TIGHTSCF CHELPG PMODEL
| 29>
| 30> %scf
| 31> MaxIter 1000
| 32> end
| 33>
| 34> * xyz 0 1
| 35>   C                      11.352334            -1.833774            7.507405
| 36>   O                      10.991320            -2.294420            8.776849
| 37>   H                      11.814612            -2.590562            9.205641
| 38>   H                      11.764814            -0.857709            7.498647
| 39>   H                      12.122750            -2.483678            6.969875
| 40>   H                      10.452367            -1.798629            6.862661
| 41>   C                    : 8.709918             0.738969             9.802240
| 42>   O                    : 8.914689             -0.590089            10.314988
| 43>   H                    : 9.775413             -0.927752            9.986057
| 44>   H                    : 9.412410             1.495473             10.198041
| 45>   H                    : 8.877136             0.653799             8.706523
| 46>   H                    : 7.783355             1.130612             10.176391
| 47> *
| 48>
| 49> #Run DFT-D3 single point of the particle with dimer basis set
| 50> $new_job
| 51> %base "21-152_DFT_B"
| 52> ! wB97X-D3 def2-TZVP TIGHTSCF CHELPG PMODEL
| 53>
| 54> %scf
| 55> MaxIter 1000
| 56> end
| 57>
| 58> * xyz 0 1
| 59>   C                    : 11.352334            -1.833774            7.507405
| 60>   O                    : 10.991320            -2.294420            8.776849
| 61>   H                    : 11.814612            -2.590562            9.205641
| 62>   H                    : 11.764814            -0.857709            7.498647
| 63>   H                    : 12.122750            -2.483678            6.969875
| 64>   H                    : 10.452367            -1.798629            6.862661
| 65>   C                      8.709918             0.738969             9.802240
| 66>   O                      8.914689             -0.590089            10.314988
| 67>   H                      9.775413             -0.927752            9.986057
| 68>   H                      9.412410             1.495473             10.198041
| 69>   H                      8.877136             0.653799             8.706523
| 70>   H                      7.783355             1.130612             10.176391
| 71> *
| 72>
| 73>                          ****END OF INPUT****
 Total Charge           Charge          ....    0
 Multiplicity           Mult            ....    1
 Number of Electrons    NEL             ....   36
Dispersion correction           -0.001721536
FINAL SINGLE POINT ENERGY      -231.471162042007
Dispersion correction           -0.000245969
FINAL SINGLE POINT ENERGY      -115.734302967301

CARTESIAN COORDINATES (ANGSTROEM)
---------------------------------
  C     11.352334   -1.833774    7.507405
  O     10.991320   -2.294420    8.776849
  H     11.814612   -2.590562    9.205641
  H     11.764814   -0.857709    7.498647
  H     12.122750   -2.483678    6.969875
  H     10.452367   -1.798629    6.862661
  C      8.709918    0.738969    9.802240
  O      8.914689   -0.590089   10.314988
  H      9.775413   -0.927752    9.986057
  H      9.412410    1.495473   10.198041
  H      8.877136    0.653799    8.706523
  H      7.783355    1.130612   10.176391

 Multiplicity           Mult            ....    1
 Number of Electrons    NEL             ....   18
 Basis Dimension        Dim             ....  172

ORBITAL ENERGIES
----------------

  NO   OCC          E(Eh)            E(eV)
   0   2.0000     -19.230746      -523.2952
   1   2.0000     -10.317016      -280.7403
   2   2.0000      -1.123998       -30.5856
   3   2.0000      -0.794844       -21.6288
   4   2.0000      -0.602534       -16.3958
   5   2.0000      -0.550989       -14.9932
   6   2.0000      -0.514890       -14.0109
   7   2.0000      -0.434385       -11.8202
   8   2.0000      -0.370506       -10.0820
   9   0.0000       0.066732         1.8159
  10   0.0000       0.134505         3.6601
  11   0.0000       0.139385         3.7928
  12   0.0000       0.166747         4.5374
  13   0.0000       0.192013         5.2249

MULLIKEN ATOMIC CHARGES
-----------------------
   0 C :   -0.003729
   1 O :   -0.000550
   2 H :   -0.000024
   3 H :    0.000179
   4 H :   -0.000085
   5 H :    0.000274
   6 C :   -0.164286
   7 O :   -0.480391
   8 H :    0.313033
   9 H :    0.100100
  10 H :    0.110108
  11 H :    0.125371
Sum of atomic charges:   -0.0000000

LOEWDIN ATOMIC CHARGES
----------------------
   0 C :   -0.003262
   1 O :   -0.010516
   2 H :   -0.000815
   3 H :   -0.000216
   4 H :   -0.000072
   5 H :   -0.000182
   6 C :   -0.368496
   7 O :   -0.100923
   8 H :    0.181531
   9 H :    0.095698
  10 H :    0.102349
  11 H :    0.104903

  Mayer bond orders larger than 0.1
B(  6-C ,  7-O ) :   0.9898 B(  6-C ,  9-H ) :   0.9710 B(  6-C , 10-H ) :   0.9808
B(  6-C , 11-H ) :   0.9727 B(  7-O ,  8-H ) :   0.9019

Dispersion correction           -0.000247122
FINAL SINGLE POINT ENERGY      -115.730839006753

DIPOLE MOMENT
-------------
                                X             Y             Z
Electronic contribution:      0.00235      -1.63656       0.68237
Nuclear contribution   :      0.44456       1.98565      -1.07333
                        -----------------------------------------
Total Dipole Moment    :      0.44691       0.34909      -0.39095
                        -----------------------------------------
Magnitude (a.u.)       :      0.68880
Magnitude (Debye)      :      1.75078

Rotational constants in cm-1:     4.216181     0.812775     0.776647
Rotational constants in MHz : 126397.912694 24366.373521 23283.277548

                             ****ORCA TERMINATED NORMALLY****
TOTAL RUN TIME: 0 days 0 hours 1 minutes 4 seconds 404 msec
