                         Program Version 4.1.2  - RELEASE  -
|  1> #Run DFT-D3 single point of the dimer
|  2> ! wB97X-D3 def2-TZVP TIGHTSCF CHELPG PMODEL PAL8
|  3>
|  4> %base "13-46_DFT_AB"
|  5>
|  6> %scf
|  7> MaxIter 1000
|  8> end
|  9>
| 10> * xyz 0 1
| 11>   C                      8.962663             8.231957             5.425827
| 12>   O                      9.949730             9.224172             5.452284
| 13>   H                      10.724420            8.779643             5.024574
| 14>   H                      9.107767             7.617741             6.368248
| 15>   H                      7.926964             8.624352             5.397204
| 16>   H                      9.010763             7.567590             4.507931
| 17>   C                      7.836181             7.529676             0.058781
| 18>   O                      7.949878             8.883040             0.619364
| 19>   H                      7.217825             9.387910             0.332448
| 20>   H                      7.332988             7.589105             -0.945049
| 21>   H                      8.811352             6.978332             0.054858
| 22>   H                      7.241459             6.823541             0.671581
| 23> *
| 24>
| 25> #Run DFT-D3 single point of the molecule with dimer basis set
| 26> $new_job
| 27> %base "13-46_DFT_A"
| 28> ! wB97X-D3 def2-TZVP TIGHTSCF CHELPG PMODEL
| 29>
| 30> %scf
| 31> MaxIter 1000
| 32> end
| 33>
| 34> * xyz 0 1
| 35>   C                      8.962663             8.231957             5.425827
| 36>   O                      9.949730             9.224172             5.452284
| 37>   H                      10.724420            8.779643             5.024574
| 38>   H                      9.107767             7.617741             6.368248
| 39>   H                      7.926964             8.624352             5.397204
| 40>   H                      9.010763             7.567590             4.507931
| 41>   C                    : 7.836181             7.529676             0.058781
| 42>   O                    : 7.949878             8.883040             0.619364
| 43>   H                    : 7.217825             9.387910             0.332448
| 44>   H                    : 7.332988             7.589105             -0.945049
| 45>   H                    : 8.811352             6.978332             0.054858
| 46>   H                    : 7.241459             6.823541             0.671581
| 47> *
| 48>
| 49> #Run DFT-D3 single point of the particle with dimer basis set
| 50> $new_job
| 51> %base "13-46_DFT_B"
| 52> ! wB97X-D3 def2-TZVP TIGHTSCF CHELPG PMODEL
| 53>
| 54> %scf
| 55> MaxIter 1000
| 56> end
| 57>
| 58> * xyz 0 1
| 59>   C                    : 8.962663             8.231957             5.425827
| 60>   O                    : 9.949730             9.224172             5.452284
| 61>   H                    : 10.724420            8.779643             5.024574
| 62>   H                    : 9.107767             7.617741             6.368248
| 63>   H                    : 7.926964             8.624352             5.397204
| 64>   H                    : 9.010763             7.567590             4.507931
| 65>   C                      7.836181             7.529676             0.058781
| 66>   O                      7.949878             8.883040             0.619364
| 67>   H                      7.217825             9.387910             0.332448
| 68>   H                      7.332988             7.589105             -0.945049
| 69>   H                      8.811352             6.978332             0.054858
| 70>   H                      7.241459             6.823541             0.671581
| 71> *
| 72>
| 73>                          ****END OF INPUT****
 Total Charge           Charge          ....    0
 Multiplicity           Mult            ....    1
 Number of Electrons    NEL             ....   36
Dispersion correction           -0.000757690
FINAL SINGLE POINT ENERGY      -231.459835138767
Dispersion correction           -0.000239272
FINAL SINGLE POINT ENERGY      -115.730572211404

CARTESIAN COORDINATES (ANGSTROEM)
---------------------------------
  C      8.962663    8.231957    5.425827
  O      9.949730    9.224172    5.452284
  H     10.724420    8.779643    5.024574
  H      9.107767    7.617741    6.368248
  H      7.926964    8.624352    5.397204
  H      9.010763    7.567590    4.507931
  C      7.836181    7.529676    0.058781
  O      7.949878    8.883040    0.619364
  H      7.217825    9.387910    0.332448
  H      7.332988    7.589105   -0.945049
  H      8.811352    6.978332    0.054858
  H      7.241459    6.823541    0.671581

 Multiplicity           Mult            ....    1
 Number of Electrons    NEL             ....   18
 Basis Dimension        Dim             ....  172

ORBITAL ENERGIES
----------------

  NO   OCC          E(Eh)            E(eV)
   0   2.0000     -19.229830      -523.2703
   1   2.0000     -10.327379      -281.0223
   2   2.0000      -1.126443       -30.6521
   3   2.0000      -0.796332       -21.6693
   4   2.0000      -0.604503       -16.4494
   5   2.0000      -0.537995       -14.6396
   6   2.0000      -0.515026       -14.0146
   7   2.0000      -0.437629       -11.9085
   8   2.0000      -0.374348       -10.1865
   9   0.0000       0.092843         2.5264
  10   0.0000       0.116236         3.1629
  11   0.0000       0.145153         3.9498
  12   0.0000       0.173461         4.7201
  13   0.0000       0.190443         5.1822

MULLIKEN ATOMIC CHARGES
-----------------------
   0 C :   -0.000346
   1 O :    0.000039
   2 H :    0.000002
   3 H :   -0.000032
   4 H :    0.000002
   5 H :   -0.000209
   6 C :   -0.179990
   7 O :   -0.475373
   8 H :    0.310860
   9 H :    0.111964
  10 H :    0.126605
  11 H :    0.106479
Sum of atomic charges:   -0.0000000

LOEWDIN ATOMIC CHARGES
----------------------
   0 C :   -0.000241
   1 O :   -0.000004
   2 H :   -0.000003
   3 H :   -0.000012
   4 H :   -0.000026
   5 H :   -0.000152
   6 C :   -0.357717
   7 O :   -0.102505
   8 H :    0.147424
   9 H :    0.103741
  10 H :    0.113479
  11 H :    0.096014

  Mayer bond orders larger than 0.1
B(  6-C ,  7-O ) :   0.9976 B(  6-C ,  9-H ) :   0.9786 B(  6-C , 10-H ) :   0.9733
B(  6-C , 11-H ) :   0.9678 B(  7-O ,  8-H ) :   0.9056

Dispersion correction           -0.000284559
FINAL SINGLE POINT ENERGY      -115.729011992657

DIPOLE MOMENT
-------------
                                X             Y             Z
Electronic contribution:      0.29849       1.72803       0.72629
Nuclear contribution   :     -0.81965      -1.98476      -1.14567
                        -----------------------------------------
Total Dipole Moment    :     -0.52116      -0.25672      -0.41938
                        -----------------------------------------
Magnitude (a.u.)       :      0.71651
Magnitude (Debye)      :      1.82123

Rotational constants in cm-1:     4.274301     0.775488     0.739842
Rotational constants in MHz : 128140.312142 23248.539532 22179.912393

                             ****ORCA TERMINATED NORMALLY****
TOTAL RUN TIME: 0 days 0 hours 1 minutes 5 seconds 480 msec
