                         Program Version 4.1.2  - RELEASE  -
|  1> #Run DFT-D3 single point of the dimer
|  2> ! wB97X-D3 def2-TZVP TIGHTSCF CHELPG PMODEL PAL8
|  3>
|  4> %base "12-29_DFT_AB"
|  5>
|  6> %scf
|  7> MaxIter 1000
|  8> end
|  9>
| 10> * xyz 0 1
| 11>   C                      5.213601             -6.424230            1.445439
| 12>   O                      5.630218             -5.208946            2.075847
| 13>   H                      5.563530             -4.576802            1.354313
| 14>   H                      5.329758             -7.331916            2.140380
| 15>   H                      4.144093             -6.377885            1.182249
| 16>   H                      5.866397             -6.714165            0.524728
| 17>   C                      6.033957             -10.040960           0.439146
| 18>   O                      4.648566             -9.788092            0.371548
| 19>   H                      4.175144             -10.434468           -0.130946
| 20>   H                      6.302468             -11.026667           0.090324
| 21>   H                      6.583491             -9.332504            -0.111845
| 22>   H                      6.473931             -9.954549            1.446848
| 23> *
| 24>
| 25> #Run DFT-D3 single point of the molecule with dimer basis set
| 26> $new_job
| 27> %base "12-29_DFT_A"
| 28> ! wB97X-D3 def2-TZVP TIGHTSCF CHELPG PMODEL
| 29>
| 30> %scf
| 31> MaxIter 1000
| 32> end
| 33>
| 34> * xyz 0 1
| 35>   C                      5.213601             -6.424230            1.445439
| 36>   O                      5.630218             -5.208946            2.075847
| 37>   H                      5.563530             -4.576802            1.354313
| 38>   H                      5.329758             -7.331916            2.140380
| 39>   H                      4.144093             -6.377885            1.182249
| 40>   H                      5.866397             -6.714165            0.524728
| 41>   C                    : 6.033957             -10.040960           0.439146
| 42>   O                    : 4.648566             -9.788092            0.371548
| 43>   H                    : 4.175144             -10.434468           -0.130946
| 44>   H                    : 6.302468             -11.026667           0.090324
| 45>   H                    : 6.583491             -9.332504            -0.111845
| 46>   H                    : 6.473931             -9.954549            1.446848
| 47> *
| 48>
| 49> #Run DFT-D3 single point of the particle with dimer basis set
| 50> $new_job
| 51> %base "12-29_DFT_B"
| 52> ! wB97X-D3 def2-TZVP TIGHTSCF CHELPG PMODEL
| 53>
| 54> %scf
| 55> MaxIter 1000
| 56> end
| 57>
| 58> * xyz 0 1
| 59>   C                    : 5.213601             -6.424230            1.445439
| 60>   O                    : 5.630218             -5.208946            2.075847
| 61>   H                    : 5.563530             -4.576802            1.354313
| 62>   H                    : 5.329758             -7.331916            2.140380
| 63>   H                    : 4.144093             -6.377885            1.182249
| 64>   H                    : 5.866397             -6.714165            0.524728
| 65>   C                      6.033957             -10.040960           0.439146
| 66>   O                      4.648566             -9.788092            0.371548
| 67>   H                      4.175144             -10.434468           -0.130946
| 68>   H                      6.302468             -11.026667           0.090324
| 69>   H                      6.583491             -9.332504            -0.111845
| 70>   H                      6.473931             -9.954549            1.446848
| 71> *
| 72>
| 73>                          ****END OF INPUT****
 Total Charge           Charge          ....    0
 Multiplicity           Mult            ....    1
 Number of Electrons    NEL             ....   36
Dispersion correction           -0.001776023
FINAL SINGLE POINT ENERGY      -231.465078812852
Dispersion correction           -0.000260361
FINAL SINGLE POINT ENERGY      -115.730584923515

CARTESIAN COORDINATES (ANGSTROEM)
---------------------------------
  C      5.213601   -6.424230    1.445439
  O      5.630218   -5.208946    2.075847
  H      5.563530   -4.576802    1.354313
  H      5.329758   -7.331916    2.140380
  H      4.144093   -6.377885    1.182249
  H      5.866397   -6.714165    0.524728
  C      6.033957  -10.040960    0.439146
  O      4.648566   -9.788092    0.371548
  H      4.175144  -10.434468   -0.130946
  H      6.302468  -11.026667    0.090324
  H      6.583491   -9.332504   -0.111845
  H      6.473931   -9.954549    1.446848

 Multiplicity           Mult            ....    1
 Number of Electrons    NEL             ....   18
 Basis Dimension        Dim             ....  172

ORBITAL ENERGIES
----------------

  NO   OCC          E(Eh)            E(eV)
   0   2.0000     -19.228206      -523.2261
   1   2.0000     -10.308380      -280.5053
   2   2.0000      -1.136886       -30.9362
   3   2.0000      -0.804549       -21.8929
   4   2.0000      -0.618213       -16.8224
   5   2.0000      -0.541458       -14.7338
   6   2.0000      -0.531151       -14.4534
   7   2.0000      -0.429182       -11.6786
   8   2.0000      -0.373144       -10.1538
   9   0.0000       0.094359         2.5676
  10   0.0000       0.122526         3.3341
  11   0.0000       0.149435         4.0663
  12   0.0000       0.180251         4.9049
  13   0.0000       0.190781         5.1914

MULLIKEN ATOMIC CHARGES
-----------------------
   0 C :    0.001562
   1 O :   -0.000021
   2 H :   -0.000004
   3 H :   -0.000767
   4 H :   -0.001231
   5 H :   -0.000463
   6 C :   -0.161692
   7 O :   -0.482571
   8 H :    0.317187
   9 H :    0.107699
  10 H :    0.111841
  11 H :    0.108458
Sum of atomic charges:    0.0000000

LOEWDIN ATOMIC CHARGES
----------------------
   0 C :   -0.004458
   1 O :   -0.000021
   2 H :   -0.000008
   3 H :   -0.001436
   4 H :   -0.000724
   5 H :   -0.001125
   6 C :   -0.380644
   7 O :   -0.062468
   8 H :    0.159845
   9 H :    0.095257
  10 H :    0.090070
  11 H :    0.105714

  Mayer bond orders larger than 0.1
B(  6-C ,  7-O ) :   1.0050 B(  6-C ,  9-H ) :   0.9822 B(  6-C , 10-H ) :   0.9795
B(  6-C , 11-H ) :   0.9768 B(  7-O ,  8-H ) :   0.8979

Dispersion correction           -0.000257272
FINAL SINGLE POINT ENERGY      -115.732549934000

DIPOLE MOMENT
-------------
                                X             Y             Z
Electronic contribution:     -1.83417       0.40167      -0.06573
Nuclear contribution   :      2.09321      -0.95091      -0.25268
                        -----------------------------------------
Total Dipole Moment    :      0.25904      -0.54924      -0.31842
                        -----------------------------------------
Magnitude (a.u.)       :      0.68568
Magnitude (Debye)      :      1.74286

Rotational constants in cm-1:     4.623742     0.824940     0.793885
Rotational constants in MHz : 138616.308657 24731.074464 23800.075019

                             ****ORCA TERMINATED NORMALLY****
TOTAL RUN TIME: 0 days 0 hours 1 minutes 10 seconds 316 msec
