                         Program Version 4.1.2  - RELEASE  -
|  1> #Run DFT-D3 single point of the dimer
|  2> ! wB97X-D3 def2-TZVP TIGHTSCF CHELPG PMODEL PAL8
|  3>
|  4> %base "3-57_DFT_AB"
|  5>
|  6> %scf
|  7> MaxIter 1000
|  8> end
|  9>
| 10> * xyz 0 1
| 11>   C                      -1.585375            -0.526504            1.034932
| 12>   O                      -1.659778            -0.611331            2.447003
| 13>   H                      -2.532319            -0.358363            2.745018
| 14>   H                      -0.888317            0.258825             0.604334
| 15>   H                      -1.291051            -1.503012            0.632394
| 16>   H                      -2.593034            -0.391837            0.618044
| 17>   C                      -4.685835            -4.218706            -1.905755
| 18>   O                      -5.620403            -4.875687            -1.045612
| 19>   H                      -6.175920            -5.416958            -1.549472
| 20>   H                      -3.776749            -4.781768            -1.666579
| 21>   H                      -4.911927            -4.250010            -2.974445
| 22>   H                      -4.583469            -3.144852            -1.605303
| 23> *
| 24>
| 25> #Run DFT-D3 single point of the molecule with dimer basis set
| 26> $new_job
| 27> %base "3-57_DFT_A"
| 28> ! wB97X-D3 def2-TZVP TIGHTSCF CHELPG PMODEL
| 29>
| 30> %scf
| 31> MaxIter 1000
| 32> end
| 33>
| 34> * xyz 0 1
| 35>   C                      -1.585375            -0.526504            1.034932
| 36>   O                      -1.659778            -0.611331            2.447003
| 37>   H                      -2.532319            -0.358363            2.745018
| 38>   H                      -0.888317            0.258825             0.604334
| 39>   H                      -1.291051            -1.503012            0.632394
| 40>   H                      -2.593034            -0.391837            0.618044
| 41>   C                    : -4.685835            -4.218706            -1.905755
| 42>   O                    : -5.620403            -4.875687            -1.045612
| 43>   H                    : -6.175920            -5.416958            -1.549472
| 44>   H                    : -3.776749            -4.781768            -1.666579
| 45>   H                    : -4.911927            -4.250010            -2.974445
| 46>   H                    : -4.583469            -3.144852            -1.605303
| 47> *
| 48>
| 49> #Run DFT-D3 single point of the particle with dimer basis set
| 50> $new_job
| 51> %base "3-57_DFT_B"
| 52> ! wB97X-D3 def2-TZVP TIGHTSCF CHELPG PMODEL
| 53>
| 54> %scf
| 55> MaxIter 1000
| 56> end
| 57>
| 58> * xyz 0 1
| 59>   C                    : -1.585375            -0.526504            1.034932
| 60>   O                    : -1.659778            -0.611331            2.447003
| 61>   H                    : -2.532319            -0.358363            2.745018
| 62>   H                    : -0.888317            0.258825             0.604334
| 63>   H                    : -1.291051            -1.503012            0.632394
| 64>   H                    : -2.593034            -0.391837            0.618044
| 65>   C                      -4.685835            -4.218706            -1.905755
| 66>   O                      -5.620403            -4.875687            -1.045612
| 67>   H                      -6.175920            -5.416958            -1.549472
| 68>   H                      -3.776749            -4.781768            -1.666579
| 69>   H                      -4.911927            -4.250010            -2.974445
| 70>   H                      -4.583469            -3.144852            -1.605303
| 71> *
| 72>
| 73>                          ****END OF INPUT****
 Total Charge           Charge          ....    0
 Multiplicity           Mult            ....    1
 Number of Electrons    NEL             ....   36
Dispersion correction           -0.000669958
FINAL SINGLE POINT ENERGY      -231.463255720311
Dispersion correction           -0.000262640
FINAL SINGLE POINT ENERGY      -115.732667899028

CARTESIAN COORDINATES (ANGSTROEM)
---------------------------------
  C     -1.585375   -0.526504    1.034932
  O     -1.659778   -0.611331    2.447003
  H     -2.532319   -0.358363    2.745018
  H     -0.888317    0.258825    0.604334
  H     -1.291051   -1.503012    0.632394
  H     -2.593034   -0.391837    0.618044
  C     -4.685835   -4.218706   -1.905755
  O     -5.620403   -4.875687   -1.045612
  H     -6.175920   -5.416958   -1.549472
  H     -3.776749   -4.781768   -1.666579
  H     -4.911927   -4.250010   -2.974445
  H     -4.583469   -3.144852   -1.605303

 Multiplicity           Mult            ....    1
 Number of Electrons    NEL             ....   18
 Basis Dimension        Dim             ....  172

ORBITAL ENERGIES
----------------

  NO   OCC          E(Eh)            E(eV)
   0   2.0000     -19.222597      -523.0735
   1   2.0000     -10.316378      -280.7229
   2   2.0000      -1.136437       -30.9240
   3   2.0000      -0.796177       -21.6651
   4   2.0000      -0.612571       -16.6689
   5   2.0000      -0.542288       -14.7564
   6   2.0000      -0.517760       -14.0890
   7   2.0000      -0.437671       -11.9096
   8   2.0000      -0.369308       -10.0494
   9   0.0000       0.087119         2.3706
  10   0.0000       0.118421         3.2224
  11   0.0000       0.149495         4.0680
  12   0.0000       0.169592         4.6148
  13   0.0000       0.183604         4.9961

MULLIKEN ATOMIC CHARGES
-----------------------
   0 C :    0.000007
   1 O :   -0.000000
   2 H :   -0.000000
   3 H :   -0.000000
   4 H :   -0.000016
   5 H :   -0.000045
   6 C :   -0.176774
   7 O :   -0.473334
   8 H :    0.306524
   9 H :    0.115167
  10 H :    0.113298
  11 H :    0.115174
Sum of atomic charges:   -0.0000000

LOEWDIN ATOMIC CHARGES
----------------------
   0 C :   -0.000035
   1 O :   -0.000001
   2 H :   -0.000000
   3 H :   -0.000000
   4 H :   -0.000014
   5 H :   -0.000055
   6 C :   -0.372765
   7 O :   -0.076971
   8 H :    0.141152
   9 H :    0.103920
  10 H :    0.095857
  11 H :    0.108913

  Mayer bond orders larger than 0.1
B(  6-C ,  7-O ) :   0.9872 B(  6-C ,  9-H ) :   0.9865 B(  6-C , 10-H ) :   0.9716
B(  6-C , 11-H ) :   0.9701 B(  7-O ,  8-H ) :   0.9099

Dispersion correction           -0.000245941
FINAL SINGLE POINT ENERGY      -115.730398760230

DIPOLE MOMENT
-------------
                                X             Y             Z
Electronic contribution:     -1.16473      -0.73014       1.04938
Nuclear contribution   :      1.16662       0.63703      -1.74697
                        -----------------------------------------
Total Dipole Moment    :      0.00189      -0.09311      -0.69759
                        -----------------------------------------
Magnitude (a.u.)       :      0.70378
Magnitude (Debye)      :      1.78886

Rotational constants in cm-1:     4.251637     0.820546     0.795518
Rotational constants in MHz : 127460.866542 24599.336858 23849.031440

                             ****ORCA TERMINATED NORMALLY****
TOTAL RUN TIME: 0 days 0 hours 5 minutes 58 seconds 850 msec
