                         Program Version 4.1.2  - RELEASE  -
|  1> #Run DFT-D3 single point of the dimer
|  2> ! wB97X-D3 def2-TZVP TIGHTSCF CHELPG PMODEL PAL8
|  3>
|  4> %base "9-153_DFT_AB"
|  5>
|  6> %scf
|  7> MaxIter 1000
|  8> end
|  9>
| 10> * xyz 0 1
| 11>   C                      4.180246             -6.573666            -8.471970
| 12>   O                      2.944726             -6.901383            -9.159315
| 13>   H                      3.085003             -7.681904            -9.739053
| 14>   H                      4.377355             -7.204472            -7.586922
| 15>   H                      5.073206             -6.648378            -9.126589
| 16>   H                      4.046918             -5.525643            -8.101337
| 17>   C                      0.171370             -6.179703            -10.431509
| 18>   O                      1.142132             -5.175197            -10.135115
| 19>   H                      1.735514             -5.546216            -9.420963
| 20>   H                      -0.204759            -6.525148            -9.511910
| 21>   H                      -0.697941            -5.767374            -11.072162
| 22>   H                      0.616042             -7.055987            -10.972377
| 23> *
| 24>
| 25> #Run DFT-D3 single point of the molecule with dimer basis set
| 26> $new_job
| 27> %base "9-153_DFT_A"
| 28> ! wB97X-D3 def2-TZVP TIGHTSCF CHELPG PMODEL
| 29>
| 30> %scf
| 31> MaxIter 1000
| 32> end
| 33>
| 34> * xyz 0 1
| 35>   C                      4.180246             -6.573666            -8.471970
| 36>   O                      2.944726             -6.901383            -9.159315
| 37>   H                      3.085003             -7.681904            -9.739053
| 38>   H                      4.377355             -7.204472            -7.586922
| 39>   H                      5.073206             -6.648378            -9.126589
| 40>   H                      4.046918             -5.525643            -8.101337
| 41>   C                    : 0.171370             -6.179703            -10.431509
| 42>   O                    : 1.142132             -5.175197            -10.135115
| 43>   H                    : 1.735514             -5.546216            -9.420963
| 44>   H                    : -0.204759            -6.525148            -9.511910
| 45>   H                    : -0.697941            -5.767374            -11.072162
| 46>   H                    : 0.616042             -7.055987            -10.972377
| 47> *
| 48>
| 49> #Run DFT-D3 single point of the particle with dimer basis set
| 50> $new_job
| 51> %base "9-153_DFT_B"
| 52> ! wB97X-D3 def2-TZVP TIGHTSCF CHELPG PMODEL
| 53>
| 54> %scf
| 55> MaxIter 1000
| 56> end
| 57>
| 58> * xyz 0 1
| 59>   C                    : 4.180246             -6.573666            -8.471970
| 60>   O                    : 2.944726             -6.901383            -9.159315
| 61>   H                    : 3.085003             -7.681904            -9.739053
| 62>   H                    : 4.377355             -7.204472            -7.586922
| 63>   H                    : 5.073206             -6.648378            -9.126589
| 64>   H                    : 4.046918             -5.525643            -8.101337
| 65>   C                      0.171370             -6.179703            -10.431509
| 66>   O                      1.142132             -5.175197            -10.135115
| 67>   H                      1.735514             -5.546216            -9.420963
| 68>   H                      -0.204759            -6.525148            -9.511910
| 69>   H                      -0.697941            -5.767374            -11.072162
| 70>   H                      0.616042             -7.055987            -10.972377
| 71> *
| 72>
| 73>                          ****END OF INPUT****
 Total Charge           Charge          ....    0
 Multiplicity           Mult            ....    1
 Number of Electrons    NEL             ....   36
Dispersion correction           -0.001942452
FINAL SINGLE POINT ENERGY      -231.470308895825
Dispersion correction           -0.000277108
FINAL SINGLE POINT ENERGY      -115.734976961029

CARTESIAN COORDINATES (ANGSTROEM)
---------------------------------
  C      4.180246   -6.573666   -8.471970
  O      2.944726   -6.901383   -9.159315
  H      3.085003   -7.681904   -9.739053
  H      4.377355   -7.204472   -7.586922
  H      5.073206   -6.648378   -9.126589
  H      4.046918   -5.525643   -8.101337
  C      0.171370   -6.179703  -10.431509
  O      1.142132   -5.175197  -10.135115
  H      1.735514   -5.546216   -9.420963
  H     -0.204759   -6.525148   -9.511910
  H     -0.697941   -5.767374  -11.072162
  H      0.616042   -7.055987  -10.972377

 Multiplicity           Mult            ....    1
 Number of Electrons    NEL             ....   18
 Basis Dimension        Dim             ....  172

ORBITAL ENERGIES
----------------

  NO   OCC          E(Eh)            E(eV)
   0   2.0000     -19.234202      -523.3892
   1   2.0000     -10.319138      -280.7980
   2   2.0000      -1.126135       -30.6437
   3   2.0000      -0.788279       -21.4502
   4   2.0000      -0.604656       -16.4535
   5   2.0000      -0.540738       -14.7142
   6   2.0000      -0.521230       -14.1834
   7   2.0000      -0.432444       -11.7674
   8   2.0000      -0.372388       -10.1332
   9   0.0000       0.069647         1.8952
  10   0.0000       0.128714         3.5025
  11   0.0000       0.143504         3.9049
  12   0.0000       0.170007         4.6261
  13   0.0000       0.195291         5.3141

MULLIKEN ATOMIC CHARGES
-----------------------
   0 C :   -0.003976
   1 O :   -0.007432
   2 H :   -0.000098
   3 H :    0.000090
   4 H :    0.000229
   5 H :   -0.000007
   6 C :   -0.172681
   7 O :   -0.470983
   8 H :    0.318834
   9 H :    0.109736
  10 H :    0.124388
  11 H :    0.101899
Sum of atomic charges:    0.0000000

LOEWDIN ATOMIC CHARGES
----------------------
   0 C :   -0.005165
   1 O :   -0.030477
   2 H :   -0.002277
   3 H :   -0.000098
   4 H :   -0.000094
   5 H :   -0.000826
   6 C :   -0.381779
   7 O :   -0.089988
   8 H :    0.205264
   9 H :    0.085548
  10 H :    0.120952
  11 H :    0.098938

  Mayer bond orders larger than 0.1
B(  6-C ,  7-O ) :   0.9946 B(  6-C ,  9-H ) :   0.9876 B(  6-C , 10-H ) :   0.9680
B(  6-C , 11-H ) :   0.9721 B(  7-O ,  8-H ) :   0.8948

Dispersion correction           -0.000245082
FINAL SINGLE POINT ENERGY      -115.730553425824

DIPOLE MOMENT
-------------
                                X             Y             Z
Electronic contribution:      1.14377       1.39533       0.28110
Nuclear contribution   :     -1.18610      -2.01897       0.06043
                        -----------------------------------------
Total Dipole Moment    :     -0.04233      -0.62364       0.34153
                        -----------------------------------------
Magnitude (a.u.)       :      0.71229
Magnitude (Debye)      :      1.81050

Rotational constants in cm-1:     4.124746     0.817604     0.781566
Rotational constants in MHz : 123656.778145 24511.162689 23430.766681

                             ****ORCA TERMINATED NORMALLY****
TOTAL RUN TIME: 0 days 0 hours 0 minutes 46 seconds 287 msec
