                         Program Version 4.1.2  - RELEASE  -
|  1> #Run DFT-D3 single point of the dimer
|  2> ! wB97X-D3 def2-TZVP TIGHTSCF CHELPG PMODEL PAL8
|  3>
|  4> %base "1-8_DFT_AB"
|  5>
|  6> %scf
|  7> MaxIter 1000
|  8> end
|  9>
| 10> * xyz 0 1
| 11>   C                      9.200212             -0.043180            -9.565434
| 12>   O                      9.554774             -1.096549            -10.437954
| 13>   H                      8.810074             -1.397216            -10.963282
| 14>   H                      8.999381             0.938435             -10.111305
| 15>   H                      8.186143             -0.271036            -9.063142
| 16>   H                      9.978247             0.232531             -8.802907
| 17>   C                      11.544669            -3.345478            -10.102156
| 18>   O                      10.883767            -2.931228            -8.923766
| 19>   H                      11.462142            -2.790318            -8.181137
| 20>   H                      10.835078            -3.253117            -10.951907
| 21>   H                      12.494490            -2.843856            -10.328078
| 22>   H                      11.796707            -4.402151            -10.094575
| 23> *
| 24>
| 25> #Run DFT-D3 single point of the molecule with dimer basis set
| 26> $new_job
| 27> %base "1-8_DFT_A"
| 28> ! wB97X-D3 def2-TZVP TIGHTSCF CHELPG PMODEL
| 29>
| 30> %scf
| 31> MaxIter 1000
| 32> end
| 33>
| 34> * xyz 0 1
| 35>   C                      9.200212             -0.043180            -9.565434
| 36>   O                      9.554774             -1.096549            -10.437954
| 37>   H                      8.810074             -1.397216            -10.963282
| 38>   H                      8.999381             0.938435             -10.111305
| 39>   H                      8.186143             -0.271036            -9.063142
| 40>   H                      9.978247             0.232531             -8.802907
| 41>   C                    : 11.544669            -3.345478            -10.102156
| 42>   O                    : 10.883767            -2.931228            -8.923766
| 43>   H                    : 11.462142            -2.790318            -8.181137
| 44>   H                    : 10.835078            -3.253117            -10.951907
| 45>   H                    : 12.494490            -2.843856            -10.328078
| 46>   H                    : 11.796707            -4.402151            -10.094575
| 47> *
| 48>
| 49> #Run DFT-D3 single point of the particle with dimer basis set
| 50> $new_job
| 51> %base "1-8_DFT_B"
| 52> ! wB97X-D3 def2-TZVP TIGHTSCF CHELPG PMODEL
| 53>
| 54> %scf
| 55> MaxIter 1000
| 56> end
| 57>
| 58> * xyz 0 1
| 59>   C                    : 9.200212             -0.043180            -9.565434
| 60>   O                    : 9.554774             -1.096549            -10.437954
| 61>   H                    : 8.810074             -1.397216            -10.963282
| 62>   H                    : 8.999381             0.938435             -10.111305
| 63>   H                    : 8.186143             -0.271036            -9.063142
| 64>   H                    : 9.978247             0.232531             -8.802907
| 65>   C                      11.544669            -3.345478            -10.102156
| 66>   O                      10.883767            -2.931228            -8.923766
| 67>   H                      11.462142            -2.790318            -8.181137
| 68>   H                      10.835078            -3.253117            -10.951907
| 69>   H                      12.494490            -2.843856            -10.328078
| 70>   H                      11.796707            -4.402151            -10.094575
| 71> *
| 72>
| 73>                          ****END OF INPUT****
 Total Charge           Charge          ....    0
 Multiplicity           Mult            ....    1
 Number of Electrons    NEL             ....   36
Dispersion correction           -0.002049765
FINAL SINGLE POINT ENERGY      -231.460641631571
Dispersion correction           -0.000274072
FINAL SINGLE POINT ENERGY      -115.730412298791

CARTESIAN COORDINATES (ANGSTROEM)
---------------------------------
  C      9.200212   -0.043180   -9.565434
  O      9.554774   -1.096549  -10.437954
  H      8.810074   -1.397216  -10.963282
  H      8.999381    0.938435  -10.111305
  H      8.186143   -0.271036   -9.063142
  H      9.978247    0.232531   -8.802907
  C     11.544669   -3.345478  -10.102156
  O     10.883767   -2.931228   -8.923766
  H     11.462142   -2.790318   -8.181137
  H     10.835078   -3.253117  -10.951907
  H     12.494490   -2.843856  -10.328078
  H     11.796707   -4.402151  -10.094575

 Multiplicity           Mult            ....    1
 Number of Electrons    NEL             ....   18
 Basis Dimension        Dim             ....  172

ORBITAL ENERGIES
----------------

  NO   OCC          E(Eh)            E(eV)
   0   2.0000     -19.230206      -523.2805
   1   2.0000     -10.314893      -280.6825
   2   2.0000      -1.135135       -30.8886
   3   2.0000      -0.799560       -21.7571
   4   2.0000      -0.617795       -16.8111
   5   2.0000      -0.535394       -14.5688
   6   2.0000      -0.525966       -14.3123
   7   2.0000      -0.431632       -11.7453
   8   2.0000      -0.372809       -10.1446
   9   0.0000       0.094434         2.5697
  10   0.0000       0.126786         3.4500
  11   0.0000       0.145303         3.9539
  12   0.0000       0.172684         4.6990
  13   0.0000       0.206262         5.6127

MULLIKEN ATOMIC CHARGES
-----------------------
   0 C :   -0.003004
   1 O :    0.006172
   2 H :   -0.000305
   3 H :   -0.000331
   4 H :   -0.000685
   5 H :   -0.003389
   6 C :   -0.155780
   7 O :   -0.482965
   8 H :    0.315229
   9 H :    0.119195
  10 H :    0.103193
  11 H :    0.102671
Sum of atomic charges:   -0.0000000

LOEWDIN ATOMIC CHARGES
----------------------
   0 C :   -0.009121
   1 O :   -0.013298
   2 H :   -0.001394
   3 H :   -0.000160
   4 H :   -0.000322
   5 H :   -0.002003
   6 C :   -0.384392
   7 O :   -0.053820
   8 H :    0.161396
   9 H :    0.115074
  10 H :    0.095452
  11 H :    0.092588

  Mayer bond orders larger than 0.1
B(  6-C ,  7-O ) :   0.9982 B(  6-C ,  9-H ) :   0.9768 B(  6-C , 10-H ) :   0.9734
B(  6-C , 11-H ) :   0.9731 B(  7-O ,  8-H ) :   0.8955

Dispersion correction           -0.000268739
FINAL SINGLE POINT ENERGY      -115.735054424351

DIPOLE MOMENT
-------------
                                X             Y             Z
Electronic contribution:     -0.91454       0.60385       1.50685
Nuclear contribution   :      1.56934      -0.69735      -1.50021
                        -----------------------------------------
Total Dipole Moment    :      0.65480      -0.09350       0.00664
                        -----------------------------------------
Magnitude (a.u.)       :      0.66147
Magnitude (Debye)      :      1.68133

Rotational constants in cm-1:     4.440851     0.821005     0.786896
Rotational constants in MHz : 133133.365337 24613.122836 23590.541964

                             ****ORCA TERMINATED NORMALLY****
TOTAL RUN TIME: 0 days 0 hours 5 minutes 53 seconds 175 msec
