                         Program Version 4.1.2  - RELEASE  -
|  1> #Run DFT-D3 single point of the dimer
|  2> ! wB97X-D3 def2-TZVP TIGHTSCF CHELPG PMODEL PAL8
|  3>
|  4> %base "21-30_DFT_AB"
|  5>
|  6> %scf
|  7> MaxIter 1000
|  8> end
|  9>
| 10> * xyz 0 1
| 11>   C                      2.453454             1.166860             -5.874115
| 12>   O                      3.686145             1.240109             -5.184784
| 13>   H                      3.920853             2.166736             -5.242162
| 14>   H                      1.624176             1.779049             -5.362332
| 15>   H                      2.542419             1.779453             -6.767790
| 16>   H                      2.112095             0.179773             -6.170195
| 17>   C                      0.091192             -1.749890            -4.539063
| 18>   O                      -0.502179            -0.515485            -4.763093
| 19>   H                      -0.965131            -0.273473            -3.970408
| 20>   H                      -0.308437            -2.259169            -3.681666
| 21>   H                      0.147476             -2.344741            -5.426290
| 22>   H                      1.158647             -1.549646            -4.267280
| 23> *
| 24>
| 25> #Run DFT-D3 single point of the molecule with dimer basis set
| 26> $new_job
| 27> %base "21-30_DFT_A"
| 28> ! wB97X-D3 def2-TZVP TIGHTSCF CHELPG PMODEL
| 29>
| 30> %scf
| 31> MaxIter 1000
| 32> end
| 33>
| 34> * xyz 0 1
| 35>   C                      2.453454             1.166860             -5.874115
| 36>   O                      3.686145             1.240109             -5.184784
| 37>   H                      3.920853             2.166736             -5.242162
| 38>   H                      1.624176             1.779049             -5.362332
| 39>   H                      2.542419             1.779453             -6.767790
| 40>   H                      2.112095             0.179773             -6.170195
| 41>   C                    : 0.091192             -1.749890            -4.539063
| 42>   O                    : -0.502179            -0.515485            -4.763093
| 43>   H                    : -0.965131            -0.273473            -3.970408
| 44>   H                    : -0.308437            -2.259169            -3.681666
| 45>   H                    : 0.147476             -2.344741            -5.426290
| 46>   H                    : 1.158647             -1.549646            -4.267280
| 47> *
| 48>
| 49> #Run DFT-D3 single point of the particle with dimer basis set
| 50> $new_job
| 51> %base "21-30_DFT_B"
| 52> ! wB97X-D3 def2-TZVP TIGHTSCF CHELPG PMODEL
| 53>
| 54> %scf
| 55> MaxIter 1000
| 56> end
| 57>
| 58> * xyz 0 1
| 59>   C                    : 2.453454             1.166860             -5.874115
| 60>   O                    : 3.686145             1.240109             -5.184784
| 61>   H                    : 3.920853             2.166736             -5.242162
| 62>   H                    : 1.624176             1.779049             -5.362332
| 63>   H                    : 2.542419             1.779453             -6.767790
| 64>   H                    : 2.112095             0.179773             -6.170195
| 65>   C                      0.091192             -1.749890            -4.539063
| 66>   O                      -0.502179            -0.515485            -4.763093
| 67>   H                      -0.965131            -0.273473            -3.970408
| 68>   H                      -0.308437            -2.259169            -3.681666
| 69>   H                      0.147476             -2.344741            -5.426290
| 70>   H                      1.158647             -1.549646            -4.267280
| 71> *
| 72>
| 73>                          ****END OF INPUT****
 Total Charge           Charge          ....    0
 Multiplicity           Mult            ....    1
 Number of Electrons    NEL             ....   36
Dispersion correction           -0.001628442
FINAL SINGLE POINT ENERGY      -231.462313852885
Dispersion correction           -0.000230652
FINAL SINGLE POINT ENERGY      -115.728367885704

CARTESIAN COORDINATES (ANGSTROEM)
---------------------------------
  C      2.453454    1.166860   -5.874115
  O      3.686145    1.240109   -5.184784
  H      3.920853    2.166736   -5.242162
  H      1.624176    1.779049   -5.362332
  H      2.542419    1.779453   -6.767790
  H      2.112095    0.179773   -6.170195
  C      0.091192   -1.749890   -4.539063
  O     -0.502179   -0.515485   -4.763093
  H     -0.965131   -0.273473   -3.970408
  H     -0.308437   -2.259169   -3.681666
  H      0.147476   -2.344741   -5.426290
  H      1.158647   -1.549646   -4.267280

 Multiplicity           Mult            ....    1
 Number of Electrons    NEL             ....   18
 Basis Dimension        Dim             ....  172

ORBITAL ENERGIES
----------------

  NO   OCC          E(Eh)            E(eV)
   0   2.0000     -19.228535      -523.2350
   1   2.0000     -10.308682      -280.5135
   2   2.0000      -1.147255       -31.2184
   3   2.0000      -0.796816       -21.6825
   4   2.0000      -0.621239       -16.9048
   5   2.0000      -0.541382       -14.7318
   6   2.0000      -0.532501       -14.4901
   7   2.0000      -0.440540       -11.9877
   8   2.0000      -0.365924        -9.9573
   9   0.0000       0.093427         2.5423
  10   0.0000       0.120471         3.2782
  11   0.0000       0.154425         4.2021
  12   0.0000       0.180402         4.9090
  13   0.0000       0.188472         5.1286

MULLIKEN ATOMIC CHARGES
-----------------------
   0 C :    0.000389
   1 O :   -0.000159
   2 H :   -0.000013
   3 H :   -0.003842
   4 H :   -0.000180
   5 H :    0.002425
   6 C :   -0.170653
   7 O :   -0.464017
   8 H :    0.314121
   9 H :    0.110948
  10 H :    0.119124
  11 H :    0.091858
Sum of atomic charges:    0.0000000

LOEWDIN ATOMIC CHARGES
----------------------
   0 C :   -0.005384
   1 O :   -0.000055
   2 H :   -0.000006
   3 H :   -0.002617
   4 H :   -0.000029
   5 H :   -0.001782
   6 C :   -0.401038
   7 O :   -0.047909
   8 H :    0.165578
   9 H :    0.093024
  10 H :    0.100275
  11 H :    0.099944

  Mayer bond orders larger than 0.1
B(  6-C ,  7-O ) :   1.0034 B(  6-C ,  9-H ) :   0.9808 B(  6-C , 10-H ) :   0.9755
B(  6-C , 11-H ) :   0.9829 B(  7-O ,  8-H ) :   0.9014

Dispersion correction           -0.000224850
FINAL SINGLE POINT ENERGY      -115.732407632843

DIPOLE MOMENT
-------------
                                X             Y             Z
Electronic contribution:     -0.92961       1.50969      -0.47437
Nuclear contribution   :      0.83515      -1.83458       1.08254
                        -----------------------------------------
Total Dipole Moment    :     -0.09446      -0.32489       0.60817
                        -----------------------------------------
Magnitude (a.u.)       :      0.69595
Magnitude (Debye)      :      1.76898

Rotational constants in cm-1:     4.351365     0.864309     0.825892
Rotational constants in MHz : 130450.645367 25911.332428 24759.611699

                             ****ORCA TERMINATED NORMALLY****
TOTAL RUN TIME: 0 days 0 hours 0 minutes 58 seconds 525 msec
