                         Program Version 4.1.2  - RELEASE  -
|  1> #Run DFT-D3 single point of the dimer
|  2> ! wB97X-D3 def2-TZVP TIGHTSCF CHELPG PMODEL PAL8
|  3>
|  4> %base "11-103_DFT_AB"
|  5>
|  6> %scf
|  7> MaxIter 1000
|  8> end
|  9>
| 10> * xyz 0 1
| 11>   C                      -3.641882            -6.013494            -3.653541
| 12>   O                      -3.109496            -5.033797            -2.834084
| 13>   H                      -2.177298            -4.956198            -2.865698
| 14>   H                      -3.149717            -6.980031            -3.450855
| 15>   H                      -4.734627            -6.165777            -3.567122
| 16>   H                      -3.537758            -5.813317            -4.687027
| 17>   C                      -0.783540            -2.851579            -5.279803
| 18>   O                      0.165316             -3.872010            -5.528957
| 19>   H                      -0.106058            -4.265933            -6.371296
| 20>   H                      -1.847360            -3.174461            -5.016422
| 21>   H                      -0.512712            -2.241596            -4.457779
| 22>   H                      -0.964531            -2.237275            -6.136226
| 23> *
| 24>
| 25> #Run DFT-D3 single point of the molecule with dimer basis set
| 26> $new_job
| 27> %base "11-103_DFT_A"
| 28> ! wB97X-D3 def2-TZVP TIGHTSCF CHELPG PMODEL
| 29>
| 30> %scf
| 31> MaxIter 1000
| 32> end
| 33>
| 34> * xyz 0 1
| 35>   C                      -3.641882            -6.013494            -3.653541
| 36>   O                      -3.109496            -5.033797            -2.834084
| 37>   H                      -2.177298            -4.956198            -2.865698
| 38>   H                      -3.149717            -6.980031            -3.450855
| 39>   H                      -4.734627            -6.165777            -3.567122
| 40>   H                      -3.537758            -5.813317            -4.687027
| 41>   C                    : -0.783540            -2.851579            -5.279803
| 42>   O                    : 0.165316             -3.872010            -5.528957
| 43>   H                    : -0.106058            -4.265933            -6.371296
| 44>   H                    : -1.847360            -3.174461            -5.016422
| 45>   H                    : -0.512712            -2.241596            -4.457779
| 46>   H                    : -0.964531            -2.237275            -6.136226
| 47> *
| 48>
| 49> #Run DFT-D3 single point of the particle with dimer basis set
| 50> $new_job
| 51> %base "11-103_DFT_B"
| 52> ! wB97X-D3 def2-TZVP TIGHTSCF CHELPG PMODEL
| 53>
| 54> %scf
| 55> MaxIter 1000
| 56> end
| 57>
| 58> * xyz 0 1
| 59>   C                    : -3.641882            -6.013494            -3.653541
| 60>   O                    : -3.109496            -5.033797            -2.834084
| 61>   H                    : -2.177298            -4.956198            -2.865698
| 62>   H                    : -3.149717            -6.980031            -3.450855
| 63>   H                    : -4.734627            -6.165777            -3.567122
| 64>   H                    : -3.537758            -5.813317            -4.687027
| 65>   C                      -0.783540            -2.851579            -5.279803
| 66>   O                      0.165316             -3.872010            -5.528957
| 67>   H                      -0.106058            -4.265933            -6.371296
| 68>   H                      -1.847360            -3.174461            -5.016422
| 69>   H                      -0.512712            -2.241596            -4.457779
| 70>   H                      -0.964531            -2.237275            -6.136226
| 71> *
| 72>
| 73>                          ****END OF INPUT****
 Total Charge           Charge          ....    0
 Multiplicity           Mult            ....    1
 Number of Electrons    NEL             ....   36
Dispersion correction           -0.001445927
FINAL SINGLE POINT ENERGY      -231.466016942103
Dispersion correction           -0.000242879
FINAL SINGLE POINT ENERGY      -115.731952885303

CARTESIAN COORDINATES (ANGSTROEM)
---------------------------------
  C     -3.641882   -6.013494   -3.653541
  O     -3.109496   -5.033797   -2.834084
  H     -2.177298   -4.956198   -2.865698
  H     -3.149717   -6.980031   -3.450855
  H     -4.734627   -6.165777   -3.567122
  H     -3.537758   -5.813317   -4.687027
  C     -0.783540   -2.851579   -5.279803
  O      0.165316   -3.872010   -5.528957
  H     -0.106058   -4.265933   -6.371296
  H     -1.847360   -3.174461   -5.016422
  H     -0.512712   -2.241596   -4.457779
  H     -0.964531   -2.237275   -6.136226

 Multiplicity           Mult            ....    1
 Number of Electrons    NEL             ....   18
 Basis Dimension        Dim             ....  172

ORBITAL ENERGIES
----------------

  NO   OCC          E(Eh)            E(eV)
   0   2.0000     -19.237104      -523.4682
   1   2.0000     -10.312189      -280.6089
   2   2.0000      -1.138516       -30.9806
   3   2.0000      -0.798171       -21.7193
   4   2.0000      -0.615642       -16.7525
   5   2.0000      -0.537575       -14.6282
   6   2.0000      -0.524473       -14.2716
   7   2.0000      -0.444467       -12.0946
   8   2.0000      -0.372887       -10.1468
   9   0.0000       0.084213         2.2915
  10   0.0000       0.120339         3.2746
  11   0.0000       0.148470         4.0401
  12   0.0000       0.172000         4.6804
  13   0.0000       0.188135         5.1194

MULLIKEN ATOMIC CHARGES
-----------------------
   0 C :   -0.000443
   1 O :   -0.000063
   2 H :    0.000785
   3 H :   -0.000040
   4 H :    0.000105
   5 H :    0.000415
   6 C :   -0.180696
   7 O :   -0.464268
   8 H :    0.317016
   9 H :    0.086411
  10 H :    0.127239
  11 H :    0.113539
Sum of atomic charges:   -0.0000000

LOEWDIN ATOMIC CHARGES
----------------------
   0 C :   -0.001118
   1 O :   -0.000828
   2 H :   -0.001059
   3 H :   -0.000015
   4 H :   -0.000005
   5 H :   -0.000430
   6 C :   -0.391598
   7 O :   -0.074260
   8 H :    0.177765
   9 H :    0.100160
  10 H :    0.101121
  11 H :    0.090267

  Mayer bond orders larger than 0.1
B(  6-C ,  7-O ) :   1.0051 B(  6-C ,  9-H ) :   0.9671 B(  6-C , 10-H ) :   0.9771
B(  6-C , 11-H ) :   0.9794 B(  7-O ,  8-H ) :   0.8986

Dispersion correction           -0.000253052
FINAL SINGLE POINT ENERGY      -115.731931668139

DIPOLE MOMENT
-------------
                                X             Y             Z
Electronic contribution:      1.49770      -1.31419      -0.19606
Nuclear contribution   :     -2.01395       1.48406      -0.24195
                        -----------------------------------------
Total Dipole Moment    :     -0.51625       0.16988      -0.43801
                        -----------------------------------------
Magnitude (a.u.)       :      0.69801
Magnitude (Debye)      :      1.77420

Rotational constants in cm-1:     4.441617     0.822569     0.788500
Rotational constants in MHz : 133156.321451 24659.997581 23638.648422

                             ****ORCA TERMINATED NORMALLY****
TOTAL RUN TIME: 0 days 0 hours 1 minutes 9 seconds 350 msec
