                         Program Version 4.1.2  - RELEASE  -
|  1> #Run DFT-D3 single point of the dimer
|  2> ! wB97X-D3 def2-TZVP TIGHTSCF CHELPG PMODEL PAL8
|  3>
|  4> %base "10-215_DFT_AB"
|  5>
|  6> %scf
|  7> MaxIter 1000
|  8> end
|  9>
| 10> * xyz 0 1
| 11>   C                      3.390229             -8.763379            8.206568
| 12>   O                      2.293317             -8.817549            7.273787
| 13>   H                      1.603742             -8.200066            7.583275
| 14>   H                      4.340334             -8.858161            7.725690
| 15>   H                      3.457738             -7.764749            8.617547
| 16>   H                      3.260541             -9.496691            9.021267
| 17>   C                      -1.127336            -8.188090            8.830776
| 18>   O                      0.151916             -7.554381            8.881868
| 19>   H                      0.216524             -7.154143            9.758753
| 20>   H                      -1.421421            -8.456236            7.863058
| 21>   H                      -1.088603            -9.130472            9.395279
| 22>   H                      -1.917124            -7.528121            9.271496
| 23> *
| 24>
| 25> #Run DFT-D3 single point of the molecule with dimer basis set
| 26> $new_job
| 27> %base "10-215_DFT_A"
| 28> ! wB97X-D3 def2-TZVP TIGHTSCF CHELPG PMODEL
| 29>
| 30> %scf
| 31> MaxIter 1000
| 32> end
| 33>
| 34> * xyz 0 1
| 35>   C                      3.390229             -8.763379            8.206568
| 36>   O                      2.293317             -8.817549            7.273787
| 37>   H                      1.603742             -8.200066            7.583275
| 38>   H                      4.340334             -8.858161            7.725690
| 39>   H                      3.457738             -7.764749            8.617547
| 40>   H                      3.260541             -9.496691            9.021267
| 41>   C                    : -1.127336            -8.188090            8.830776
| 42>   O                    : 0.151916             -7.554381            8.881868
| 43>   H                    : 0.216524             -7.154143            9.758753
| 44>   H                    : -1.421421            -8.456236            7.863058
| 45>   H                    : -1.088603            -9.130472            9.395279
| 46>   H                    : -1.917124            -7.528121            9.271496
| 47> *
| 48>
| 49> #Run DFT-D3 single point of the particle with dimer basis set
| 50> $new_job
| 51> %base "10-215_DFT_B"
| 52> ! wB97X-D3 def2-TZVP TIGHTSCF CHELPG PMODEL
| 53>
| 54> %scf
| 55> MaxIter 1000
| 56> end
| 57>
| 58> * xyz 0 1
| 59>   C                    : 3.390229             -8.763379            8.206568
| 60>   O                    : 2.293317             -8.817549            7.273787
| 61>   H                    : 1.603742             -8.200066            7.583275
| 62>   H                    : 4.340334             -8.858161            7.725690
| 63>   H                    : 3.457738             -7.764749            8.617547
| 64>   H                    : 3.260541             -9.496691            9.021267
| 65>   C                      -1.127336            -8.188090            8.830776
| 66>   O                      0.151916             -7.554381            8.881868
| 67>   H                      0.216524             -7.154143            9.758753
| 68>   H                      -1.421421            -8.456236            7.863058
| 69>   H                      -1.088603            -9.130472            9.395279
| 70>   H                      -1.917124            -7.528121            9.271496
| 71> *
| 72>
| 73>                          ****END OF INPUT****
 Total Charge           Charge          ....    0
 Multiplicity           Mult            ....    1
 Number of Electrons    NEL             ....   36
Dispersion correction           -0.001739429
FINAL SINGLE POINT ENERGY      -231.475762451048
Dispersion correction           -0.000250861
FINAL SINGLE POINT ENERGY      -115.733782386218

CARTESIAN COORDINATES (ANGSTROEM)
---------------------------------
  C      3.390229   -8.763379    8.206568
  O      2.293317   -8.817549    7.273787
  H      1.603742   -8.200066    7.583275
  H      4.340334   -8.858161    7.725690
  H      3.457738   -7.764749    8.617547
  H      3.260541   -9.496691    9.021267
  C     -1.127336   -8.188090    8.830776
  O      0.151916   -7.554381    8.881868
  H      0.216524   -7.154143    9.758753
  H     -1.421421   -8.456236    7.863058
  H     -1.088603   -9.130472    9.395279
  H     -1.917124   -7.528121    9.271496

 Multiplicity           Mult            ....    1
 Number of Electrons    NEL             ....   18
 Basis Dimension        Dim             ....  172

ORBITAL ENERGIES
----------------

  NO   OCC          E(Eh)            E(eV)
   0   2.0000     -19.231783      -523.3234
   1   2.0000     -10.313016      -280.6314
   2   2.0000      -1.132232       -30.8096
   3   2.0000      -0.797678       -21.7059
   4   2.0000      -0.604975       -16.4622
   5   2.0000      -0.538882       -14.6637
   6   2.0000      -0.535007       -14.5583
   7   2.0000      -0.436675       -11.8825
   8   2.0000      -0.373340       -10.1591
   9   0.0000       0.097566         2.6549
  10   0.0000       0.124981         3.4009
  11   0.0000       0.152929         4.1614
  12   0.0000       0.187006         5.0887
  13   0.0000       0.196169         5.3380

MULLIKEN ATOMIC CHARGES
-----------------------
   0 C :   -0.000674
   1 O :    0.000118
   2 H :   -0.005786
   3 H :   -0.000410
   4 H :   -0.001828
   5 H :   -0.000908
   6 C :   -0.160408
   7 O :   -0.469537
   8 H :    0.314787
   9 H :    0.121415
  10 H :    0.101258
  11 H :    0.101973
Sum of atomic charges:    0.0000000

LOEWDIN ATOMIC CHARGES
----------------------
   0 C :   -0.005370
   1 O :   -0.003990
   2 H :   -0.030851
   3 H :   -0.000103
   4 H :   -0.000856
   5 H :   -0.000475
   6 C :   -0.369115
   7 O :   -0.057371
   8 H :    0.173141
   9 H :    0.095272
  10 H :    0.097016
  11 H :    0.102702

  Mayer bond orders larger than 0.1
B(  6-C ,  7-O ) :   0.9900 B(  6-C ,  9-H ) :   0.9765 B(  6-C , 10-H ) :   0.9768
B(  6-C , 11-H ) :   0.9751 B(  7-O ,  8-H ) :   0.8976

Dispersion correction           -0.000237922
FINAL SINGLE POINT ENERGY      -115.734334450447

DIPOLE MOMENT
-------------
                                X             Y             Z
Electronic contribution:      1.65152       0.77971      -0.18391
Nuclear contribution   :     -2.14271      -0.78652       0.69601
                        -----------------------------------------
Total Dipole Moment    :     -0.49119      -0.00682       0.51210
                        -----------------------------------------
Magnitude (a.u.)       :      0.70962
Magnitude (Debye)      :      1.80370

Rotational constants in cm-1:     4.311077     0.818332     0.790668
Rotational constants in MHz : 129242.841565 24532.963841 23703.616610

                             ****ORCA TERMINATED NORMALLY****
TOTAL RUN TIME: 0 days 0 hours 1 minutes 7 seconds 569 msec
