                         Program Version 4.1.2  - RELEASE  -
|  1> #Run DFT-D3 single point of the dimer
|  2> ! wB97X-D3 def2-TZVP TIGHTSCF CHELPG PMODEL PAL8
|  3>
|  4> %base "19-110_DFT_AB"
|  5>
|  6> %scf
|  7> MaxIter 1000
|  8> end
|  9>
| 10> * xyz 0 1
| 11>   C                      6.485865             6.830318             0.457606
| 12>   O                      6.958456             6.355031             -0.794069
| 13>   H                      7.907226             6.370384             -0.741623
| 14>   H                      6.882538             7.854793             0.749982
| 15>   H                      5.409756             6.912721             0.368214
| 16>   H                      6.865832             6.186334             1.267891
| 17>   C                      9.562394             5.317390             -3.527046
| 18>   O                      8.176050             5.117132             -3.243014
| 19>   H                      7.870844             5.866545             -2.744694
| 20>   H                      9.716728             5.812961             -4.484793
| 21>   H                      10.097111            5.912034             -2.712506
| 22>   H                      10.143364            4.380377             -3.546100
| 23> *
| 24>
| 25> #Run DFT-D3 single point of the molecule with dimer basis set
| 26> $new_job
| 27> %base "19-110_DFT_A"
| 28> ! wB97X-D3 def2-TZVP TIGHTSCF CHELPG PMODEL
| 29>
| 30> %scf
| 31> MaxIter 1000
| 32> end
| 33>
| 34> * xyz 0 1
| 35>   C                      6.485865             6.830318             0.457606
| 36>   O                      6.958456             6.355031             -0.794069
| 37>   H                      7.907226             6.370384             -0.741623
| 38>   H                      6.882538             7.854793             0.749982
| 39>   H                      5.409756             6.912721             0.368214
| 40>   H                      6.865832             6.186334             1.267891
| 41>   C                    : 9.562394             5.317390             -3.527046
| 42>   O                    : 8.176050             5.117132             -3.243014
| 43>   H                    : 7.870844             5.866545             -2.744694
| 44>   H                    : 9.716728             5.812961             -4.484793
| 45>   H                    : 10.097111            5.912034             -2.712506
| 46>   H                    : 10.143364            4.380377             -3.546100
| 47> *
| 48>
| 49> #Run DFT-D3 single point of the particle with dimer basis set
| 50> $new_job
| 51> %base "19-110_DFT_B"
| 52> ! wB97X-D3 def2-TZVP TIGHTSCF CHELPG PMODEL
| 53>
| 54> %scf
| 55> MaxIter 1000
| 56> end
| 57>
| 58> * xyz 0 1
| 59>   C                    : 6.485865             6.830318             0.457606
| 60>   O                    : 6.958456             6.355031             -0.794069
| 61>   H                    : 7.907226             6.370384             -0.741623
| 62>   H                    : 6.882538             7.854793             0.749982
| 63>   H                    : 5.409756             6.912721             0.368214
| 64>   H                    : 6.865832             6.186334             1.267891
| 65>   C                      9.562394             5.317390             -3.527046
| 66>   O                      8.176050             5.117132             -3.243014
| 67>   H                      7.870844             5.866545             -2.744694
| 68>   H                      9.716728             5.812961             -4.484793
| 69>   H                      10.097111            5.912034             -2.712506
| 70>   H                      10.143364            4.380377             -3.546100
| 71> *
| 72>
| 73>                          ****END OF INPUT****
 Total Charge           Charge          ....    0
 Multiplicity           Mult            ....    1
 Number of Electrons    NEL             ....   36
Dispersion correction           -0.001432634
FINAL SINGLE POINT ENERGY      -231.469516789871
Dispersion correction           -0.000238402
FINAL SINGLE POINT ENERGY      -115.734420018522

CARTESIAN COORDINATES (ANGSTROEM)
---------------------------------
  C      6.485865    6.830318    0.457606
  O      6.958456    6.355031   -0.794069
  H      7.907226    6.370384   -0.741623
  H      6.882538    7.854793    0.749982
  H      5.409756    6.912721    0.368214
  H      6.865832    6.186334    1.267891
  C      9.562394    5.317390   -3.527046
  O      8.176050    5.117132   -3.243014
  H      7.870844    5.866545   -2.744694
  H      9.716728    5.812961   -4.484793
  H     10.097111    5.912034   -2.712506
  H     10.143364    4.380377   -3.546100

 Multiplicity           Mult            ....    1
 Number of Electrons    NEL             ....   18
 Basis Dimension        Dim             ....  172

ORBITAL ENERGIES
----------------

  NO   OCC          E(Eh)            E(eV)
   0   2.0000     -19.232951      -523.3552
   1   2.0000     -10.320523      -280.8357
   2   2.0000      -1.135256       -30.8919
   3   2.0000      -0.794800       -21.6276
   4   2.0000      -0.608650       -16.5622
   5   2.0000      -0.541356       -14.7310
   6   2.0000      -0.524728       -14.2786
   7   2.0000      -0.430483       -11.7140
   8   2.0000      -0.378045       -10.2871
   9   0.0000       0.077098         2.0979
  10   0.0000       0.122231         3.3261
  11   0.0000       0.148028         4.0281
  12   0.0000       0.180526         4.9123
  13   0.0000       0.194451         5.2913

MULLIKEN ATOMIC CHARGES
-----------------------
   0 C :    0.000397
   1 O :   -0.001835
   2 H :   -0.006224
   3 H :   -0.000061
   4 H :    0.000092
   5 H :   -0.000119
   6 C :   -0.178624
   7 O :   -0.465345
   8 H :    0.316385
   9 H :    0.113148
  10 H :    0.102868
  11 H :    0.119318
Sum of atomic charges:    0.0000000

LOEWDIN ATOMIC CHARGES
----------------------
   0 C :   -0.000436
   1 O :   -0.010471
   2 H :   -0.006172
   3 H :   -0.000011
   4 H :   -0.000014
   5 H :   -0.000018
   6 C :   -0.382342
   7 O :   -0.072245
   8 H :    0.165995
   9 H :    0.094684
  10 H :    0.104205
  11 H :    0.106825

  Mayer bond orders larger than 0.1
B(  6-C ,  7-O ) :   1.0017 B(  6-C ,  9-H ) :   0.9767 B(  6-C , 10-H ) :   0.9764
B(  6-C , 11-H ) :   0.9700 B(  7-O ,  8-H ) :   0.9014

Dispersion correction           -0.000266495
FINAL SINGLE POINT ENERGY      -115.734263702782

DIPOLE MOMENT
-------------
                                X             Y             Z
Electronic contribution:     -1.86669      -0.40900       0.22636
Nuclear contribution   :      2.24192       0.94945      -0.02185
                        -----------------------------------------
Total Dipole Moment    :      0.37524       0.54045       0.20451
                        -----------------------------------------
Magnitude (a.u.)       :      0.68899
Magnitude (Debye)      :      1.75128

Rotational constants in cm-1:     4.288305     0.804631     0.780065
Rotational constants in MHz : 128560.150122 24122.242590 23385.747526

                             ****ORCA TERMINATED NORMALLY****
TOTAL RUN TIME: 0 days 0 hours 0 minutes 51 seconds 302 msec
