                         Program Version 4.1.2  - RELEASE  -
|  1> #Run DFT-D3 single point of the dimer
|  2> ! wB97X-D3 def2-TZVP TIGHTSCF CHELPG PMODEL PAL8
|  3>
|  4> %base "15-184_DFT_AB"
|  5>
|  6> %scf
|  7> MaxIter 1000
|  8> end
|  9>
| 10> * xyz 0 1
| 11>   C                      3.366093             -10.940227           -3.825466
| 12>   O                      2.868335             -11.125786           -5.126848
| 13>   H                      2.782405             -10.195988           -5.464540
| 14>   H                      4.240190             -10.271553           -3.892392
| 15>   H                      2.612489             -10.513048           -3.150601
| 16>   H                      3.802309             -11.877141           -3.413594
| 17>   C                      -0.145492            -9.053850            -3.804364
| 18>   O                      -0.466797            -10.364534           -4.106128
| 19>   H                      0.295671             -10.843949           -4.484534
| 20>   H                      0.657148             -8.917143            -3.102344
| 21>   H                      0.162127             -8.366978            -4.569221
| 22>   H                      -0.952246            -8.517006            -3.237953
| 23> *
| 24>
| 25> #Run DFT-D3 single point of the molecule with dimer basis set
| 26> $new_job
| 27> %base "15-184_DFT_A"
| 28> ! wB97X-D3 def2-TZVP TIGHTSCF CHELPG PMODEL
| 29>
| 30> %scf
| 31> MaxIter 1000
| 32> end
| 33>
| 34> * xyz 0 1
| 35>   C                      3.366093             -10.940227           -3.825466
| 36>   O                      2.868335             -11.125786           -5.126848
| 37>   H                      2.782405             -10.195988           -5.464540
| 38>   H                      4.240190             -10.271553           -3.892392
| 39>   H                      2.612489             -10.513048           -3.150601
| 40>   H                      3.802309             -11.877141           -3.413594
| 41>   C                    : -0.145492            -9.053850            -3.804364
| 42>   O                    : -0.466797            -10.364534           -4.106128
| 43>   H                    : 0.295671             -10.843949           -4.484534
| 44>   H                    : 0.657148             -8.917143            -3.102344
| 45>   H                    : 0.162127             -8.366978            -4.569221
| 46>   H                    : -0.952246            -8.517006            -3.237953
| 47> *
| 48>
| 49> #Run DFT-D3 single point of the particle with dimer basis set
| 50> $new_job
| 51> %base "15-184_DFT_B"
| 52> ! wB97X-D3 def2-TZVP TIGHTSCF CHELPG PMODEL
| 53>
| 54> %scf
| 55> MaxIter 1000
| 56> end
| 57>
| 58> * xyz 0 1
| 59>   C                    : 3.366093             -10.940227           -3.825466
| 60>   O                    : 2.868335             -11.125786           -5.126848
| 61>   H                    : 2.782405             -10.195988           -5.464540
| 62>   H                    : 4.240190             -10.271553           -3.892392
| 63>   H                    : 2.612489             -10.513048           -3.150601
| 64>   H                    : 3.802309             -11.877141           -3.413594
| 65>   C                      -0.145492            -9.053850            -3.804364
| 66>   O                      -0.466797            -10.364534           -4.106128
| 67>   H                      0.295671             -10.843949           -4.484534
| 68>   H                      0.657148             -8.917143            -3.102344
| 69>   H                      0.162127             -8.366978            -4.569221
| 70>   H                      -0.952246            -8.517006            -3.237953
| 71> *
| 72>
| 73>                          ****END OF INPUT****
 Total Charge           Charge          ....    0
 Multiplicity           Mult            ....    1
 Number of Electrons    NEL             ....   36
Dispersion correction           -0.002111126
FINAL SINGLE POINT ENERGY      -231.467210449028
Dispersion correction           -0.000223172
FINAL SINGLE POINT ENERGY      -115.733590222721

CARTESIAN COORDINATES (ANGSTROEM)
---------------------------------
  C      3.366093  -10.940227   -3.825466
  O      2.868335  -11.125786   -5.126848
  H      2.782405  -10.195988   -5.464540
  H      4.240190  -10.271553   -3.892392
  H      2.612489  -10.513048   -3.150601
  H      3.802309  -11.877141   -3.413594
  C     -0.145492   -9.053850   -3.804364
  O     -0.466797  -10.364534   -4.106128
  H      0.295671  -10.843949   -4.484534
  H      0.657148   -8.917143   -3.102344
  H      0.162127   -8.366978   -4.569221
  H     -0.952246   -8.517006   -3.237953

 Multiplicity           Mult            ....    1
 Number of Electrons    NEL             ....   18
 Basis Dimension        Dim             ....  172

ORBITAL ENERGIES
----------------

  NO   OCC          E(Eh)            E(eV)
   0   2.0000     -19.238663      -523.5106
   1   2.0000     -10.308762      -280.5157
   2   2.0000      -1.143983       -31.1293
   3   2.0000      -0.800771       -21.7901
   4   2.0000      -0.626888       -17.0585
   5   2.0000      -0.537677       -14.6309
   6   2.0000      -0.527439       -14.3523
   7   2.0000      -0.427908       -11.6440
   8   2.0000      -0.374706       -10.1963
   9   0.0000       0.070526         1.9191
  10   0.0000       0.134383         3.6568
  11   0.0000       0.142199         3.8694
  12   0.0000       0.165694         4.5088
  13   0.0000       0.191906         5.2220

MULLIKEN ATOMIC CHARGES
-----------------------
   0 C :   -0.002331
   1 O :   -0.000556
   2 H :   -0.000151
   3 H :    0.000061
   4 H :    0.001453
   5 H :    0.000082
   6 C :   -0.173201
   7 O :   -0.468205
   8 H :    0.321738
   9 H :    0.097140
  10 H :    0.104143
  11 H :    0.119828
Sum of atomic charges:    0.0000000

LOEWDIN ATOMIC CHARGES
----------------------
   0 C :   -0.003760
   1 O :   -0.002465
   2 H :   -0.000893
   3 H :   -0.000034
   4 H :   -0.003045
   5 H :   -0.000020
   6 C :   -0.422586
   7 O :   -0.047997
   8 H :    0.183897
   9 H :    0.090259
  10 H :    0.089460
  11 H :    0.117186

  Mayer bond orders larger than 0.1
B(  6-C ,  7-O ) :   1.0128 B(  6-C ,  9-H ) :   0.9749 B(  6-C , 10-H ) :   0.9721
B(  6-C , 11-H ) :   0.9751 B(  7-O ,  8-H ) :   0.8931

Dispersion correction           -0.000267823
FINAL SINGLE POINT ENERGY      -115.729142538835

DIPOLE MOMENT
-------------
                                X             Y             Z
Electronic contribution:     -0.58443      -1.90691      -0.53209
Nuclear contribution   :      1.21005       2.09404       0.41846
                        -----------------------------------------
Total Dipole Moment    :      0.62562       0.18712      -0.11363
                        -----------------------------------------
Magnitude (a.u.)       :      0.66282
Magnitude (Debye)      :      1.68475

Rotational constants in cm-1:     4.668697     0.836318     0.801388
Rotational constants in MHz : 139964.022702 25072.190236 24025.011524

                             ****ORCA TERMINATED NORMALLY****
TOTAL RUN TIME: 0 days 0 hours 1 minutes 7 seconds 643 msec
