                         Program Version 4.1.2  - RELEASE  -
|  1> #Run DFT-D3 single point of the dimer
|  2> ! wB97X-D3 def2-TZVP TIGHTSCF CHELPG PMODEL PAL8
|  3>
|  4> %base "15-55_DFT_AB"
|  5>
|  6> %scf
|  7> MaxIter 1000
|  8> end
|  9>
| 10> * xyz 0 1
| 11>   C                      6.149197             0.279348             -9.433511
| 12>   O                      5.689921             -0.889510            -10.169131
| 13>   H                      5.935280             -1.668389            -9.656727
| 14>   H                      7.211657             0.500550             -9.393534
| 15>   H                      5.712407             1.245952             -9.815995
| 16>   H                      5.875382             0.154037             -8.369263
| 17>   C                      6.194540             -5.022691            -9.127358
| 18>   O                      5.897896             -3.702648            -8.676208
| 19>   H                      6.666029             -3.206236            -8.325527
| 20>   H                      6.959533             -5.437600            -8.442015
| 21>   H                      5.310719             -5.662027            -9.209727
| 22>   H                      6.578487             -4.900398            -10.130770
| 23> *
| 24>
| 25> #Run DFT-D3 single point of the molecule with dimer basis set
| 26> $new_job
| 27> %base "15-55_DFT_A"
| 28> ! wB97X-D3 def2-TZVP TIGHTSCF CHELPG PMODEL
| 29>
| 30> %scf
| 31> MaxIter 1000
| 32> end
| 33>
| 34> * xyz 0 1
| 35>   C                      6.149197             0.279348             -9.433511
| 36>   O                      5.689921             -0.889510            -10.169131
| 37>   H                      5.935280             -1.668389            -9.656727
| 38>   H                      7.211657             0.500550             -9.393534
| 39>   H                      5.712407             1.245952             -9.815995
| 40>   H                      5.875382             0.154037             -8.369263
| 41>   C                    : 6.194540             -5.022691            -9.127358
| 42>   O                    : 5.897896             -3.702648            -8.676208
| 43>   H                    : 6.666029             -3.206236            -8.325527
| 44>   H                    : 6.959533             -5.437600            -8.442015
| 45>   H                    : 5.310719             -5.662027            -9.209727
| 46>   H                    : 6.578487             -4.900398            -10.130770
| 47> *
| 48>
| 49> #Run DFT-D3 single point of the particle with dimer basis set
| 50> $new_job
| 51> %base "15-55_DFT_B"
| 52> ! wB97X-D3 def2-TZVP TIGHTSCF CHELPG PMODEL
| 53>
| 54> %scf
| 55> MaxIter 1000
| 56> end
| 57>
| 58> * xyz 0 1
| 59>   C                    : 6.149197             0.279348             -9.433511
| 60>   O                    : 5.689921             -0.889510            -10.169131
| 61>   H                    : 5.935280             -1.668389            -9.656727
| 62>   H                    : 7.211657             0.500550             -9.393534
| 63>   H                    : 5.712407             1.245952             -9.815995
| 64>   H                    : 5.875382             0.154037             -8.369263
| 65>   C                      6.194540             -5.022691            -9.127358
| 66>   O                      5.897896             -3.702648            -8.676208
| 67>   H                      6.666029             -3.206236            -8.325527
| 68>   H                      6.959533             -5.437600            -8.442015
| 69>   H                      5.310719             -5.662027            -9.209727
| 70>   H                      6.578487             -4.900398            -10.130770
| 71> *
| 72>
| 73>                          ****END OF INPUT****
 Total Charge           Charge          ....    0
 Multiplicity           Mult            ....    1
 Number of Electrons    NEL             ....   36
Dispersion correction           -0.001450960
FINAL SINGLE POINT ENERGY      -231.465179440453
Dispersion correction           -0.000278538
FINAL SINGLE POINT ENERGY      -115.730721287887

CARTESIAN COORDINATES (ANGSTROEM)
---------------------------------
  C      6.149197    0.279348   -9.433511
  O      5.689921   -0.889510  -10.169131
  H      5.935280   -1.668389   -9.656727
  H      7.211657    0.500550   -9.393534
  H      5.712407    1.245952   -9.815995
  H      5.875382    0.154037   -8.369263
  C      6.194540   -5.022691   -9.127358
  O      5.897896   -3.702648   -8.676208
  H      6.666029   -3.206236   -8.325527
  H      6.959533   -5.437600   -8.442015
  H      5.310719   -5.662027   -9.209727
  H      6.578487   -4.900398  -10.130770

 Multiplicity           Mult            ....    1
 Number of Electrons    NEL             ....   18
 Basis Dimension        Dim             ....  172

ORBITAL ENERGIES
----------------

  NO   OCC          E(Eh)            E(eV)
   0   2.0000     -19.225118      -523.1421
   1   2.0000     -10.315144      -280.6893
   2   2.0000      -1.123260       -30.5655
   3   2.0000      -0.795510       -21.6469
   4   2.0000      -0.601906       -16.3787
   5   2.0000      -0.543201       -14.7812
   6   2.0000      -0.534408       -14.5420
   7   2.0000      -0.421610       -11.4726
   8   2.0000      -0.368327       -10.0227
   9   0.0000       0.086918         2.3652
  10   0.0000       0.122124         3.3232
  11   0.0000       0.153509         4.1772
  12   0.0000       0.180363         4.9079
  13   0.0000       0.199291         5.4230

MULLIKEN ATOMIC CHARGES
-----------------------
   0 C :    0.001519
   1 O :    0.004456
   2 H :   -0.023802
   3 H :   -0.000025
   4 H :   -0.000022
   5 H :   -0.000219
   6 C :   -0.152911
   7 O :   -0.487529
   8 H :    0.324980
   9 H :    0.104040
  10 H :    0.121980
  11 H :    0.107534
Sum of atomic charges:    0.0000000

LOEWDIN ATOMIC CHARGES
----------------------
   0 C :   -0.000564
   1 O :   -0.002531
   2 H :   -0.024207
   3 H :   -0.000016
   4 H :   -0.000008
   5 H :   -0.000092
   6 C :   -0.368763
   7 O :   -0.086492
   8 H :    0.180032
   9 H :    0.100394
  10 H :    0.107669
  11 H :    0.094577

  Mayer bond orders larger than 0.1
B(  6-C ,  7-O ) :   0.9876 B(  6-C ,  9-H ) :   0.9816 B(  6-C , 10-H ) :   0.9675
B(  6-C , 11-H ) :   0.9822 B(  7-O ,  8-H ) :   0.8853

Dispersion correction           -0.000241772
FINAL SINGLE POINT ENERGY      -115.731654610605

DIPOLE MOMENT
-------------
                                X             Y             Z
Electronic contribution:     -0.53741       1.48148       0.55249
Nuclear contribution   :      1.15741      -1.73870      -0.51301
                        -----------------------------------------
Total Dipole Moment    :      0.62000      -0.25722       0.03948
                        -----------------------------------------
Magnitude (a.u.)       :      0.67240
Magnitude (Debye)      :      1.70912

Rotational constants in cm-1:     4.272901     0.820179     0.789270
Rotational constants in MHz : 128098.339374 24588.360134 23661.715843

                             ****ORCA TERMINATED NORMALLY****
TOTAL RUN TIME: 0 days 0 hours 0 minutes 56 seconds 80 msec
