                         Program Version 4.1.2  - RELEASE  -
|  1> #Run DFT-D3 single point of the dimer
|  2> ! wB97X-D3 def2-TZVP TIGHTSCF CHELPG PMODEL PAL8
|  3>
|  4> %base "17-49_DFT_AB"
|  5>
|  6> %scf
|  7> MaxIter 1000
|  8> end
|  9>
| 10> * xyz 0 1
| 11>   C                      8.855435             2.500085             -1.398292
| 12>   O                      8.460156             1.355056             -0.672985
| 13>   H                      9.255421             1.118995             -0.121987
| 14>   H                      9.214119             3.364614             -0.741264
| 15>   H                      9.646805             2.202095             -2.062144
| 16>   H                      8.024161             2.826217             -2.019382
| 17>   C                      10.184271            -2.915006            -1.302727
| 18>   O                      10.829222            -4.170908            -1.493779
| 19>   H                      11.709887            -4.163687            -1.226007
| 20>   H                      10.399975            -2.493075            -0.325433
| 21>   H                      10.460095            -2.159263            -1.976337
| 22>   H                      9.088234             -2.966465            -1.254846
| 23> *
| 24>
| 25> #Run DFT-D3 single point of the molecule with dimer basis set
| 26> $new_job
| 27> %base "17-49_DFT_A"
| 28> ! wB97X-D3 def2-TZVP TIGHTSCF CHELPG PMODEL
| 29>
| 30> %scf
| 31> MaxIter 1000
| 32> end
| 33>
| 34> * xyz 0 1
| 35>   C                      8.855435             2.500085             -1.398292
| 36>   O                      8.460156             1.355056             -0.672985
| 37>   H                      9.255421             1.118995             -0.121987
| 38>   H                      9.214119             3.364614             -0.741264
| 39>   H                      9.646805             2.202095             -2.062144
| 40>   H                      8.024161             2.826217             -2.019382
| 41>   C                    : 10.184271            -2.915006            -1.302727
| 42>   O                    : 10.829222            -4.170908            -1.493779
| 43>   H                    : 11.709887            -4.163687            -1.226007
| 44>   H                    : 10.399975            -2.493075            -0.325433
| 45>   H                    : 10.460095            -2.159263            -1.976337
| 46>   H                    : 9.088234             -2.966465            -1.254846
| 47> *
| 48>
| 49> #Run DFT-D3 single point of the particle with dimer basis set
| 50> $new_job
| 51> %base "17-49_DFT_B"
| 52> ! wB97X-D3 def2-TZVP TIGHTSCF CHELPG PMODEL
| 53>
| 54> %scf
| 55> MaxIter 1000
| 56> end
| 57>
| 58> * xyz 0 1
| 59>   C                    : 8.855435             2.500085             -1.398292
| 60>   O                    : 8.460156             1.355056             -0.672985
| 61>   H                    : 9.255421             1.118995             -0.121987
| 62>   H                    : 9.214119             3.364614             -0.741264
| 63>   H                    : 9.646805             2.202095             -2.062144
| 64>   H                    : 8.024161             2.826217             -2.019382
| 65>   C                      10.184271            -2.915006            -1.302727
| 66>   O                      10.829222            -4.170908            -1.493779
| 67>   H                      11.709887            -4.163687            -1.226007
| 68>   H                      10.399975            -2.493075            -0.325433
| 69>   H                      10.460095            -2.159263            -1.976337
| 70>   H                      9.088234             -2.966465            -1.254846
| 71> *
| 72>
| 73>                          ****END OF INPUT****
 Total Charge           Charge          ....    0
 Multiplicity           Mult            ....    1
 Number of Electrons    NEL             ....   36
Dispersion correction           -0.000798665
FINAL SINGLE POINT ENERGY      -231.463755841667
Dispersion correction           -0.000231603
FINAL SINGLE POINT ENERGY      -115.733521973061

CARTESIAN COORDINATES (ANGSTROEM)
---------------------------------
  C      8.855435    2.500085   -1.398292
  O      8.460156    1.355056   -0.672985
  H      9.255421    1.118995   -0.121987
  H      9.214119    3.364614   -0.741264
  H      9.646805    2.202095   -2.062144
  H      8.024161    2.826217   -2.019382
  C     10.184271   -2.915006   -1.302727
  O     10.829222   -4.170908   -1.493779
  H     11.709887   -4.163687   -1.226007
  H     10.399975   -2.493075   -0.325433
  H     10.460095   -2.159263   -1.976337
  H      9.088234   -2.966465   -1.254846

 Multiplicity           Mult            ....    1
 Number of Electrons    NEL             ....   18
 Basis Dimension        Dim             ....  172

ORBITAL ENERGIES
----------------

  NO   OCC          E(Eh)            E(eV)
   0   2.0000     -19.226586      -523.1820
   1   2.0000     -10.310170      -280.5540
   2   2.0000      -1.138094       -30.9691
   3   2.0000      -0.807990       -21.9865
   4   2.0000      -0.620057       -16.8726
   5   2.0000      -0.544277       -14.8105
   6   2.0000      -0.525399       -14.2968
   7   2.0000      -0.427979       -11.6459
   8   2.0000      -0.377702       -10.2778
   9   0.0000       0.080966         2.2032
  10   0.0000       0.121054         3.2940
  11   0.0000       0.137181         3.7329
  12   0.0000       0.176459         4.8017
  13   0.0000       0.190704         5.1893

MULLIKEN ATOMIC CHARGES
-----------------------
   0 C :    0.000026
   1 O :    0.000019
   2 H :   -0.000117
   3 H :   -0.000001
   4 H :   -0.000036
   5 H :   -0.000001
   6 C :   -0.163961
   7 O :   -0.479954
   8 H :    0.310915
   9 H :    0.099657
  10 H :    0.111702
  11 H :    0.121751
Sum of atomic charges:   -0.0000000

LOEWDIN ATOMIC CHARGES
----------------------
   0 C :   -0.000018
   1 O :   -0.000023
   2 H :   -0.000130
   3 H :   -0.000000
   4 H :   -0.000018
   5 H :   -0.000000
   6 C :   -0.370743
   7 O :   -0.062975
   8 H :    0.141267
   9 H :    0.095064
  10 H :    0.085945
  11 H :    0.111632

  Mayer bond orders larger than 0.1
B(  6-C ,  7-O ) :   0.9957 B(  6-C ,  9-H ) :   0.9836 B(  6-C , 10-H ) :   0.9725
B(  6-C , 11-H ) :   0.9726 B(  7-O ,  8-H ) :   0.9048

Dispersion correction           -0.000258597
FINAL SINGLE POINT ENERGY      -115.729940521058

DIPOLE MOMENT
-------------
                                X             Y             Z
Electronic contribution:      0.76364      -1.70037      -0.42569
Nuclear contribution   :     -0.44873       2.24360       0.70762
                        -----------------------------------------
Total Dipole Moment    :      0.31491       0.54323       0.28193
                        -----------------------------------------
Magnitude (a.u.)       :      0.68829
Magnitude (Debye)      :      1.74950

Rotational constants in cm-1:     4.701291     0.807260     0.783347
Rotational constants in MHz : 140941.146532 24201.057097 23484.157768

                             ****ORCA TERMINATED NORMALLY****
TOTAL RUN TIME: 0 days 0 hours 1 minutes 9 seconds 207 msec
