                         Program Version 4.1.2  - RELEASE  -
|  1> #Run DFT-D3 single point of the dimer
|  2> ! wB97X-D3 def2-TZVP TIGHTSCF CHELPG PMODEL PAL8
|  3>
|  4> %base "12-22_DFT_AB"
|  5>
|  6> %scf
|  7> MaxIter 1000
|  8> end
|  9>
| 10> * xyz 0 1
| 11>   C                      7.783129             -4.327830            -2.139949
| 12>   O                      8.538829             -3.183352            -2.235793
| 13>   H                      9.186373             -3.113510            -1.593900
| 14>   H                      8.386808             -5.185219            -2.334048
| 15>   H                      7.505781             -4.489280            -1.123958
| 16>   H                      6.890016             -4.297037            -2.756172
| 17>   C                      4.774426             -8.100343            -2.462904
| 18>   O                      3.775210             -8.706812            -3.317403
| 19>   H                      3.715647             -9.629430            -3.337274
| 20>   H                      5.720722             -8.688947            -2.542135
| 21>   H                      5.002248             -7.044043            -2.599598
| 22>   H                      4.446611             -8.023833            -1.378385
| 23> *
| 24>
| 25> #Run DFT-D3 single point of the molecule with dimer basis set
| 26> $new_job
| 27> %base "12-22_DFT_A"
| 28> ! wB97X-D3 def2-TZVP TIGHTSCF CHELPG PMODEL
| 29>
| 30> %scf
| 31> MaxIter 1000
| 32> end
| 33>
| 34> * xyz 0 1
| 35>   C                      7.783129             -4.327830            -2.139949
| 36>   O                      8.538829             -3.183352            -2.235793
| 37>   H                      9.186373             -3.113510            -1.593900
| 38>   H                      8.386808             -5.185219            -2.334048
| 39>   H                      7.505781             -4.489280            -1.123958
| 40>   H                      6.890016             -4.297037            -2.756172
| 41>   C                    : 4.774426             -8.100343            -2.462904
| 42>   O                    : 3.775210             -8.706812            -3.317403
| 43>   H                    : 3.715647             -9.629430            -3.337274
| 44>   H                    : 5.720722             -8.688947            -2.542135
| 45>   H                    : 5.002248             -7.044043            -2.599598
| 46>   H                    : 4.446611             -8.023833            -1.378385
| 47> *
| 48>
| 49> #Run DFT-D3 single point of the particle with dimer basis set
| 50> $new_job
| 51> %base "12-22_DFT_B"
| 52> ! wB97X-D3 def2-TZVP TIGHTSCF CHELPG PMODEL
| 53>
| 54> %scf
| 55> MaxIter 1000
| 56> end
| 57>
| 58> * xyz 0 1
| 59>   C                    : 7.783129             -4.327830            -2.139949
| 60>   O                    : 8.538829             -3.183352            -2.235793
| 61>   H                    : 9.186373             -3.113510            -1.593900
| 62>   H                    : 8.386808             -5.185219            -2.334048
| 63>   H                    : 7.505781             -4.489280            -1.123958
| 64>   H                    : 6.890016             -4.297037            -2.756172
| 65>   C                      4.774426             -8.100343            -2.462904
| 66>   O                      3.775210             -8.706812            -3.317403
| 67>   H                      3.715647             -9.629430            -3.337274
| 68>   H                      5.720722             -8.688947            -2.542135
| 69>   H                      5.002248             -7.044043            -2.599598
| 70>   H                      4.446611             -8.023833            -1.378385
| 71> *
| 72>
| 73>                          ****END OF INPUT****
 Total Charge           Charge          ....    0
 Multiplicity           Mult            ....    1
 Number of Electrons    NEL             ....   36
Dispersion correction           -0.000880574
FINAL SINGLE POINT ENERGY      -231.453786071848
Dispersion correction           -0.000211017
FINAL SINGLE POINT ENERGY      -115.729682445118

CARTESIAN COORDINATES (ANGSTROEM)
---------------------------------
  C      7.783129   -4.327830   -2.139949
  O      8.538829   -3.183352   -2.235793
  H      9.186373   -3.113510   -1.593900
  H      8.386808   -5.185219   -2.334048
  H      7.505781   -4.489280   -1.123958
  H      6.890016   -4.297037   -2.756172
  C      4.774426   -8.100343   -2.462904
  O      3.775210   -8.706812   -3.317403
  H      3.715647   -9.629430   -3.337274
  H      5.720722   -8.688947   -2.542135
  H      5.002248   -7.044043   -2.599598
  H      4.446611   -8.023833   -1.378385

 Multiplicity           Mult            ....    1
 Number of Electrons    NEL             ....   18
 Basis Dimension        Dim             ....  172

ORBITAL ENERGIES
----------------

  NO   OCC          E(Eh)            E(eV)
   0   2.0000     -19.224744      -523.1319
   1   2.0000     -10.326117      -280.9879
   2   2.0000      -1.127538       -30.6819
   3   2.0000      -0.802749       -21.8439
   4   2.0000      -0.611393       -16.6369
   5   2.0000      -0.543346       -14.7852
   6   2.0000      -0.518967       -14.1218
   7   2.0000      -0.419233       -11.4079
   8   2.0000      -0.373065       -10.1516
   9   0.0000       0.081114         2.2072
  10   0.0000       0.119889         3.2624
  11   0.0000       0.134915         3.6712
  12   0.0000       0.172678         4.6988
  13   0.0000       0.188411         5.1269

MULLIKEN ATOMIC CHARGES
-----------------------
   0 C :    0.000164
   1 O :   -0.000001
   2 H :   -0.000000
   3 H :   -0.000096
   4 H :   -0.000032
   5 H :   -0.000182
   6 C :   -0.163303
   7 O :   -0.492741
   8 H :    0.315952
   9 H :    0.109661
  10 H :    0.129542
  11 H :    0.101036
Sum of atomic charges:    0.0000000

LOEWDIN ATOMIC CHARGES
----------------------
   0 C :   -0.000434
   1 O :   -0.000003
   2 H :   -0.000001
   3 H :   -0.000046
   4 H :   -0.000022
   5 H :   -0.000332
   6 C :   -0.366056
   7 O :   -0.086664
   8 H :    0.141328
   9 H :    0.102288
  10 H :    0.107306
  11 H :    0.102639

  Mayer bond orders larger than 0.1
B(  6-C ,  7-O ) :   0.9929 B(  6-C ,  9-H ) :   0.9811 B(  6-C , 10-H ) :   0.9693
B(  6-C , 11-H ) :   0.9717 B(  7-O ,  8-H ) :   0.8987

Dispersion correction           -0.000296314
FINAL SINGLE POINT ENERGY      -115.723896390715

DIPOLE MOMENT
-------------
                                X             Y             Z
Electronic contribution:     -1.28961      -0.66220      -1.23877
Nuclear contribution   :      1.69075       0.32463       1.59008
                        -----------------------------------------
Total Dipole Moment    :      0.40114      -0.33757       0.35131
                        -----------------------------------------
Magnitude (a.u.)       :      0.63110
Magnitude (Debye)      :      1.60412

Rotational constants in cm-1:     4.516241     0.774103     0.752738
Rotational constants in MHz : 135393.502081 23207.017853 22566.521696

                             ****ORCA TERMINATED NORMALLY****
TOTAL RUN TIME: 0 days 0 hours 1 minutes 3 seconds 652 msec
