                         Program Version 4.1.2  - RELEASE  -
|  1> #Run DFT-D3 single point of the dimer
|  2> ! wB97X-D3 def2-TZVP TIGHTSCF CHELPG PMODEL PAL8
|  3>
|  4> %base "3-175_DFT_AB"
|  5>
|  6> %scf
|  7> MaxIter 1000
|  8> end
|  9>
| 10> * xyz 0 1
| 11>   C                      -10.334582           -4.254306            -5.781806
| 12>   O                      -9.139955            -3.452755            -5.800609
| 13>   H                      -8.833748            -3.296327            -6.693903
| 14>   H                      -10.701949           -4.294493            -4.818483
| 15>   H                      -11.133352           -3.759334            -6.328138
| 16>   H                      -10.229096           -5.277931            -6.251611
| 17>   C                      -7.949055            -9.171305            -6.566835
| 18>   O                      -8.982075            -8.273082            -6.852369
| 19>   H                      -8.439640            -7.513511            -7.058999
| 20>   H                      -7.037029            -9.018700            -7.166905
| 21>   H                      -7.643131            -8.978097            -5.558532
| 22>   H                      -8.170766            -10.203733           -6.710026
| 23> *
| 24>
| 25> #Run DFT-D3 single point of the molecule with dimer basis set
| 26> $new_job
| 27> %base "3-175_DFT_A"
| 28> ! wB97X-D3 def2-TZVP TIGHTSCF CHELPG PMODEL
| 29>
| 30> %scf
| 31> MaxIter 1000
| 32> end
| 33>
| 34> * xyz 0 1
| 35>   C                      -10.334582           -4.254306            -5.781806
| 36>   O                      -9.139955            -3.452755            -5.800609
| 37>   H                      -8.833748            -3.296327            -6.693903
| 38>   H                      -10.701949           -4.294493            -4.818483
| 39>   H                      -11.133352           -3.759334            -6.328138
| 40>   H                      -10.229096           -5.277931            -6.251611
| 41>   C                    : -7.949055            -9.171305            -6.566835
| 42>   O                    : -8.982075            -8.273082            -6.852369
| 43>   H                    : -8.439640            -7.513511            -7.058999
| 44>   H                    : -7.037029            -9.018700            -7.166905
| 45>   H                    : -7.643131            -8.978097            -5.558532
| 46>   H                    : -8.170766            -10.203733           -6.710026
| 47> *
| 48>
| 49> #Run DFT-D3 single point of the particle with dimer basis set
| 50> $new_job
| 51> %base "3-175_DFT_B"
| 52> ! wB97X-D3 def2-TZVP TIGHTSCF CHELPG PMODEL
| 53>
| 54> %scf
| 55> MaxIter 1000
| 56> end
| 57>
| 58> * xyz 0 1
| 59>   C                    : -10.334582           -4.254306            -5.781806
| 60>   O                    : -9.139955            -3.452755            -5.800609
| 61>   H                    : -8.833748            -3.296327            -6.693903
| 62>   H                    : -10.701949           -4.294493            -4.818483
| 63>   H                    : -11.133352           -3.759334            -6.328138
| 64>   H                    : -10.229096           -5.277931            -6.251611
| 65>   C                      -7.949055            -9.171305            -6.566835
| 66>   O                      -8.982075            -8.273082            -6.852369
| 67>   H                      -8.439640            -7.513511            -7.058999
| 68>   H                      -7.037029            -9.018700            -7.166905
| 69>   H                      -7.643131            -8.978097            -5.558532
| 70>   H                      -8.170766            -10.203733           -6.710026
| 71> *
| 72>
| 73>                          ****END OF INPUT****
 Total Charge           Charge          ....    0
 Multiplicity           Mult            ....    1
 Number of Electrons    NEL             ....   36
Dispersion correction           -0.000936091
FINAL SINGLE POINT ENERGY      -231.461833718376
Dispersion correction           -0.000264101
FINAL SINGLE POINT ENERGY      -115.731976675632

CARTESIAN COORDINATES (ANGSTROEM)
---------------------------------
  C    -10.334582   -4.254306   -5.781806
  O     -9.139955   -3.452755   -5.800609
  H     -8.833748   -3.296327   -6.693903
  H    -10.701949   -4.294493   -4.818483
  H    -11.133352   -3.759334   -6.328138
  H    -10.229096   -5.277931   -6.251611
  C     -7.949055   -9.171305   -6.566835
  O     -8.982075   -8.273082   -6.852369
  H     -8.439640   -7.513511   -7.058999
  H     -7.037029   -9.018700   -7.166905
  H     -7.643131   -8.978097   -5.558532
  H     -8.170766  -10.203733   -6.710026

 Multiplicity           Mult            ....    1
 Number of Electrons    NEL             ....   18
 Basis Dimension        Dim             ....  172

ORBITAL ENERGIES
----------------

  NO   OCC          E(Eh)            E(eV)
   0   2.0000     -19.233236      -523.3629
   1   2.0000     -10.307717      -280.4872
   2   2.0000      -1.150297       -31.3012
   3   2.0000      -0.795456       -21.6455
   4   2.0000      -0.614977       -16.7344
   5   2.0000      -0.552922       -15.0458
   6   2.0000      -0.527610       -14.3570
   7   2.0000      -0.443012       -12.0550
   8   2.0000      -0.373233       -10.1562
   9   0.0000       0.084390         2.2964
  10   0.0000       0.118229         3.2172
  11   0.0000       0.156283         4.2527
  12   0.0000       0.164355         4.4723
  13   0.0000       0.196042         5.3346

MULLIKEN ATOMIC CHARGES
-----------------------
   0 C :    0.000874
   1 O :    0.000040
   2 H :    0.000004
   3 H :    0.000043
   4 H :   -0.000117
   5 H :   -0.003666
   6 C :   -0.187315
   7 O :   -0.452977
   8 H :    0.319735
   9 H :    0.099761
  10 H :    0.103307
  11 H :    0.120311
Sum of atomic charges:    0.0000000

LOEWDIN ATOMIC CHARGES
----------------------
   0 C :   -0.000544
   1 O :   -0.000009
   2 H :   -0.000008
   3 H :   -0.000004
   4 H :   -0.000009
   5 H :   -0.001752
   6 C :   -0.401633
   7 O :   -0.060724
   8 H :    0.176291
   9 H :    0.096749
  10 H :    0.091916
  11 H :    0.099728

  Mayer bond orders larger than 0.1
B(  6-C ,  7-O ) :   1.0029 B(  6-C ,  9-H ) :   0.9828 B(  6-C , 10-H ) :   0.9827
B(  6-C , 11-H ) :   0.9722 B(  7-O ,  8-H ) :   0.8994

Dispersion correction           -0.000204045
FINAL SINGLE POINT ENERGY      -115.729018179648

DIPOLE MOMENT
-------------
                                X             Y             Z
Electronic contribution:     -1.61065       0.99777      -0.38046
Nuclear contribution   :      2.34246      -0.88039       0.34675
                        -----------------------------------------
Total Dipole Moment    :      0.73181       0.11738      -0.03370
                        -----------------------------------------
Magnitude (a.u.)       :      0.74193
Magnitude (Debye)      :      1.88584

Rotational constants in cm-1:     4.390559     0.856865     0.823629
Rotational constants in MHz : 131625.655113 25688.176299 24691.790326

                             ****ORCA TERMINATED NORMALLY****
TOTAL RUN TIME: 0 days 0 hours 5 minutes 55 seconds 208 msec
