                         Program Version 4.1.2  - RELEASE  -
|  1> #Run DFT-D3 single point of the dimer
|  2> ! wB97X-D3 def2-TZVP TIGHTSCF CHELPG PMODEL PAL8
|  3>
|  4> %base "10-70_DFT_AB"
|  5>
|  6> %scf
|  7> MaxIter 1000
|  8> end
|  9>
| 10> * xyz 0 1
| 11>   C                      6.480167             4.850157             8.017725
| 12>   O                      6.846940             3.890680             7.044795
| 13>   H                      7.195709             4.304133             6.297054
| 14>   H                      7.306813             5.169564             8.669647
| 15>   H                      6.202793             5.826223             7.485602
| 16>   H                      5.554086             4.491351             8.572135
| 17>   C                      4.203473             7.084668             10.786911
| 18>   O                      2.783788             6.871296             10.853488
| 19>   H                      2.590213             5.995350             11.134194
| 20>   H                      4.585779             6.600263             11.720217
| 21>   H                      4.613238             6.702095             9.822883
| 22>   H                      4.489725             8.129061             10.896603
| 23> *
| 24>
| 25> #Run DFT-D3 single point of the molecule with dimer basis set
| 26> $new_job
| 27> %base "10-70_DFT_A"
| 28> ! wB97X-D3 def2-TZVP TIGHTSCF CHELPG PMODEL
| 29>
| 30> %scf
| 31> MaxIter 1000
| 32> end
| 33>
| 34> * xyz 0 1
| 35>   C                      6.480167             4.850157             8.017725
| 36>   O                      6.846940             3.890680             7.044795
| 37>   H                      7.195709             4.304133             6.297054
| 38>   H                      7.306813             5.169564             8.669647
| 39>   H                      6.202793             5.826223             7.485602
| 40>   H                      5.554086             4.491351             8.572135
| 41>   C                    : 4.203473             7.084668             10.786911
| 42>   O                    : 2.783788             6.871296             10.853488
| 43>   H                    : 2.590213             5.995350             11.134194
| 44>   H                    : 4.585779             6.600263             11.720217
| 45>   H                    : 4.613238             6.702095             9.822883
| 46>   H                    : 4.489725             8.129061             10.896603
| 47> *
| 48>
| 49> #Run DFT-D3 single point of the particle with dimer basis set
| 50> $new_job
| 51> %base "10-70_DFT_B"
| 52> ! wB97X-D3 def2-TZVP TIGHTSCF CHELPG PMODEL
| 53>
| 54> %scf
| 55> MaxIter 1000
| 56> end
| 57>
| 58> * xyz 0 1
| 59>   C                    : 6.480167             4.850157             8.017725
| 60>   O                    : 6.846940             3.890680             7.044795
| 61>   H                    : 7.195709             4.304133             6.297054
| 62>   H                    : 7.306813             5.169564             8.669647
| 63>   H                    : 6.202793             5.826223             7.485602
| 64>   H                    : 5.554086             4.491351             8.572135
| 65>   C                      4.203473             7.084668             10.786911
| 66>   O                      2.783788             6.871296             10.853488
| 67>   H                      2.590213             5.995350             11.134194
| 68>   H                      4.585779             6.600263             11.720217
| 69>   H                      4.613238             6.702095             9.822883
| 70>   H                      4.489725             8.129061             10.896603
| 71> *
| 72>
| 73>                          ****END OF INPUT****
 Total Charge           Charge          ....    0
 Multiplicity           Mult            ....    1
 Number of Electrons    NEL             ....   36
Dispersion correction           -0.001225601
FINAL SINGLE POINT ENERGY      -231.462096124395
Dispersion correction           -0.000255562
FINAL SINGLE POINT ENERGY      -115.730504372565

CARTESIAN COORDINATES (ANGSTROEM)
---------------------------------
  C      6.480167    4.850157    8.017725
  O      6.846940    3.890680    7.044795
  H      7.195709    4.304133    6.297054
  H      7.306813    5.169564    8.669647
  H      6.202793    5.826223    7.485602
  H      5.554086    4.491351    8.572135
  C      4.203473    7.084668   10.786911
  O      2.783788    6.871296   10.853488
  H      2.590213    5.995350   11.134194
  H      4.585779    6.600263   11.720217
  H      4.613238    6.702095    9.822883
  H      4.489725    8.129061   10.896603

 Multiplicity           Mult            ....    1
 Number of Electrons    NEL             ....   18
 Basis Dimension        Dim             ....  172

ORBITAL ENERGIES
----------------

  NO   OCC          E(Eh)            E(eV)
   0   2.0000     -19.223809      -523.1064
   1   2.0000     -10.320866      -280.8450
   2   2.0000      -1.130203       -30.7544
   3   2.0000      -0.795658       -21.6509
   4   2.0000      -0.601601       -16.3704
   5   2.0000      -0.546319       -14.8661
   6   2.0000      -0.529898       -14.4193
   7   2.0000      -0.420947       -11.4546
   8   2.0000      -0.374479       -10.1901
   9   0.0000       0.081319         2.2128
  10   0.0000       0.116060         3.1582
  11   0.0000       0.147520         4.0142
  12   0.0000       0.173351         4.7171
  13   0.0000       0.187544         5.1033

MULLIKEN ATOMIC CHARGES
-----------------------
   0 C :   -0.001892
   1 O :   -0.000014
   2 H :   -0.000006
   3 H :    0.000027
   4 H :   -0.000152
   5 H :    0.001076
   6 C :   -0.156955
   7 O :   -0.486722
   8 H :    0.314314
   9 H :    0.102271
  10 H :    0.107240
  11 H :    0.120812
Sum of atomic charges:    0.0000000

LOEWDIN ATOMIC CHARGES
----------------------
   0 C :   -0.004172
   1 O :   -0.000017
   2 H :   -0.000008
   3 H :   -0.000241
   4 H :   -0.000785
   5 H :   -0.001368
   6 C :   -0.365898
   7 O :   -0.091773
   8 H :    0.152207
   9 H :    0.104348
  10 H :    0.102635
  11 H :    0.105072

  Mayer bond orders larger than 0.1
B(  6-C ,  7-O ) :   0.9868 B(  6-C ,  9-H ) :   0.9919 B(  6-C , 10-H ) :   0.9728
B(  6-C , 11-H ) :   0.9673 B(  7-O ,  8-H ) :   0.9017

Dispersion correction           -0.000248382
FINAL SINGLE POINT ENERGY      -115.730997834693

DIPOLE MOMENT
-------------
                                X             Y             Z
Electronic contribution:     -1.74579      -0.10581      -0.04751
Nuclear contribution   :      2.21120      -0.34922       0.22512
                        -----------------------------------------
Total Dipole Moment    :      0.46541      -0.45502       0.17761
                        -----------------------------------------
Magnitude (a.u.)       :      0.67468
Magnitude (Debye)      :      1.71491

Rotational constants in cm-1:     4.230114     0.803508     0.788962
Rotational constants in MHz : 126815.631742 24088.555689 23652.480159

                             ****ORCA TERMINATED NORMALLY****
TOTAL RUN TIME: 0 days 0 hours 1 minutes 4 seconds 934 msec
