                         Program Version 4.1.2  - RELEASE  -
|  1> #Run DFT-D3 single point of the dimer
|  2> ! wB97X-D3 def2-TZVP TIGHTSCF CHELPG PMODEL PAL8
|  3>
|  4> %base "8-203_DFT_AB"
|  5>
|  6> %scf
|  7> MaxIter 1000
|  8> end
|  9>
| 10> * xyz 0 1
| 11>   C                      6.764283             -9.797262            4.796798
| 12>   O                      7.854235             -9.253086            5.558836
| 13>   H                      8.440373             -8.669675            5.044567
| 14>   H                      6.126712             -10.337744           5.499328
| 15>   H                      6.264568             -8.981207            4.208230
| 16>   H                      7.082795             -10.555114           4.057515
| 17>   C                      9.769262             -7.615812            2.790514
| 18>   O                      9.008216             -7.107357            3.842723
| 19>   H                      8.368611             -6.424583            3.579696
| 20>   H                      10.096084            -6.844270            2.058707
| 21>   H                      10.680623            -8.247981            3.015261
| 22>   H                      9.048074             -8.278139            2.241576
| 23> *
| 24>
| 25> #Run DFT-D3 single point of the molecule with dimer basis set
| 26> $new_job
| 27> %base "8-203_DFT_A"
| 28> ! wB97X-D3 def2-TZVP TIGHTSCF CHELPG PMODEL
| 29>
| 30> %scf
| 31> MaxIter 1000
| 32> end
| 33>
| 34> * xyz 0 1
| 35>   C                      6.764283             -9.797262            4.796798
| 36>   O                      7.854235             -9.253086            5.558836
| 37>   H                      8.440373             -8.669675            5.044567
| 38>   H                      6.126712             -10.337744           5.499328
| 39>   H                      6.264568             -8.981207            4.208230
| 40>   H                      7.082795             -10.555114           4.057515
| 41>   C                    : 9.769262             -7.615812            2.790514
| 42>   O                    : 9.008216             -7.107357            3.842723
| 43>   H                    : 8.368611             -6.424583            3.579696
| 44>   H                    : 10.096084            -6.844270            2.058707
| 45>   H                    : 10.680623            -8.247981            3.015261
| 46>   H                    : 9.048074             -8.278139            2.241576
| 47> *
| 48>
| 49> #Run DFT-D3 single point of the particle with dimer basis set
| 50> $new_job
| 51> %base "8-203_DFT_B"
| 52> ! wB97X-D3 def2-TZVP TIGHTSCF CHELPG PMODEL
| 53>
| 54> %scf
| 55> MaxIter 1000
| 56> end
| 57>
| 58> * xyz 0 1
| 59>   C                    : 6.764283             -9.797262            4.796798
| 60>   O                    : 7.854235             -9.253086            5.558836
| 61>   H                    : 8.440373             -8.669675            5.044567
| 62>   H                    : 6.126712             -10.337744           5.499328
| 63>   H                    : 6.264568             -8.981207            4.208230
| 64>   H                    : 7.082795             -10.555114           4.057515
| 65>   C                      9.769262             -7.615812            2.790514
| 66>   O                      9.008216             -7.107357            3.842723
| 67>   H                      8.368611             -6.424583            3.579696
| 68>   H                      10.096084            -6.844270            2.058707
| 69>   H                      10.680623            -8.247981            3.015261
| 70>   H                      9.048074             -8.278139            2.241576
| 71> *
| 72>
| 73>                          ****END OF INPUT****
 Total Charge           Charge          ....    0
 Multiplicity           Mult            ....    1
 Number of Electrons    NEL             ....   36
Dispersion correction           -0.001960987
FINAL SINGLE POINT ENERGY      -231.469419417359
Dispersion correction           -0.000268595
FINAL SINGLE POINT ENERGY      -115.734256531042

CARTESIAN COORDINATES (ANGSTROEM)
---------------------------------
  C      6.764283   -9.797262    4.796798
  O      7.854235   -9.253086    5.558836
  H      8.440373   -8.669675    5.044567
  H      6.126712  -10.337744    5.499328
  H      6.264568   -8.981207    4.208230
  H      7.082795  -10.555114    4.057515
  C      9.769262   -7.615812    2.790514
  O      9.008216   -7.107357    3.842723
  H      8.368611   -6.424583    3.579696
  H     10.096084   -6.844270    2.058707
  H     10.680623   -8.247981    3.015261
  H      9.048074   -8.278139    2.241576

 Multiplicity           Mult            ....    1
 Number of Electrons    NEL             ....   18
 Basis Dimension        Dim             ....  172

ORBITAL ENERGIES
----------------

  NO   OCC          E(Eh)            E(eV)
   0   2.0000     -19.230333      -523.2840
   1   2.0000     -10.321865      -280.8722
   2   2.0000      -1.137740       -30.9595
   3   2.0000      -0.790846       -21.5200
   4   2.0000      -0.614696       -16.7267
   5   2.0000      -0.538274       -14.6472
   6   2.0000      -0.531750       -14.4697
   7   2.0000      -0.422319       -11.4919
   8   2.0000      -0.366246        -9.9660
   9   0.0000       0.091689         2.4950
  10   0.0000       0.126242         3.4352
  11   0.0000       0.145652         3.9634
  12   0.0000       0.183639         4.9971
  13   0.0000       0.190187         5.1753

MULLIKEN ATOMIC CHARGES
-----------------------
   0 C :    0.000790
   1 O :   -0.001628
   2 H :   -0.001860
   3 H :   -0.000236
   4 H :   -0.003313
   5 H :   -0.000372
   6 C :   -0.168911
   7 O :   -0.484572
   8 H :    0.325052
   9 H :    0.105803
  10 H :    0.127915
  11 H :    0.101332
Sum of atomic charges:    0.0000000

LOEWDIN ATOMIC CHARGES
----------------------
   0 C :   -0.003223
   1 O :   -0.004311
   2 H :   -0.032296
   3 H :   -0.000061
   4 H :   -0.001379
   5 H :   -0.000121
   6 C :   -0.409308
   7 O :   -0.042297
   8 H :    0.179287
   9 H :    0.097604
  10 H :    0.116613
  11 H :    0.099493

  Mayer bond orders larger than 0.1
B(  6-C ,  7-O ) :   0.9779 B(  6-C ,  9-H ) :   0.9698 B(  6-C , 10-H ) :   0.9656
B(  6-C , 11-H ) :   0.9883 B(  7-O ,  8-H ) :   0.8842

Dispersion correction           -0.000253900
FINAL SINGLE POINT ENERGY      -115.727756644572

DIPOLE MOMENT
-------------
                                X             Y             Z
Electronic contribution:     -0.79634       0.66354       1.59217
Nuclear contribution   :      0.69610      -0.40121      -2.18251
                        -----------------------------------------
Total Dipole Moment    :     -0.10024       0.26232      -0.59034
                        -----------------------------------------
Magnitude (a.u.)       :      0.65373
Magnitude (Debye)      :      1.66164

Rotational constants in cm-1:     4.300758     0.829547     0.800799
Rotational constants in MHz : 128933.493035 24869.202828 24007.343274

                             ****ORCA TERMINATED NORMALLY****
TOTAL RUN TIME: 0 days 0 hours 0 minutes 47 seconds 193 msec
