                         Program Version 4.1.2  - RELEASE  -
|  1> #Run DFT-D3 single point of the dimer
|  2> ! wB97X-D3 def2-TZVP TIGHTSCF CHELPG PMODEL PAL8
|  3>
|  4> %base "11-92_DFT_AB"
|  5>
|  6> %scf
|  7> MaxIter 1000
|  8> end
|  9>
| 10> * xyz 0 1
| 11>   C                      5.805939             10.294651            -6.906468
| 12>   O                      5.983511             11.721538            -7.025334
| 13>   H                      5.096172             12.079015            -7.135066
| 14>   H                      5.223192             9.968730             -7.767834
| 15>   H                      6.785383             9.801651             -6.954070
| 16>   H                      5.389869             9.935072             -5.948628
| 17>   C                      8.030817             10.454830            -2.583979
| 18>   O                      7.694170             10.824342            -1.287199
| 19>   H                      8.063028             11.723033            -1.103546
| 20>   H                      7.542536             9.473523             -2.840437
| 21>   H                      7.728920             11.252674            -3.294878
| 22>   H                      9.111819             10.355521            -2.710593
| 23> *
| 24>
| 25> #Run DFT-D3 single point of the molecule with dimer basis set
| 26> $new_job
| 27> %base "11-92_DFT_A"
| 28> ! wB97X-D3 def2-TZVP TIGHTSCF CHELPG PMODEL
| 29>
| 30> %scf
| 31> MaxIter 1000
| 32> end
| 33>
| 34> * xyz 0 1
| 35>   C                      5.805939             10.294651            -6.906468
| 36>   O                      5.983511             11.721538            -7.025334
| 37>   H                      5.096172             12.079015            -7.135066
| 38>   H                      5.223192             9.968730             -7.767834
| 39>   H                      6.785383             9.801651             -6.954070
| 40>   H                      5.389869             9.935072             -5.948628
| 41>   C                    : 8.030817             10.454830            -2.583979
| 42>   O                    : 7.694170             10.824342            -1.287199
| 43>   H                    : 8.063028             11.723033            -1.103546
| 44>   H                    : 7.542536             9.473523             -2.840437
| 45>   H                    : 7.728920             11.252674            -3.294878
| 46>   H                    : 9.111819             10.355521            -2.710593
| 47> *
| 48>
| 49> #Run DFT-D3 single point of the particle with dimer basis set
| 50> $new_job
| 51> %base "11-92_DFT_B"
| 52> ! wB97X-D3 def2-TZVP TIGHTSCF CHELPG PMODEL
| 53>
| 54> %scf
| 55> MaxIter 1000
| 56> end
| 57>
| 58> * xyz 0 1
| 59>   C                    : 5.805939             10.294651            -6.906468
| 60>   O                    : 5.983511             11.721538            -7.025334
| 61>   H                    : 5.096172             12.079015            -7.135066
| 62>   H                    : 5.223192             9.968730             -7.767834
| 63>   H                    : 6.785383             9.801651             -6.954070
| 64>   H                    : 5.389869             9.935072             -5.948628
| 65>   C                      8.030817             10.454830            -2.583979
| 66>   O                      7.694170             10.824342            -1.287199
| 67>   H                      8.063028             11.723033            -1.103546
| 68>   H                      7.542536             9.473523             -2.840437
| 69>   H                      7.728920             11.252674            -3.294878
| 70>   H                      9.111819             10.355521            -2.710593
| 71> *
| 72>
| 73>                          ****END OF INPUT****
 Total Charge           Charge          ....    0
 Multiplicity           Mult            ....    1
 Number of Electrons    NEL             ....   36
Dispersion correction           -0.000865847
FINAL SINGLE POINT ENERGY      -231.469994571822
Dispersion correction           -0.000251328
FINAL SINGLE POINT ENERGY      -115.734725412187

CARTESIAN COORDINATES (ANGSTROEM)
---------------------------------
  C      5.805939   10.294651   -6.906468
  O      5.983511   11.721538   -7.025334
  H      5.096172   12.079015   -7.135066
  H      5.223192    9.968730   -7.767834
  H      6.785383    9.801651   -6.954070
  H      5.389869    9.935072   -5.948628
  C      8.030817   10.454830   -2.583979
  O      7.694170   10.824342   -1.287199
  H      8.063028   11.723033   -1.103546
  H      7.542536    9.473523   -2.840437
  H      7.728920   11.252674   -3.294878
  H      9.111819   10.355521   -2.710593

 Multiplicity           Mult            ....    1
 Number of Electrons    NEL             ....   18
 Basis Dimension        Dim             ....  172

ORBITAL ENERGIES
----------------

  NO   OCC          E(Eh)            E(eV)
   0   2.0000     -19.231976      -523.3287
   1   2.0000     -10.315316      -280.6940
   2   2.0000      -1.138453       -30.9789
   3   2.0000      -0.787657       -21.4332
   4   2.0000      -0.613580       -16.6964
   5   2.0000      -0.539616       -14.6837
   6   2.0000      -0.528296       -14.3757
   7   2.0000      -0.431187       -11.7332
   8   2.0000      -0.368903       -10.0384
   9   0.0000       0.083376         2.2688
  10   0.0000       0.111477         3.0334
  11   0.0000       0.146672         3.9911
  12   0.0000       0.165829         4.5124
  13   0.0000       0.184341         5.0162

MULLIKEN ATOMIC CHARGES
-----------------------
   0 C :   -0.000107
   1 O :    0.000030
   2 H :   -0.000002
   3 H :   -0.000018
   4 H :   -0.000003
   5 H :   -0.000246
   6 C :   -0.158317
   7 O :   -0.472329
   8 H :    0.318511
   9 H :    0.117401
  10 H :    0.097698
  11 H :    0.097381
Sum of atomic charges:   -0.0000000

LOEWDIN ATOMIC CHARGES
----------------------
   0 C :   -0.000388
   1 O :   -0.000026
   2 H :   -0.000005
   3 H :   -0.000009
   4 H :   -0.000045
   5 H :   -0.000161
   6 C :   -0.412377
   7 O :   -0.074774
   8 H :    0.187461
   9 H :    0.115214
  10 H :    0.094978
  11 H :    0.090132

  Mayer bond orders larger than 0.1
B(  6-C ,  7-O ) :   1.0006 B(  6-C ,  9-H ) :   0.9695 B(  6-C , 10-H ) :   0.9803
B(  6-C , 11-H ) :   0.9731 B(  7-O ,  8-H ) :   0.8907

Dispersion correction           -0.000230921
FINAL SINGLE POINT ENERGY      -115.734486448021

DIPOLE MOMENT
-------------
                                X             Y             Z
Electronic contribution:     -0.52932       0.30648       1.73167
Nuclear contribution   :      0.89309       0.11807      -2.10351
                        -----------------------------------------
Total Dipole Moment    :      0.36377       0.42455      -0.37184
                        -----------------------------------------
Magnitude (a.u.)       :      0.67144
Magnitude (Debye)      :      1.70666

Rotational constants in cm-1:     4.145678     0.855923     0.814626
Rotational constants in MHz : 124284.313392 25659.937116 24421.886246

                             ****ORCA TERMINATED NORMALLY****
TOTAL RUN TIME: 0 days 0 hours 1 minutes 11 seconds 32 msec
