                         Program Version 4.1.2  - RELEASE  -
|  1> #Run DFT-D3 single point of the dimer
|  2> ! wB97X-D3 def2-TZVP TIGHTSCF CHELPG PMODEL PAL8
|  3>
|  4> %base "21-70_DFT_AB"
|  5>
|  6> %scf
|  7> MaxIter 1000
|  8> end
|  9>
| 10> * xyz 0 1
| 11>   C                      3.842016             6.695679             2.250202
| 12>   O                      2.873278             7.246164             1.343030
| 13>   H                      3.031708             6.919436             0.425400
| 14>   H                      3.817862             5.565453             2.173094
| 15>   H                      4.822762             6.953849             1.878522
| 16>   H                      3.663193             7.138407             3.241986
| 17>   C                      7.864650             8.323932             0.801968
| 18>   O                      6.679575             8.348322             1.593540
| 19>   H                      6.951194             8.365626             2.475880
| 20>   H                      8.453539             7.464341             1.079208
| 21>   H                      7.598967             8.207350             -0.210237
| 22>   H                      8.404368             9.332742             0.941453
| 23> *
| 24>
| 25> #Run DFT-D3 single point of the molecule with dimer basis set
| 26> $new_job
| 27> %base "21-70_DFT_A"
| 28> ! wB97X-D3 def2-TZVP TIGHTSCF CHELPG PMODEL
| 29>
| 30> %scf
| 31> MaxIter 1000
| 32> end
| 33>
| 34> * xyz 0 1
| 35>   C                      3.842016             6.695679             2.250202
| 36>   O                      2.873278             7.246164             1.343030
| 37>   H                      3.031708             6.919436             0.425400
| 38>   H                      3.817862             5.565453             2.173094
| 39>   H                      4.822762             6.953849             1.878522
| 40>   H                      3.663193             7.138407             3.241986
| 41>   C                    : 7.864650             8.323932             0.801968
| 42>   O                    : 6.679575             8.348322             1.593540
| 43>   H                    : 6.951194             8.365626             2.475880
| 44>   H                    : 8.453539             7.464341             1.079208
| 45>   H                    : 7.598967             8.207350             -0.210237
| 46>   H                    : 8.404368             9.332742             0.941453
| 47> *
| 48>
| 49> #Run DFT-D3 single point of the particle with dimer basis set
| 50> $new_job
| 51> %base "21-70_DFT_B"
| 52> ! wB97X-D3 def2-TZVP TIGHTSCF CHELPG PMODEL
| 53>
| 54> %scf
| 55> MaxIter 1000
| 56> end
| 57>
| 58> * xyz 0 1
| 59>   C                    : 3.842016             6.695679             2.250202
| 60>   O                    : 2.873278             7.246164             1.343030
| 61>   H                    : 3.031708             6.919436             0.425400
| 62>   H                    : 3.817862             5.565453             2.173094
| 63>   H                    : 4.822762             6.953849             1.878522
| 64>   H                    : 3.663193             7.138407             3.241986
| 65>   C                      7.864650             8.323932             0.801968
| 66>   O                      6.679575             8.348322             1.593540
| 67>   H                      6.951194             8.365626             2.475880
| 68>   H                      8.453539             7.464341             1.079208
| 69>   H                      7.598967             8.207350             -0.210237
| 70>   H                      8.404368             9.332742             0.941453
| 71> *
| 72>
| 73>                          ****END OF INPUT****
 Total Charge           Charge          ....    0
 Multiplicity           Mult            ....    1
 Number of Electrons    NEL             ....   36
Dispersion correction           -0.001405365
FINAL SINGLE POINT ENERGY      -231.465074624804
Dispersion correction           -0.000238932
FINAL SINGLE POINT ENERGY      -115.732015382013

CARTESIAN COORDINATES (ANGSTROEM)
---------------------------------
  C      3.842016    6.695679    2.250202
  O      2.873278    7.246164    1.343030
  H      3.031708    6.919436    0.425400
  H      3.817862    5.565453    2.173094
  H      4.822762    6.953849    1.878522
  H      3.663193    7.138407    3.241986
  C      7.864650    8.323932    0.801968
  O      6.679575    8.348322    1.593540
  H      6.951194    8.365626    2.475880
  H      8.453539    7.464341    1.079208
  H      7.598967    8.207350   -0.210237
  H      8.404368    9.332742    0.941453

 Multiplicity           Mult            ....    1
 Number of Electrons    NEL             ....   18
 Basis Dimension        Dim             ....  172

ORBITAL ENERGIES
----------------

  NO   OCC          E(Eh)            E(eV)
   0   2.0000     -19.224617      -523.1284
   1   2.0000     -10.314634      -280.6755
   2   2.0000      -1.140631       -31.0382
   3   2.0000      -0.799040       -21.7430
   4   2.0000      -0.607310       -16.5257
   5   2.0000      -0.545030       -14.8310
   6   2.0000      -0.532647       -14.4941
   7   2.0000      -0.435271       -11.8443
   8   2.0000      -0.374103       -10.1799
   9   0.0000       0.098413         2.6780
  10   0.0000       0.125075         3.4035
  11   0.0000       0.155048         4.2191
  12   0.0000       0.177763         4.8372
  13   0.0000       0.195805         5.3281

MULLIKEN ATOMIC CHARGES
-----------------------
   0 C :    0.007147
   1 O :   -0.000452
   2 H :   -0.000280
   3 H :   -0.000302
   4 H :   -0.018323
   5 H :   -0.000469
   6 C :   -0.169532
   7 O :   -0.462683
   8 H :    0.307774
   9 H :    0.110460
  10 H :    0.126564
  11 H :    0.100096
Sum of atomic charges:    0.0000000

LOEWDIN ATOMIC CHARGES
----------------------
   0 C :   -0.008074
   1 O :   -0.000036
   2 H :   -0.000062
   3 H :   -0.000066
   4 H :   -0.019823
   5 H :   -0.000192
   6 C :   -0.368081
   7 O :   -0.048568
   8 H :    0.143853
   9 H :    0.093880
  10 H :    0.098964
  11 H :    0.108204

  Mayer bond orders larger than 0.1
B(  6-C ,  7-O ) :   0.9826 B(  6-C ,  9-H ) :   0.9780 B(  6-C , 10-H ) :   0.9759
B(  6-C , 11-H ) :   0.9723 B(  7-O ,  8-H ) :   0.9082

Dispersion correction           -0.000224518
FINAL SINGLE POINT ENERGY      -115.732422208675

DIPOLE MOMENT
-------------
                                X             Y             Z
Electronic contribution:     -1.52232      -0.03379       0.81526
Nuclear contribution   :      2.17037       0.01541      -0.59342
                        -----------------------------------------
Total Dipole Moment    :      0.64805      -0.01839       0.22184
                        -----------------------------------------
Magnitude (a.u.)       :      0.68521
Magnitude (Debye)      :      1.74167

Rotational constants in cm-1:     4.236605     0.826089     0.809034
Rotational constants in MHz : 127010.236361 24765.530703 24254.224797

                             ****ORCA TERMINATED NORMALLY****
TOTAL RUN TIME: 0 days 0 hours 1 minutes 5 seconds 28 msec
