                         Program Version 4.1.2  - RELEASE  -
|  1> #Run DFT-D3 single point of the dimer
|  2> ! wB97X-D3 def2-TZVP TIGHTSCF CHELPG PMODEL PAL8
|  3>
|  4> %base "5-42_DFT_AB"
|  5>
|  6> %scf
|  7> MaxIter 1000
|  8> end
|  9>
| 10> * xyz 0 1
| 11>   C                      -2.327879            -1.689422            -8.778547
| 12>   O                      -1.414397            -2.216028            -7.842568
| 13>   H                      -1.431879            -3.135477            -8.159358
| 14>   H                      -1.907718            -1.481460            -9.705796
| 15>   H                      -3.138934            -2.311804            -8.966968
| 16>   H                      -2.843604            -0.810400            -8.339234
| 17>   C                      -0.177212            -3.464075            -5.008626
| 18>   O                      0.599243             -4.170282            -5.964657
| 19>   H                      0.221244             -3.985069            -6.835843
| 20>   H                      -0.052295            -2.377234            -5.075351
| 21>   H                      -1.279764            -3.683136            -5.182851
| 22>   H                      0.041622             -3.838165            -4.030560
| 23> *
| 24>
| 25> #Run DFT-D3 single point of the molecule with dimer basis set
| 26> $new_job
| 27> %base "5-42_DFT_A"
| 28> ! wB97X-D3 def2-TZVP TIGHTSCF CHELPG PMODEL
| 29>
| 30> %scf
| 31> MaxIter 1000
| 32> end
| 33>
| 34> * xyz 0 1
| 35>   C                      -2.327879            -1.689422            -8.778547
| 36>   O                      -1.414397            -2.216028            -7.842568
| 37>   H                      -1.431879            -3.135477            -8.159358
| 38>   H                      -1.907718            -1.481460            -9.705796
| 39>   H                      -3.138934            -2.311804            -8.966968
| 40>   H                      -2.843604            -0.810400            -8.339234
| 41>   C                    : -0.177212            -3.464075            -5.008626
| 42>   O                    : 0.599243             -4.170282            -5.964657
| 43>   H                    : 0.221244             -3.985069            -6.835843
| 44>   H                    : -0.052295            -2.377234            -5.075351
| 45>   H                    : -1.279764            -3.683136            -5.182851
| 46>   H                    : 0.041622             -3.838165            -4.030560
| 47> *
| 48>
| 49> #Run DFT-D3 single point of the particle with dimer basis set
| 50> $new_job
| 51> %base "5-42_DFT_B"
| 52> ! wB97X-D3 def2-TZVP TIGHTSCF CHELPG PMODEL
| 53>
| 54> %scf
| 55> MaxIter 1000
| 56> end
| 57>
| 58> * xyz 0 1
| 59>   C                    : -2.327879            -1.689422            -8.778547
| 60>   O                    : -1.414397            -2.216028            -7.842568
| 61>   H                    : -1.431879            -3.135477            -8.159358
| 62>   H                    : -1.907718            -1.481460            -9.705796
| 63>   H                    : -3.138934            -2.311804            -8.966968
| 64>   H                    : -2.843604            -0.810400            -8.339234
| 65>   C                      -0.177212            -3.464075            -5.008626
| 66>   O                      0.599243             -4.170282            -5.964657
| 67>   H                      0.221244             -3.985069            -6.835843
| 68>   H                      -0.052295            -2.377234            -5.075351
| 69>   H                      -1.279764            -3.683136            -5.182851
| 70>   H                      0.041622             -3.838165            -4.030560
| 71> *
| 72>
| 73>                          ****END OF INPUT****
 Total Charge           Charge          ....    0
 Multiplicity           Mult            ....    1
 Number of Electrons    NEL             ....   36
Dispersion correction           -0.001709987
FINAL SINGLE POINT ENERGY      -231.463271196266
Dispersion correction           -0.000207047
FINAL SINGLE POINT ENERGY      -115.726876885017

CARTESIAN COORDINATES (ANGSTROEM)
---------------------------------
  C     -2.327879   -1.689422   -8.778547
  O     -1.414397   -2.216028   -7.842568
  H     -1.431879   -3.135477   -8.159358
  H     -1.907718   -1.481460   -9.705796
  H     -3.138934   -2.311804   -8.966968
  H     -2.843604   -0.810400   -8.339234
  C     -0.177212   -3.464075   -5.008626
  O      0.599243   -4.170282   -5.964657
  H      0.221244   -3.985069   -6.835843
  H     -0.052295   -2.377234   -5.075351
  H     -1.279764   -3.683136   -5.182851
  H      0.041622   -3.838165   -4.030560

 Multiplicity           Mult            ....    1
 Number of Electrons    NEL             ....   18
 Basis Dimension        Dim             ....  172

ORBITAL ENERGIES
----------------

  NO   OCC          E(Eh)            E(eV)
   0   2.0000     -19.230982      -523.3016
   1   2.0000     -10.316102      -280.7154
   2   2.0000      -1.133563       -30.8458
   3   2.0000      -0.793453       -21.5910
   4   2.0000      -0.608004       -16.5446
   5   2.0000      -0.540781       -14.7154
   6   2.0000      -0.526780       -14.3344
   7   2.0000      -0.434978       -11.8364
   8   2.0000      -0.372845       -10.1456
   9   0.0000       0.071790         1.9535
  10   0.0000       0.120046         3.2666
  11   0.0000       0.149390         4.0651
  12   0.0000       0.181195         4.9306
  13   0.0000       0.194779         5.3002

MULLIKEN ATOMIC CHARGES
-----------------------
   0 C :    0.000060
   1 O :   -0.000420
   2 H :   -0.002077
   3 H :   -0.000019
   4 H :   -0.000002
   5 H :   -0.000010
   6 C :   -0.175186
   7 O :   -0.473717
   8 H :    0.316560
   9 H :    0.107925
  10 H :    0.098765
  11 H :    0.128120
Sum of atomic charges:   -0.0000000

LOEWDIN ATOMIC CHARGES
----------------------
   0 C :   -0.000212
   1 O :   -0.003888
   2 H :   -0.003638
   3 H :   -0.000003
   4 H :   -0.000007
   5 H :   -0.000009
   6 C :   -0.382408
   7 O :   -0.082248
   8 H :    0.172714
   9 H :    0.095002
  10 H :    0.102166
  11 H :    0.102529

  Mayer bond orders larger than 0.1
B(  6-C ,  7-O ) :   0.9913 B(  6-C ,  9-H ) :   0.9724 B(  6-C , 10-H ) :   0.9820
B(  6-C , 11-H ) :   0.9730 B(  7-O ,  8-H ) :   0.9033

Dispersion correction           -0.000240475
FINAL SINGLE POINT ENERGY      -115.735544711204

DIPOLE MOMENT
-------------
                                X             Y             Z
Electronic contribution:      1.20620      -0.91243      -1.04954
Nuclear contribution   :     -1.74451       1.29566       0.89080
                        -----------------------------------------
Total Dipole Moment    :     -0.53831       0.38323      -0.15874
                        -----------------------------------------
Magnitude (a.u.)       :      0.67959
Magnitude (Debye)      :      1.72738

Rotational constants in cm-1:     4.208580     0.825526     0.797264
Rotational constants in MHz : 126170.039589 24748.640147 23901.368330

                             ****ORCA TERMINATED NORMALLY****
TOTAL RUN TIME: 0 days 0 hours 0 minutes 56 seconds 619 msec
