                         Program Version 4.1.2  - RELEASE  -
|  1> #Run DFT-D3 single point of the dimer
|  2> ! wB97X-D3 def2-TZVP TIGHTSCF CHELPG PMODEL PAL8
|  3>
|  4> %base "3-183_DFT_AB"
|  5>
|  6> %scf
|  7> MaxIter 1000
|  8> end
|  9>
| 10> * xyz 0 1
| 11>   C                      -4.097627            -10.847332           -4.777441
| 12>   O                      -5.100593            -10.002243           -4.339253
| 13>   H                      -5.156227            -10.011735           -3.378805
| 14>   H                      -3.200352            -10.727107           -4.173279
| 15>   H                      -4.469498            -11.846992           -4.719496
| 16>   H                      -3.941931            -10.717463           -5.809068
| 17>   C                      -2.793664            -8.134331            -3.088028
| 18>   O                      -3.895256            -7.291389            -3.248590
| 19>   H                      -4.031382            -6.886609            -2.384556
| 20>   H                      -2.518803            -8.453922            -4.049778
| 21>   H                      -2.005301            -7.562429            -2.620502
| 22>   H                      -2.992806            -9.027853            -2.518333
| 23> *
| 24>
| 25> #Run DFT-D3 single point of the molecule with dimer basis set
| 26> $new_job
| 27> %base "3-183_DFT_A"
| 28> ! wB97X-D3 def2-TZVP TIGHTSCF CHELPG PMODEL
| 29>
| 30> %scf
| 31> MaxIter 1000
| 32> end
| 33>
| 34> * xyz 0 1
| 35>   C                      -4.097627            -10.847332           -4.777441
| 36>   O                      -5.100593            -10.002243           -4.339253
| 37>   H                      -5.156227            -10.011735           -3.378805
| 38>   H                      -3.200352            -10.727107           -4.173279
| 39>   H                      -4.469498            -11.846992           -4.719496
| 40>   H                      -3.941931            -10.717463           -5.809068
| 41>   C                    : -2.793664            -8.134331            -3.088028
| 42>   O                    : -3.895256            -7.291389            -3.248590
| 43>   H                    : -4.031382            -6.886609            -2.384556
| 44>   H                    : -2.518803            -8.453922            -4.049778
| 45>   H                    : -2.005301            -7.562429            -2.620502
| 46>   H                    : -2.992806            -9.027853            -2.518333
| 47> *
| 48>
| 49> #Run DFT-D3 single point of the particle with dimer basis set
| 50> $new_job
| 51> %base "3-183_DFT_B"
| 52> ! wB97X-D3 def2-TZVP TIGHTSCF CHELPG PMODEL
| 53>
| 54> %scf
| 55> MaxIter 1000
| 56> end
| 57>
| 58> * xyz 0 1
| 59>   C                    : -4.097627            -10.847332           -4.777441
| 60>   O                    : -5.100593            -10.002243           -4.339253
| 61>   H                    : -5.156227            -10.011735           -3.378805
| 62>   H                    : -3.200352            -10.727107           -4.173279
| 63>   H                    : -4.469498            -11.846992           -4.719496
| 64>   H                    : -3.941931            -10.717463           -5.809068
| 65>   C                      -2.793664            -8.134331            -3.088028
| 66>   O                      -3.895256            -7.291389            -3.248590
| 67>   H                      -4.031382            -6.886609            -2.384556
| 68>   H                      -2.518803            -8.453922            -4.049778
| 69>   H                      -2.005301            -7.562429            -2.620502
| 70>   H                      -2.992806            -9.027853            -2.518333
| 71> *
| 72>
| 73>                          ****END OF INPUT****
 Total Charge           Charge          ....    0
 Multiplicity           Mult            ....    1
 Number of Electrons    NEL             ....   36
Dispersion correction           -0.002239506
FINAL SINGLE POINT ENERGY      -231.465903729585
Dispersion correction           -0.000211800
FINAL SINGLE POINT ENERGY      -115.733083608795

CARTESIAN COORDINATES (ANGSTROEM)
---------------------------------
  C     -4.097627  -10.847332   -4.777441
  O     -5.100593  -10.002243   -4.339253
  H     -5.156227  -10.011735   -3.378805
  H     -3.200352  -10.727107   -4.173279
  H     -4.469498  -11.846992   -4.719496
  H     -3.941931  -10.717463   -5.809068
  C     -2.793664   -8.134331   -3.088028
  O     -3.895256   -7.291389   -3.248590
  H     -4.031382   -6.886609   -2.384556
  H     -2.518803   -8.453922   -4.049778
  H     -2.005301   -7.562429   -2.620502
  H     -2.992806   -9.027853   -2.518333

 Multiplicity           Mult            ....    1
 Number of Electrons    NEL             ....   18
 Basis Dimension        Dim             ....  172

ORBITAL ENERGIES
----------------

  NO   OCC          E(Eh)            E(eV)
   0   2.0000     -19.229011      -523.2480
   1   2.0000     -10.302624      -280.3487
   2   2.0000      -1.142324       -31.0842
   3   2.0000      -0.797970       -21.7139
   4   2.0000      -0.613833       -16.7032
   5   2.0000      -0.549937       -14.9646
   6   2.0000      -0.529961       -14.4210
   7   2.0000      -0.437718       -11.9109
   8   2.0000      -0.372523       -10.1369
   9   0.0000       0.092315         2.5120
  10   0.0000       0.120496         3.2789
  11   0.0000       0.163269         4.4428
  12   0.0000       0.170711         4.6453
  13   0.0000       0.194472         5.2919

MULLIKEN ATOMIC CHARGES
-----------------------
   0 C :    0.001350
   1 O :    0.001688
   2 H :   -0.001379
   3 H :   -0.002259
   4 H :   -0.000150
   5 H :   -0.000492
   6 C :   -0.159609
   7 O :   -0.469001
   8 H :    0.311548
   9 H :    0.111418
  10 H :    0.107984
  11 H :    0.098901
Sum of atomic charges:   -0.0000000

LOEWDIN ATOMIC CHARGES
----------------------
   0 C :   -0.008467
   1 O :   -0.003397
   2 H :   -0.003594
   3 H :   -0.006118
   4 H :   -0.000034
   5 H :   -0.000198
   6 C :   -0.382472
   7 O :   -0.060576
   8 H :    0.172527
   9 H :    0.102742
  10 H :    0.094969
  11 H :    0.094617

  Mayer bond orders larger than 0.1
B(  6-C ,  7-O ) :   0.9977 B(  6-C ,  9-H ) :   0.9804 B(  6-C , 10-H ) :   0.9798
B(  6-C , 11-H ) :   0.9730 B(  7-O ,  8-H ) :   0.9022

Dispersion correction           -0.000210277
FINAL SINGLE POINT ENERGY      -115.734533013765

DIPOLE MOMENT
-------------
                                X             Y             Z
Electronic contribution:     -1.40309       1.00676      -0.34923
Nuclear contribution   :      1.74973      -1.07611       0.93813
                        -----------------------------------------
Total Dipole Moment    :      0.34664      -0.06935       0.58890
                        -----------------------------------------
Magnitude (a.u.)       :      0.68686
Magnitude (Debye)      :      1.74585

Rotational constants in cm-1:     4.370253     0.862985     0.829839
Rotational constants in MHz : 131016.895619 25871.641449 24877.950052

                             ****ORCA TERMINATED NORMALLY****
TOTAL RUN TIME: 0 days 0 hours 5 minutes 50 seconds 942 msec
