                         Program Version 4.1.2  - RELEASE  -
|  1> #Run DFT-D3 single point of the dimer
|  2> ! wB97X-D3 def2-TZVP TIGHTSCF CHELPG PMODEL PAL8
|  3>
|  4> %base "8-168_DFT_AB"
|  5>
|  6> %scf
|  7> MaxIter 1000
|  8> end
|  9>
| 10> * xyz 0 1
| 11>   C                      -5.503489            -1.823382            -3.854024
| 12>   O                      -6.297757            -0.649085            -3.729353
| 13>   H                      -6.427129            -0.363208            -4.663941
| 14>   H                      -6.107571            -2.712703            -4.141055
| 15>   H                      -4.877116            -1.810856            -4.734280
| 16>   H                      -4.867101            -2.034921            -2.975977
| 17>   C                      -8.405446            -1.164534            -6.472266
| 18>   O                      -7.820639            -0.013318            -6.108286
| 19>   H                      -8.464241            0.721530             -6.265610
| 20>   H                      -8.228587            -1.262033            -7.582282
| 21>   H                      -7.922289            -2.024106            -5.819108
| 22>   H                      -9.511411            -1.107295            -6.351230
| 23> *
| 24>
| 25> #Run DFT-D3 single point of the molecule with dimer basis set
| 26> $new_job
| 27> %base "8-168_DFT_A"
| 28> ! wB97X-D3 def2-TZVP TIGHTSCF CHELPG PMODEL
| 29>
| 30> %scf
| 31> MaxIter 1000
| 32> end
| 33>
| 34> * xyz 0 1
| 35>   C                      -5.503489            -1.823382            -3.854024
| 36>   O                      -6.297757            -0.649085            -3.729353
| 37>   H                      -6.427129            -0.363208            -4.663941
| 38>   H                      -6.107571            -2.712703            -4.141055
| 39>   H                      -4.877116            -1.810856            -4.734280
| 40>   H                      -4.867101            -2.034921            -2.975977
| 41>   C                    : -8.405446            -1.164534            -6.472266
| 42>   O                    : -7.820639            -0.013318            -6.108286
| 43>   H                    : -8.464241            0.721530             -6.265610
| 44>   H                    : -8.228587            -1.262033            -7.582282
| 45>   H                    : -7.922289            -2.024106            -5.819108
| 46>   H                    : -9.511411            -1.107295            -6.351230
| 47> *
| 48>
| 49> #Run DFT-D3 single point of the particle with dimer basis set
| 50> $new_job
| 51> %base "8-168_DFT_B"
| 52> ! wB97X-D3 def2-TZVP TIGHTSCF CHELPG PMODEL
| 53>
| 54> %scf
| 55> MaxIter 1000
| 56> end
| 57>
| 58> * xyz 0 1
| 59>   C                    : -5.503489            -1.823382            -3.854024
| 60>   O                    : -6.297757            -0.649085            -3.729353
| 61>   H                    : -6.427129            -0.363208            -4.663941
| 62>   H                    : -6.107571            -2.712703            -4.141055
| 63>   H                    : -4.877116            -1.810856            -4.734280
| 64>   H                    : -4.867101            -2.034921            -2.975977
| 65>   C                      -8.405446            -1.164534            -6.472266
| 66>   O                      -7.820639            -0.013318            -6.108286
| 67>   H                      -8.464241            0.721530             -6.265610
| 68>   H                      -8.228587            -1.262033            -7.582282
| 69>   H                      -7.922289            -2.024106            -5.819108
| 70>   H                      -9.511411            -1.107295            -6.351230
| 71> *
| 72>
| 73>                          ****END OF INPUT****
 Total Charge           Charge          ....    0
 Multiplicity           Mult            ....    1
 Number of Electrons    NEL             ....   36
Dispersion correction           -0.001951694
FINAL SINGLE POINT ENERGY      -231.460642884416
Dispersion correction           -0.000243697
FINAL SINGLE POINT ENERGY      -115.730740602618

CARTESIAN COORDINATES (ANGSTROEM)
---------------------------------
  C     -5.503489   -1.823382   -3.854024
  O     -6.297757   -0.649085   -3.729353
  H     -6.427129   -0.363208   -4.663941
  H     -6.107571   -2.712703   -4.141055
  H     -4.877116   -1.810856   -4.734280
  H     -4.867101   -2.034921   -2.975977
  C     -8.405446   -1.164534   -6.472266
  O     -7.820639   -0.013318   -6.108286
  H     -8.464241    0.721530   -6.265610
  H     -8.228587   -1.262033   -7.582282
  H     -7.922289   -2.024106   -5.819108
  H     -9.511411   -1.107295   -6.351230

 Multiplicity           Mult            ....    1
 Number of Electrons    NEL             ....   18
 Basis Dimension        Dim             ....  172

ORBITAL ENERGIES
----------------

  NO   OCC          E(Eh)            E(eV)
   0   2.0000     -19.231220      -523.3081
   1   2.0000     -10.321371      -280.8588
   2   2.0000      -1.157695       -31.5025
   3   2.0000      -0.777403       -21.1542
   4   2.0000      -0.622852       -16.9487
   5   2.0000      -0.547767       -14.9055
   6   2.0000      -0.526737       -14.3333
   7   2.0000      -0.425915       -11.5897
   8   2.0000      -0.363018        -9.8782
   9   0.0000       0.092996         2.5306
  10   0.0000       0.114315         3.1107
  11   0.0000       0.156472         4.2578
  12   0.0000       0.185174         5.0388
  13   0.0000       0.192510         5.2385

MULLIKEN ATOMIC CHARGES
-----------------------
   0 C :    0.002140
   1 O :   -0.000928
   2 H :   -0.006625
   3 H :   -0.000897
   4 H :   -0.000758
   5 H :    0.000018
   6 C :   -0.156457
   7 O :   -0.447350
   8 H :    0.317044
   9 H :    0.089295
  10 H :    0.109088
  11 H :    0.095430
Sum of atomic charges:    0.0000000

LOEWDIN ATOMIC CHARGES
----------------------
   0 C :   -0.003350
   1 O :   -0.005665
   2 H :   -0.032150
   3 H :   -0.002240
   4 H :   -0.000171
   5 H :   -0.000014
   6 C :   -0.453654
   7 O :   -0.010138
   8 H :    0.192244
   9 H :    0.097014
  10 H :    0.124716
  11 H :    0.093408

  Mayer bond orders larger than 0.1
B(  6-C ,  7-O ) :   0.9949 B(  6-C ,  9-H ) :   0.9761 B(  6-C , 10-H ) :   0.9695
B(  6-C , 11-H ) :   0.9795 B(  7-O ,  8-H ) :   0.8891

Dispersion correction           -0.000214585
FINAL SINGLE POINT ENERGY      -115.723250665270

DIPOLE MOMENT
-------------
                                X             Y             Z
Electronic contribution:      0.88207       1.45251       0.57639
Nuclear contribution   :     -1.50518      -1.34023      -0.78519
                        -----------------------------------------
Total Dipole Moment    :     -0.62312       0.11229      -0.20880
                        -----------------------------------------
Magnitude (a.u.)       :      0.66669
Magnitude (Debye)      :      1.69460

Rotational constants in cm-1:     3.853910     0.912850     0.865820
Rotational constants in MHz : 115537.305366 27366.544146 25956.630041

                             ****ORCA TERMINATED NORMALLY****
TOTAL RUN TIME: 0 days 0 hours 0 minutes 48 seconds 711 msec
