                         Program Version 4.1.2  - RELEASE  -
|  1> #Run DFT-D3 single point of the dimer
|  2> ! wB97X-D3 def2-TZVP TIGHTSCF CHELPG PMODEL PAL8
|  3>
|  4> %base "16-100_DFT_AB"
|  5>
|  6> %scf
|  7> MaxIter 1000
|  8> end
|  9>
| 10> * xyz 0 1
| 11>   C                      5.434958             2.875792             -9.733265
| 12>   O                      6.885886             2.877586             -9.509406
| 13>   H                      7.289825             2.013666             -9.590393
| 14>   H                      5.137906             3.799958             -10.234967
| 15>   H                      5.202899             1.890700             -10.161595
| 16>   H                      4.848795             2.960356             -8.769228
| 17>   C                      4.847533             5.416665             -6.447345
| 18>   O                      4.423840             6.770263             -6.214840
| 19>   H                      3.546282             6.969235             -6.629189
| 20>   H                      5.702682             5.130706             -5.882007
| 21>   H                      3.938447             4.807156             -6.241691
| 22>   H                      5.097715             5.377274             -7.523697
| 23> *
| 24>
| 25> #Run DFT-D3 single point of the molecule with dimer basis set
| 26> $new_job
| 27> %base "16-100_DFT_A"
| 28> ! wB97X-D3 def2-TZVP TIGHTSCF CHELPG PMODEL
| 29>
| 30> %scf
| 31> MaxIter 1000
| 32> end
| 33>
| 34> * xyz 0 1
| 35>   C                      5.434958             2.875792             -9.733265
| 36>   O                      6.885886             2.877586             -9.509406
| 37>   H                      7.289825             2.013666             -9.590393
| 38>   H                      5.137906             3.799958             -10.234967
| 39>   H                      5.202899             1.890700             -10.161595
| 40>   H                      4.848795             2.960356             -8.769228
| 41>   C                    : 4.847533             5.416665             -6.447345
| 42>   O                    : 4.423840             6.770263             -6.214840
| 43>   H                    : 3.546282             6.969235             -6.629189
| 44>   H                    : 5.702682             5.130706             -5.882007
| 45>   H                    : 3.938447             4.807156             -6.241691
| 46>   H                    : 5.097715             5.377274             -7.523697
| 47> *
| 48>
| 49> #Run DFT-D3 single point of the particle with dimer basis set
| 50> $new_job
| 51> %base "16-100_DFT_B"
| 52> ! wB97X-D3 def2-TZVP TIGHTSCF CHELPG PMODEL
| 53>
| 54> %scf
| 55> MaxIter 1000
| 56> end
| 57>
| 58> * xyz 0 1
| 59>   C                    : 5.434958             2.875792             -9.733265
| 60>   O                    : 6.885886             2.877586             -9.509406
| 61>   H                    : 7.289825             2.013666             -9.590393
| 62>   H                    : 5.137906             3.799958             -10.234967
| 63>   H                    : 5.202899             1.890700             -10.161595
| 64>   H                    : 4.848795             2.960356             -8.769228
| 65>   C                      4.847533             5.416665             -6.447345
| 66>   O                      4.423840             6.770263             -6.214840
| 67>   H                      3.546282             6.969235             -6.629189
| 68>   H                      5.702682             5.130706             -5.882007
| 69>   H                      3.938447             4.807156             -6.241691
| 70>   H                      5.097715             5.377274             -7.523697
| 71> *
| 72>
| 73>                          ****END OF INPUT****
 Total Charge           Charge          ....    0
 Multiplicity           Mult            ....    1
 Number of Electrons    NEL             ....   36
Dispersion correction           -0.001315073
FINAL SINGLE POINT ENERGY      -231.457431006953
Dispersion correction           -0.000273540
FINAL SINGLE POINT ENERGY      -115.727311417131

CARTESIAN COORDINATES (ANGSTROEM)
---------------------------------
  C      5.434958    2.875792   -9.733265
  O      6.885886    2.877586   -9.509406
  H      7.289825    2.013666   -9.590393
  H      5.137906    3.799958  -10.234967
  H      5.202899    1.890700  -10.161595
  H      4.848795    2.960356   -8.769228
  C      4.847533    5.416665   -6.447345
  O      4.423840    6.770263   -6.214840
  H      3.546282    6.969235   -6.629189
  H      5.702682    5.130706   -5.882007
  H      3.938447    4.807156   -6.241691
  H      5.097715    5.377274   -7.523697

 Multiplicity           Mult            ....    1
 Number of Electrons    NEL             ....   18
 Basis Dimension        Dim             ....  172

ORBITAL ENERGIES
----------------

  NO   OCC          E(Eh)            E(eV)
   0   2.0000     -19.224360      -523.1214
   1   2.0000     -10.315735      -280.7054
   2   2.0000      -1.118304       -30.4306
   3   2.0000      -0.793028       -21.5794
   4   2.0000      -0.595964       -16.2170
   5   2.0000      -0.540920       -14.7192
   6   2.0000      -0.536906       -14.6100
   7   2.0000      -0.422944       -11.5089
   8   2.0000      -0.365878        -9.9561
   9   0.0000       0.083856         2.2818
  10   0.0000       0.110204         2.9988
  11   0.0000       0.148993         4.0543
  12   0.0000       0.166070         4.5190
  13   0.0000       0.176653         4.8070

MULLIKEN ATOMIC CHARGES
-----------------------
   0 C :   -0.001642
   1 O :    0.000249
   2 H :    0.000008
   3 H :    0.000335
   4 H :   -0.000181
   5 H :   -0.001335
   6 C :   -0.154658
   7 O :   -0.500574
   8 H :    0.319473
   9 H :    0.127672
  10 H :    0.105172
  11 H :    0.105482
Sum of atomic charges:   -0.0000000

LOEWDIN ATOMIC CHARGES
----------------------
   0 C :   -0.003163
   1 O :   -0.000046
   2 H :   -0.000006
   3 H :   -0.000516
   4 H :   -0.000045
   5 H :   -0.002163
   6 C :   -0.360597
   7 O :   -0.120637
   8 H :    0.182636
   9 H :    0.101121
  10 H :    0.102603
  11 H :    0.100813

  Mayer bond orders larger than 0.1
B(  6-C ,  7-O ) :   0.9754 B(  6-C ,  9-H ) :   0.9636 B(  6-C , 10-H ) :   0.9853
B(  6-C , 11-H ) :   0.9840 B(  7-O ,  8-H ) :   0.8900

Dispersion correction           -0.000231484
FINAL SINGLE POINT ENERGY      -115.729403046302

DIPOLE MOMENT
-------------
                                X             Y             Z
Electronic contribution:     -0.25007       1.57761       0.48151
Nuclear contribution   :     -0.11496      -2.02001      -0.83328
                        -----------------------------------------
Total Dipole Moment    :     -0.36502      -0.44240      -0.35177
                        -----------------------------------------
Magnitude (a.u.)       :      0.67283
Magnitude (Debye)      :      1.71020

Rotational constants in cm-1:     4.181825     0.814748     0.785967
Rotational constants in MHz : 125367.963205 24425.541060 23562.704578

                             ****ORCA TERMINATED NORMALLY****
TOTAL RUN TIME: 0 days 0 hours 1 minutes 4 seconds 606 msec
