                         Program Version 4.1.2  - RELEASE  -
|  1> #Run DFT-D3 single point of the dimer
|  2> ! wB97X-D3 def2-TZVP TIGHTSCF CHELPG PMODEL PAL8
|  3>
|  4> %base "6-6_DFT_AB"
|  5>
|  6> %scf
|  7> MaxIter 1000
|  8> end
|  9>
| 10> * xyz 0 1
| 11>   C                      3.221137             7.634066             8.195643
| 12>   O                      3.982834             7.118366             9.205529
| 13>   H                      4.894659             7.152275             8.965242
| 14>   H                      3.626544             8.552249             7.826368
| 15>   H                      3.290289             6.915142             7.335799
| 16>   H                      2.201108             7.700457             8.443460
| 17>   C                      -0.142931            8.263179             6.533669
| 18>   O                      -0.361188            9.419790             5.738587
| 19>   H                      0.199142             10.107396            6.079227
| 20>   H                      -0.909813            7.509194             6.282827
| 21>   H                      0.815021             7.808487             6.252592
| 22>   H                      -0.223241            8.409902             7.572470
| 23> *
| 24>
| 25> #Run DFT-D3 single point of the molecule with dimer basis set
| 26> $new_job
| 27> %base "6-6_DFT_A"
| 28> ! wB97X-D3 def2-TZVP TIGHTSCF CHELPG PMODEL
| 29>
| 30> %scf
| 31> MaxIter 1000
| 32> end
| 33>
| 34> * xyz 0 1
| 35>   C                      3.221137             7.634066             8.195643
| 36>   O                      3.982834             7.118366             9.205529
| 37>   H                      4.894659             7.152275             8.965242
| 38>   H                      3.626544             8.552249             7.826368
| 39>   H                      3.290289             6.915142             7.335799
| 40>   H                      2.201108             7.700457             8.443460
| 41>   C                    : -0.142931            8.263179             6.533669
| 42>   O                    : -0.361188            9.419790             5.738587
| 43>   H                    : 0.199142             10.107396            6.079227
| 44>   H                    : -0.909813            7.509194             6.282827
| 45>   H                    : 0.815021             7.808487             6.252592
| 46>   H                    : -0.223241            8.409902             7.572470
| 47> *
| 48>
| 49> #Run DFT-D3 single point of the particle with dimer basis set
| 50> $new_job
| 51> %base "6-6_DFT_B"
| 52> ! wB97X-D3 def2-TZVP TIGHTSCF CHELPG PMODEL
| 53>
| 54> %scf
| 55> MaxIter 1000
| 56> end
| 57>
| 58> * xyz 0 1
| 59>   C                    : 3.221137             7.634066             8.195643
| 60>   O                    : 3.982834             7.118366             9.205529
| 61>   H                    : 4.894659             7.152275             8.965242
| 62>   H                    : 3.626544             8.552249             7.826368
| 63>   H                    : 3.290289             6.915142             7.335799
| 64>   H                    : 2.201108             7.700457             8.443460
| 65>   C                      -0.142931            8.263179             6.533669
| 66>   O                      -0.361188            9.419790             5.738587
| 67>   H                      0.199142             10.107396            6.079227
| 68>   H                      -0.909813            7.509194             6.282827
| 69>   H                      0.815021             7.808487             6.252592
| 70>   H                      -0.223241            8.409902             7.572470
| 71> *
| 72>
| 73>                          ****END OF INPUT****
 Total Charge           Charge          ....    0
 Multiplicity           Mult            ....    1
 Number of Electrons    NEL             ....   36
Dispersion correction           -0.001464251
FINAL SINGLE POINT ENERGY      -231.467020066693
Dispersion correction           -0.000203949
FINAL SINGLE POINT ENERGY      -115.731329304402

CARTESIAN COORDINATES (ANGSTROEM)
---------------------------------
  C      3.221137    7.634066    8.195643
  O      3.982834    7.118366    9.205529
  H      4.894659    7.152275    8.965242
  H      3.626544    8.552249    7.826368
  H      3.290289    6.915142    7.335799
  H      2.201108    7.700457    8.443460
  C     -0.142931    8.263179    6.533669
  O     -0.361188    9.419790    5.738587
  H      0.199142   10.107396    6.079227
  H     -0.909813    7.509194    6.282827
  H      0.815021    7.808487    6.252592
  H     -0.223241    8.409902    7.572470

 Multiplicity           Mult            ....    1
 Number of Electrons    NEL             ....   18
 Basis Dimension        Dim             ....  172

ORBITAL ENERGIES
----------------

  NO   OCC          E(Eh)            E(eV)
   0   2.0000     -19.228836      -523.2432
   1   2.0000     -10.310021      -280.5499
   2   2.0000      -1.136058       -30.9137
   3   2.0000      -0.798938       -21.7402
   4   2.0000      -0.611109       -16.6291
   5   2.0000      -0.547091       -14.8871
   6   2.0000      -0.523398       -14.2424
   7   2.0000      -0.433927       -11.8078
   8   2.0000      -0.375536       -10.2189
   9   0.0000       0.080473         2.1898
  10   0.0000       0.119822         3.2605
  11   0.0000       0.149046         4.0557
  12   0.0000       0.174118         4.7380
  13   0.0000       0.187186         5.0936

MULLIKEN ATOMIC CHARGES
-----------------------
   0 C :    0.003087
   1 O :   -0.000065
   2 H :   -0.000008
   3 H :   -0.000107
   4 H :   -0.000916
   5 H :   -0.005150
   6 C :   -0.163612
   7 O :   -0.473160
   8 H :    0.310511
   9 H :    0.115628
  10 H :    0.102497
  11 H :    0.111293
Sum of atomic charges:   -0.0000000

LOEWDIN ATOMIC CHARGES
----------------------
   0 C :   -0.005829
   1 O :   -0.000020
   2 H :   -0.000009
   3 H :   -0.000176
   4 H :   -0.001274
   5 H :   -0.004146
   6 C :   -0.374221
   7 O :   -0.075647
   8 H :    0.161296
   9 H :    0.112294
  10 H :    0.100203
  11 H :    0.087530

  Mayer bond orders larger than 0.1
B(  6-C ,  7-O ) :   0.9992 B(  6-C ,  9-H ) :   0.9712 B(  6-C , 10-H ) :   0.9816
B(  6-C , 11-H ) :   0.9723 B(  7-O ,  8-H ) :   0.9037

Dispersion correction           -0.000238572
FINAL SINGLE POINT ENERGY      -115.735113888815

DIPOLE MOMENT
-------------
                                X             Y             Z
Electronic contribution:     -0.35514       1.48955      -0.98223
Nuclear contribution   :      0.77852      -1.51748       1.52690
                        -----------------------------------------
Total Dipole Moment    :      0.42337      -0.02793       0.54467
                        -----------------------------------------
Magnitude (a.u.)       :      0.69043
Magnitude (Debye)      :      1.75494

Rotational constants in cm-1:     4.385696     0.824484     0.800163
Rotational constants in MHz : 131479.852175 24717.402810 23988.297640

                             ****ORCA TERMINATED NORMALLY****
TOTAL RUN TIME: 0 days 0 hours 0 minutes 57 seconds 376 msec
