                         Program Version 4.1.2  - RELEASE  -
|  1> #Run DFT-D3 single point of the dimer
|  2> ! wB97X-D3 def2-TZVP TIGHTSCF CHELPG PMODEL PAL8
|  3>
|  4> %base "14-176_DFT_AB"
|  5>
|  6> %scf
|  7> MaxIter 1000
|  8> end
|  9>
| 10> * xyz 0 1
| 11>   C                      -2.126665            -0.208685            0.998271
| 12>   O                      -1.430245            -0.154038            2.216547
| 13>   H                      -0.941628            -0.970664            2.317989
| 14>   H                      -2.670236            -1.145597            0.868063
| 15>   H                      -2.929450            0.476689             0.924558
| 16>   H                      -1.504944            -0.030401            0.068087
| 17>   C                      -0.902070            -3.157981            3.493314
| 18>   O                      0.133759             -2.613469            2.684156
| 19>   H                      0.577743             -3.368369            2.322678
| 20>   H                      -0.511078            -4.028069            4.052424
| 21>   H                      -1.286494            -2.302959            4.148782
| 22>   H                      -1.672193            -3.504648            2.850024
| 23> *
| 24>
| 25> #Run DFT-D3 single point of the molecule with dimer basis set
| 26> $new_job
| 27> %base "14-176_DFT_A"
| 28> ! wB97X-D3 def2-TZVP TIGHTSCF CHELPG PMODEL
| 29>
| 30> %scf
| 31> MaxIter 1000
| 32> end
| 33>
| 34> * xyz 0 1
| 35>   C                      -2.126665            -0.208685            0.998271
| 36>   O                      -1.430245            -0.154038            2.216547
| 37>   H                      -0.941628            -0.970664            2.317989
| 38>   H                      -2.670236            -1.145597            0.868063
| 39>   H                      -2.929450            0.476689             0.924558
| 40>   H                      -1.504944            -0.030401            0.068087
| 41>   C                    : -0.902070            -3.157981            3.493314
| 42>   O                    : 0.133759             -2.613469            2.684156
| 43>   H                    : 0.577743             -3.368369            2.322678
| 44>   H                    : -0.511078            -4.028069            4.052424
| 45>   H                    : -1.286494            -2.302959            4.148782
| 46>   H                    : -1.672193            -3.504648            2.850024
| 47> *
| 48>
| 49> #Run DFT-D3 single point of the particle with dimer basis set
| 50> $new_job
| 51> %base "14-176_DFT_B"
| 52> ! wB97X-D3 def2-TZVP TIGHTSCF CHELPG PMODEL
| 53>
| 54> %scf
| 55> MaxIter 1000
| 56> end
| 57>
| 58> * xyz 0 1
| 59>   C                    : -2.126665            -0.208685            0.998271
| 60>   O                    : -1.430245            -0.154038            2.216547
| 61>   H                    : -0.941628            -0.970664            2.317989
| 62>   H                    : -2.670236            -1.145597            0.868063
| 63>   H                    : -2.929450            0.476689             0.924558
| 64>   H                    : -1.504944            -0.030401            0.068087
| 65>   C                      -0.902070            -3.157981            3.493314
| 66>   O                      0.133759             -2.613469            2.684156
| 67>   H                      0.577743             -3.368369            2.322678
| 68>   H                      -0.511078            -4.028069            4.052424
| 69>   H                      -1.286494            -2.302959            4.148782
| 70>   H                      -1.672193            -3.504648            2.850024
| 71> *
| 72>
| 73>                          ****END OF INPUT****
 Total Charge           Charge          ....    0
 Multiplicity           Mult            ....    1
 Number of Electrons    NEL             ....   36
Dispersion correction           -0.001921643
FINAL SINGLE POINT ENERGY      -231.473020890727
Dispersion correction           -0.000257649
FINAL SINGLE POINT ENERGY      -115.733306487715

CARTESIAN COORDINATES (ANGSTROEM)
---------------------------------
  C     -2.126665   -0.208685    0.998271
  O     -1.430245   -0.154038    2.216547
  H     -0.941628   -0.970664    2.317989
  H     -2.670236   -1.145597    0.868063
  H     -2.929450    0.476689    0.924558
  H     -1.504944   -0.030401    0.068087
  C     -0.902070   -3.157981    3.493314
  O      0.133759   -2.613469    2.684156
  H      0.577743   -3.368369    2.322678
  H     -0.511078   -4.028069    4.052424
  H     -1.286494   -2.302959    4.148782
  H     -1.672193   -3.504648    2.850024

 Multiplicity           Mult            ....    1
 Number of Electrons    NEL             ....   18
 Basis Dimension        Dim             ....  172

ORBITAL ENERGIES
----------------

  NO   OCC          E(Eh)            E(eV)
   0   2.0000     -19.226604      -523.1825
   1   2.0000     -10.316744      -280.7329
   2   2.0000      -1.137680       -30.9578
   3   2.0000      -0.791230       -21.5305
   4   2.0000      -0.611229       -16.6324
   5   2.0000      -0.544317       -14.8116
   6   2.0000      -0.520053       -14.1514
   7   2.0000      -0.439354       -11.9554
   8   2.0000      -0.371970       -10.1218
   9   0.0000       0.094331         2.5669
  10   0.0000       0.123236         3.3534
  11   0.0000       0.155779         4.2390
  12   0.0000       0.177068         4.8183
  13   0.0000       0.191662         5.2154

MULLIKEN ATOMIC CHARGES
-----------------------
   0 C :   -0.004421
   1 O :   -0.000720
   2 H :    0.002134
   3 H :    0.000274
   4 H :   -0.000218
   5 H :    0.000121
   6 C :   -0.177897
   7 O :   -0.469328
   8 H :    0.304959
   9 H :    0.110285
  10 H :    0.121331
  11 H :    0.113478
Sum of atomic charges:    0.0000000

LOEWDIN ATOMIC CHARGES
----------------------
   0 C :   -0.002514
   1 O :   -0.003521
   2 H :   -0.032094
   3 H :   -0.000251
   4 H :   -0.000054
   5 H :   -0.000093
   6 C :   -0.373284
   7 O :   -0.057058
   8 H :    0.158390
   9 H :    0.098940
  10 H :    0.122858
  11 H :    0.088682

  Mayer bond orders larger than 0.1
B(  6-C ,  7-O ) :   0.9768 B(  6-C ,  9-H ) :   0.9758 B(  6-C , 10-H ) :   0.9761
B(  6-C , 11-H ) :   0.9753 B(  7-O ,  8-H ) :   0.9054

Dispersion correction           -0.000216984
FINAL SINGLE POINT ENERGY      -115.732887599487

DIPOLE MOMENT
-------------
                                X             Y             Z
Electronic contribution:      1.21473       0.78068      -0.93320
Nuclear contribution   :     -1.34616      -1.48520       1.01893
                        -----------------------------------------
Total Dipole Moment    :     -0.13143      -0.70452       0.08573
                        -----------------------------------------
Magnitude (a.u.)       :      0.72178
Magnitude (Debye)      :      1.83463

Rotational constants in cm-1:     4.099313     0.843700     0.800505
Rotational constants in MHz : 122894.314099 25293.493100 23998.532096

                             ****ORCA TERMINATED NORMALLY****
TOTAL RUN TIME: 0 days 0 hours 1 minutes 5 seconds 868 msec
