                         Program Version 4.1.2  - RELEASE  -
|  1> #Run DFT-D3 single point of the dimer
|  2> ! wB97X-D3 def2-TZVP TIGHTSCF CHELPG PMODEL PAL8
|  3>
|  4> %base "21-57_DFT_AB"
|  5>
|  6> %scf
|  7> MaxIter 1000
|  8> end
|  9>
| 10> * xyz 0 1
| 11>   C                      -5.021241            -8.045832            2.494545
| 12>   O                      -5.989247            -7.308026            3.203133
| 13>   H                      -6.772489            -7.218520            2.640288
| 14>   H                      -4.100609            -8.060883            3.101031
| 15>   H                      -5.262900            -9.056602            2.291049
| 16>   H                      -4.833772            -7.685138            1.454732
| 17>   C                      -2.783148            -4.777537            2.431724
| 18>   O                      -1.829021            -5.293584            3.392940
| 19>   H                      -1.867300            -4.710863            4.157976
| 20>   H                      -2.752814            -5.410339            1.611272
| 21>   H                      -3.882283            -4.787825            2.730736
| 22>   H                      -2.585822            -3.705635            2.105126
| 23> *
| 24>
| 25> #Run DFT-D3 single point of the molecule with dimer basis set
| 26> $new_job
| 27> %base "21-57_DFT_A"
| 28> ! wB97X-D3 def2-TZVP TIGHTSCF CHELPG PMODEL
| 29>
| 30> %scf
| 31> MaxIter 1000
| 32> end
| 33>
| 34> * xyz 0 1
| 35>   C                      -5.021241            -8.045832            2.494545
| 36>   O                      -5.989247            -7.308026            3.203133
| 37>   H                      -6.772489            -7.218520            2.640288
| 38>   H                      -4.100609            -8.060883            3.101031
| 39>   H                      -5.262900            -9.056602            2.291049
| 40>   H                      -4.833772            -7.685138            1.454732
| 41>   C                    : -2.783148            -4.777537            2.431724
| 42>   O                    : -1.829021            -5.293584            3.392940
| 43>   H                    : -1.867300            -4.710863            4.157976
| 44>   H                    : -2.752814            -5.410339            1.611272
| 45>   H                    : -3.882283            -4.787825            2.730736
| 46>   H                    : -2.585822            -3.705635            2.105126
| 47> *
| 48>
| 49> #Run DFT-D3 single point of the particle with dimer basis set
| 50> $new_job
| 51> %base "21-57_DFT_B"
| 52> ! wB97X-D3 def2-TZVP TIGHTSCF CHELPG PMODEL
| 53>
| 54> %scf
| 55> MaxIter 1000
| 56> end
| 57>
| 58> * xyz 0 1
| 59>   C                    : -5.021241            -8.045832            2.494545
| 60>   O                    : -5.989247            -7.308026            3.203133
| 61>   H                    : -6.772489            -7.218520            2.640288
| 62>   H                    : -4.100609            -8.060883            3.101031
| 63>   H                    : -5.262900            -9.056602            2.291049
| 64>   H                    : -4.833772            -7.685138            1.454732
| 65>   C                      -2.783148            -4.777537            2.431724
| 66>   O                      -1.829021            -5.293584            3.392940
| 67>   H                      -1.867300            -4.710863            4.157976
| 68>   H                      -2.752814            -5.410339            1.611272
| 69>   H                      -3.882283            -4.787825            2.730736
| 70>   H                      -2.585822            -3.705635            2.105126
| 71> *
| 72>
| 73>                          ****END OF INPUT****
 Total Charge           Charge          ....    0
 Multiplicity           Mult            ....    1
 Number of Electrons    NEL             ....   36
Dispersion correction           -0.001650300
FINAL SINGLE POINT ENERGY      -231.466323135970
Dispersion correction           -0.000248837
FINAL SINGLE POINT ENERGY      -115.733645590879

CARTESIAN COORDINATES (ANGSTROEM)
---------------------------------
  C     -5.021241   -8.045832    2.494545
  O     -5.989247   -7.308026    3.203133
  H     -6.772489   -7.218520    2.640288
  H     -4.100609   -8.060883    3.101031
  H     -5.262900   -9.056602    2.291049
  H     -4.833772   -7.685138    1.454732
  C     -2.783148   -4.777537    2.431724
  O     -1.829021   -5.293584    3.392940
  H     -1.867300   -4.710863    4.157976
  H     -2.752814   -5.410339    1.611272
  H     -3.882283   -4.787825    2.730736
  H     -2.585822   -3.705635    2.105126

 Multiplicity           Mult            ....    1
 Number of Electrons    NEL             ....   18
 Basis Dimension        Dim             ....  172

ORBITAL ENERGIES
----------------

  NO   OCC          E(Eh)            E(eV)
   0   2.0000     -19.236217      -523.4441
   1   2.0000     -10.319679      -280.8128
   2   2.0000      -1.128668       -30.7126
   3   2.0000      -0.797613       -21.7041
   4   2.0000      -0.606112       -16.4932
   5   2.0000      -0.531987       -14.4761
   6   2.0000      -0.519991       -14.1497
   7   2.0000      -0.444185       -12.0869
   8   2.0000      -0.376418       -10.2428
   9   0.0000       0.084980         2.3124
  10   0.0000       0.119161         3.2425
  11   0.0000       0.150003         4.0818
  12   0.0000       0.163095         4.4380
  13   0.0000       0.194002         5.2791

MULLIKEN ATOMIC CHARGES
-----------------------
   0 C :    0.001657
   1 O :   -0.000209
   2 H :   -0.000097
   3 H :   -0.001399
   4 H :    0.000073
   5 H :   -0.000793
   6 C :   -0.180478
   7 O :   -0.472008
   8 H :    0.313674
   9 H :    0.129185
  10 H :    0.102215
  11 H :    0.108181
Sum of atomic charges:   -0.0000000

LOEWDIN ATOMIC CHARGES
----------------------
   0 C :   -0.002035
   1 O :   -0.000399
   2 H :   -0.000091
   3 H :   -0.000911
   4 H :   -0.000008
   5 H :   -0.000626
   6 C :   -0.369453
   7 O :   -0.094805
   8 H :    0.167768
   9 H :    0.094508
  10 H :    0.102929
  11 H :    0.103123

  Mayer bond orders larger than 0.1
B(  6-C ,  7-O ) :   1.0015 B(  6-C ,  9-H ) :   0.9780 B(  6-C , 10-H ) :   0.9684
B(  6-C , 11-H ) :   0.9670 B(  7-O ,  8-H ) :   0.9016

Dispersion correction           -0.000285278
FINAL SINGLE POINT ENERGY      -115.730968702692

DIPOLE MOMENT
-------------
                                X             Y             Z
Electronic contribution:      1.34471      -0.81784       1.15063
Nuclear contribution   :     -1.74438       1.36926      -1.07415
                        -----------------------------------------
Total Dipole Moment    :     -0.39967       0.55142       0.07648
                        -----------------------------------------
Magnitude (a.u.)       :      0.68531
Magnitude (Debye)      :      1.74193

Rotational constants in cm-1:     4.311144     0.787111     0.763091
Rotational constants in MHz : 129244.851564 23596.985530 22876.886110

                             ****ORCA TERMINATED NORMALLY****
TOTAL RUN TIME: 0 days 0 hours 1 minutes 5 seconds 445 msec
