                         Program Version 4.1.2  - RELEASE  -
|  1> #Run DFT-D3 single point of the dimer
|  2> ! wB97X-D3 def2-TZVP TIGHTSCF CHELPG PMODEL PAL8
|  3>
|  4> %base "19-216_DFT_AB"
|  5>
|  6> %scf
|  7> MaxIter 1000
|  8> end
|  9>
| 10> * xyz 0 1
| 11>   C                      7.706852             11.032768            3.316569
| 12>   O                      8.837876             10.276557            3.809578
| 13>   H                      8.568376             9.385786             3.554597
| 14>   H                      7.579536             10.969036            2.189089
| 15>   H                      6.795105             10.734238            3.870401
| 16>   H                      7.911743             12.103925            3.460636
| 17>   C                      7.351712             10.418148            6.752259
| 18>   O                      8.552900             9.749041             6.821038
| 19>   H                      8.791410             9.514841             5.913649
| 20>   H                      6.679711             9.966730             6.111934
| 21>   H                      6.973141             10.565398            7.788941
| 22>   H                      7.435543             11.507002            6.433489
| 23> *
| 24>
| 25> #Run DFT-D3 single point of the molecule with dimer basis set
| 26> $new_job
| 27> %base "19-216_DFT_A"
| 28> ! wB97X-D3 def2-TZVP TIGHTSCF CHELPG PMODEL
| 29>
| 30> %scf
| 31> MaxIter 1000
| 32> end
| 33>
| 34> * xyz 0 1
| 35>   C                      7.706852             11.032768            3.316569
| 36>   O                      8.837876             10.276557            3.809578
| 37>   H                      8.568376             9.385786             3.554597
| 38>   H                      7.579536             10.969036            2.189089
| 39>   H                      6.795105             10.734238            3.870401
| 40>   H                      7.911743             12.103925            3.460636
| 41>   C                    : 7.351712             10.418148            6.752259
| 42>   O                    : 8.552900             9.749041             6.821038
| 43>   H                    : 8.791410             9.514841             5.913649
| 44>   H                    : 6.679711             9.966730             6.111934
| 45>   H                    : 6.973141             10.565398            7.788941
| 46>   H                    : 7.435543             11.507002            6.433489
| 47> *
| 48>
| 49> #Run DFT-D3 single point of the particle with dimer basis set
| 50> $new_job
| 51> %base "19-216_DFT_B"
| 52> ! wB97X-D3 def2-TZVP TIGHTSCF CHELPG PMODEL
| 53>
| 54> %scf
| 55> MaxIter 1000
| 56> end
| 57>
| 58> * xyz 0 1
| 59>   C                    : 7.706852             11.032768            3.316569
| 60>   O                    : 8.837876             10.276557            3.809578
| 61>   H                    : 8.568376             9.385786             3.554597
| 62>   H                    : 7.579536             10.969036            2.189089
| 63>   H                    : 6.795105             10.734238            3.870401
| 64>   H                    : 7.911743             12.103925            3.460636
| 65>   C                      7.351712             10.418148            6.752259
| 66>   O                      8.552900             9.749041             6.821038
| 67>   H                      8.791410             9.514841             5.913649
| 68>   H                      6.679711             9.966730             6.111934
| 69>   H                      6.973141             10.565398            7.788941
| 70>   H                      7.435543             11.507002            6.433489
| 71> *
| 72>
| 73>                          ****END OF INPUT****
 Total Charge           Charge          ....    0
 Multiplicity           Mult            ....    1
 Number of Electrons    NEL             ....   36
Dispersion correction           -0.002373949
FINAL SINGLE POINT ENERGY      -231.468321694257
Dispersion correction           -0.000245503
FINAL SINGLE POINT ENERGY      -115.733267737477

CARTESIAN COORDINATES (ANGSTROEM)
---------------------------------
  C      7.706852   11.032768    3.316569
  O      8.837876   10.276557    3.809578
  H      8.568376    9.385786    3.554597
  H      7.579536   10.969036    2.189089
  H      6.795105   10.734238    3.870401
  H      7.911743   12.103925    3.460636
  C      7.351712   10.418148    6.752259
  O      8.552900    9.749041    6.821038
  H      8.791410    9.514841    5.913649
  H      6.679711    9.966730    6.111934
  H      6.973141   10.565398    7.788941
  H      7.435543   11.507002    6.433489

 Multiplicity           Mult            ....    1
 Number of Electrons    NEL             ....   18
 Basis Dimension        Dim             ....  172

ORBITAL ENERGIES
----------------

  NO   OCC          E(Eh)            E(eV)
   0   2.0000     -19.233913      -523.3814
   1   2.0000     -10.309337      -280.5313
   2   2.0000      -1.149703       -31.2850
   3   2.0000      -0.793880       -21.6026
   4   2.0000      -0.623722       -16.9723
   5   2.0000      -0.548473       -14.9247
   6   2.0000      -0.524172       -14.2634
   7   2.0000      -0.437174       -11.8961
   8   2.0000      -0.369425       -10.0526
   9   0.0000       0.071217         1.9379
  10   0.0000       0.129084         3.5126
  11   0.0000       0.149117         4.0577
  12   0.0000       0.170924         4.6511
  13   0.0000       0.195326         5.3151

MULLIKEN ATOMIC CHARGES
-----------------------
   0 C :    0.003371
   1 O :   -0.002870
   2 H :   -0.000837
   3 H :   -0.000056
   4 H :   -0.003242
   5 H :   -0.000907
   6 C :   -0.169842
   7 O :   -0.456424
   8 H :    0.314562
   9 H :    0.110022
  10 H :    0.121633
  11 H :    0.084591
Sum of atomic charges:    0.0000000

LOEWDIN ATOMIC CHARGES
----------------------
   0 C :   -0.008106
   1 O :   -0.009713
   2 H :   -0.002263
   3 H :   -0.000036
   4 H :   -0.004629
   5 H :   -0.000697
   6 C :   -0.411216
   7 O :   -0.040472
   8 H :    0.179686
   9 H :    0.082342
  10 H :    0.114247
  11 H :    0.100857

  Mayer bond orders larger than 0.1
B(  6-C ,  7-O ) :   1.0084 B(  6-C ,  9-H ) :   0.9805 B(  6-C , 10-H ) :   0.9721
B(  6-C , 11-H ) :   0.9749 B(  7-O ,  8-H ) :   0.9031

Dispersion correction           -0.000229658
FINAL SINGLE POINT ENERGY      -115.730604640684

DIPOLE MOMENT
-------------
                                X             Y             Z
Electronic contribution:      1.55446      -1.07664       0.16319
Nuclear contribution   :     -1.85420       1.15157      -0.75214
                        -----------------------------------------
Total Dipole Moment    :     -0.29975       0.07494      -0.58895
                        -----------------------------------------
Magnitude (a.u.)       :      0.66508
Magnitude (Debye)      :      1.69049

Rotational constants in cm-1:     4.328514     0.868930     0.829730
Rotational constants in MHz : 129765.592747 26049.873586 24874.693080

                             ****ORCA TERMINATED NORMALLY****
TOTAL RUN TIME: 0 days 0 hours 0 minutes 51 seconds 592 msec
