                         Program Version 4.1.2  - RELEASE  -
|  1> #Run DFT-D3 single point of the dimer
|  2> ! wB97X-D3 def2-TZVP TIGHTSCF CHELPG PMODEL PAL8
|  3>
|  4> %base "2-132_DFT_AB"
|  5>
|  6> %scf
|  7> MaxIter 1000
|  8> end
|  9>
| 10> * xyz 0 1
| 11>   C                      0.388477             4.100360             7.695616
| 12>   O                      -0.947411            4.692757             7.944071
| 13>   H                      -1.091817            5.388982             7.292805
| 14>   H                      1.164795             4.910124             7.802517
| 15>   H                      0.723529             3.246645             8.329768
| 16>   H                      0.383064             3.620852             6.668489
| 17>   C                      -2.401199            3.960669             4.937113
| 18>   O                      -1.213836            4.477502             4.306087
| 19>   H                      -0.537656            4.605466             5.001750
| 20>   H                      -2.507452            2.873042             4.620303
| 21>   H                      -2.425411            4.028014             5.979842
| 22>   H                      -3.293349            4.527857             4.574455
| 23> *
| 24>
| 25> #Run DFT-D3 single point of the molecule with dimer basis set
| 26> $new_job
| 27> %base "2-132_DFT_A"
| 28> ! wB97X-D3 def2-TZVP TIGHTSCF CHELPG PMODEL
| 29>
| 30> %scf
| 31> MaxIter 1000
| 32> end
| 33>
| 34> * xyz 0 1
| 35>   C                      0.388477             4.100360             7.695616
| 36>   O                      -0.947411            4.692757             7.944071
| 37>   H                      -1.091817            5.388982             7.292805
| 38>   H                      1.164795             4.910124             7.802517
| 39>   H                      0.723529             3.246645             8.329768
| 40>   H                      0.383064             3.620852             6.668489
| 41>   C                    : -2.401199            3.960669             4.937113
| 42>   O                    : -1.213836            4.477502             4.306087
| 43>   H                    : -0.537656            4.605466             5.001750
| 44>   H                    : -2.507452            2.873042             4.620303
| 45>   H                    : -2.425411            4.028014             5.979842
| 46>   H                    : -3.293349            4.527857             4.574455
| 47> *
| 48>
| 49> #Run DFT-D3 single point of the particle with dimer basis set
| 50> $new_job
| 51> %base "2-132_DFT_B"
| 52> ! wB97X-D3 def2-TZVP TIGHTSCF CHELPG PMODEL
| 53>
| 54> %scf
| 55> MaxIter 1000
| 56> end
| 57>
| 58> * xyz 0 1
| 59>   C                    : 0.388477             4.100360             7.695616
| 60>   O                    : -0.947411            4.692757             7.944071
| 61>   H                    : -1.091817            5.388982             7.292805
| 62>   H                    : 1.164795             4.910124             7.802517
| 63>   H                    : 0.723529             3.246645             8.329768
| 64>   H                    : 0.383064             3.620852             6.668489
| 65>   C                      -2.401199            3.960669             4.937113
| 66>   O                      -1.213836            4.477502             4.306087
| 67>   H                      -0.537656            4.605466             5.001750
| 68>   H                      -2.507452            2.873042             4.620303
| 69>   H                      -2.425411            4.028014             5.979842
| 70>   H                      -3.293349            4.527857             4.574455
| 71> *
| 72>
| 73>                          ****END OF INPUT****
 Total Charge           Charge          ....    0
 Multiplicity           Mult            ....    1
 Number of Electrons    NEL             ....   36
Dispersion correction           -0.002314291
FINAL SINGLE POINT ENERGY      -231.460342625777
Dispersion correction           -0.000286752
FINAL SINGLE POINT ENERGY      -115.727330635017

CARTESIAN COORDINATES (ANGSTROEM)
---------------------------------
  C      0.388477    4.100360    7.695616
  O     -0.947411    4.692757    7.944071
  H     -1.091817    5.388982    7.292805
  H      1.164795    4.910124    7.802517
  H      0.723529    3.246645    8.329768
  H      0.383064    3.620852    6.668489
  C     -2.401199    3.960669    4.937113
  O     -1.213836    4.477502    4.306087
  H     -0.537656    4.605466    5.001750
  H     -2.507452    2.873042    4.620303
  H     -2.425411    4.028014    5.979842
  H     -3.293349    4.527857    4.574455

 Multiplicity           Mult            ....    1
 Number of Electrons    NEL             ....   18
 Basis Dimension        Dim             ....  172

ORBITAL ENERGIES
----------------

  NO   OCC          E(Eh)            E(eV)
   0   2.0000     -19.232827      -523.3518
   1   2.0000     -10.316596      -280.7288
   2   2.0000      -1.125352       -30.6224
   3   2.0000      -0.794076       -21.6079
   4   2.0000      -0.610172       -16.6036
   5   2.0000      -0.532931       -14.5018
   6   2.0000      -0.518354       -14.1051
   7   2.0000      -0.440737       -11.9931
   8   2.0000      -0.372111       -10.1256
   9   0.0000       0.069803         1.8994
  10   0.0000       0.139982         3.8091
  11   0.0000       0.145612         3.9623
  12   0.0000       0.162287         4.4160
  13   0.0000       0.185621         5.0510

MULLIKEN ATOMIC CHARGES
-----------------------
   0 C :    0.001351
   1 O :    0.000179
   2 H :   -0.000953
   3 H :    0.000132
   4 H :   -0.000225
   5 H :   -0.007358
   6 C :   -0.178597
   7 O :   -0.475807
   8 H :    0.316291
   9 H :    0.110118
  10 H :    0.119200
  11 H :    0.115669
Sum of atomic charges:   -0.0000000

LOEWDIN ATOMIC CHARGES
----------------------
   0 C :   -0.005364
   1 O :   -0.004304
   2 H :   -0.004556
   3 H :   -0.000058
   4 H :   -0.000034
   5 H :   -0.005672
   6 C :   -0.365260
   7 O :   -0.097664
   8 H :    0.178421
   9 H :    0.108752
  10 H :    0.086555
  11 H :    0.109185

  Mayer bond orders larger than 0.1
B(  6-C ,  7-O ) :   0.9912 B(  6-C ,  9-H ) :   0.9806 B(  6-C , 10-H ) :   0.9697
B(  6-C , 11-H ) :   0.9753 B(  7-O ,  8-H ) :   0.9036

Dispersion correction           -0.000264146
FINAL SINGLE POINT ENERGY      -115.732099738502

DIPOLE MOMENT
-------------
                                X             Y             Z
Electronic contribution:      1.47130       0.70075      -0.80587
Nuclear contribution   :     -1.52679      -0.80747       1.52846
                        -----------------------------------------
Total Dipole Moment    :     -0.05549      -0.10672       0.72259
                        -----------------------------------------
Magnitude (a.u.)       :      0.73253
Magnitude (Debye)      :      1.86194

Rotational constants in cm-1:     4.218432     0.800405     0.778947
Rotational constants in MHz : 126465.404778 23995.531397 23352.252041

                             ****ORCA TERMINATED NORMALLY****
TOTAL RUN TIME: 0 days 0 hours 6 minutes 20 seconds 360 msec
