                         Program Version 4.1.2  - RELEASE  -
|  1> #Run DFT-D3 single point of the dimer
|  2> ! wB97X-D3 def2-TZVP TIGHTSCF CHELPG PMODEL PAL8
|  3>
|  4> %base "19-36_DFT_AB"
|  5>
|  6> %scf
|  7> MaxIter 1000
|  8> end
|  9>
| 10> * xyz 0 1
| 11>   C                      7.257563             6.735818             4.442851
| 12>   O                      8.386543             7.556154             4.548185
| 13>   H                      9.044606             7.039462             5.018656
| 14>   H                      7.278685             6.428361             3.430371
| 15>   H                      7.463774             5.931356             5.183014
| 16>   H                      6.305239             7.244127             4.579032
| 17>   C                      6.435617             6.801561             8.504808
| 18>   O                      5.582423             5.675321             8.583733
| 19>   H                      6.153218             4.870023             8.502210
| 20>   H                      6.244634             7.321155             7.549957
| 21>   H                      6.047535             7.462052             9.286655
| 22>   H                      7.490550             6.660002             8.846777
| 23> *
| 24>
| 25> #Run DFT-D3 single point of the molecule with dimer basis set
| 26> $new_job
| 27> %base "19-36_DFT_A"
| 28> ! wB97X-D3 def2-TZVP TIGHTSCF CHELPG PMODEL
| 29>
| 30> %scf
| 31> MaxIter 1000
| 32> end
| 33>
| 34> * xyz 0 1
| 35>   C                      7.257563             6.735818             4.442851
| 36>   O                      8.386543             7.556154             4.548185
| 37>   H                      9.044606             7.039462             5.018656
| 38>   H                      7.278685             6.428361             3.430371
| 39>   H                      7.463774             5.931356             5.183014
| 40>   H                      6.305239             7.244127             4.579032
| 41>   C                    : 6.435617             6.801561             8.504808
| 42>   O                    : 5.582423             5.675321             8.583733
| 43>   H                    : 6.153218             4.870023             8.502210
| 44>   H                    : 6.244634             7.321155             7.549957
| 45>   H                    : 6.047535             7.462052             9.286655
| 46>   H                    : 7.490550             6.660002             8.846777
| 47> *
| 48>
| 49> #Run DFT-D3 single point of the particle with dimer basis set
| 50> $new_job
| 51> %base "19-36_DFT_B"
| 52> ! wB97X-D3 def2-TZVP TIGHTSCF CHELPG PMODEL
| 53>
| 54> %scf
| 55> MaxIter 1000
| 56> end
| 57>
| 58> * xyz 0 1
| 59>   C                    : 7.257563             6.735818             4.442851
| 60>   O                    : 8.386543             7.556154             4.548185
| 61>   H                    : 9.044606             7.039462             5.018656
| 62>   H                    : 7.278685             6.428361             3.430371
| 63>   H                    : 7.463774             5.931356             5.183014
| 64>   H                    : 6.305239             7.244127             4.579032
| 65>   C                      6.435617             6.801561             8.504808
| 66>   O                      5.582423             5.675321             8.583733
| 67>   H                      6.153218             4.870023             8.502210
| 68>   H                      6.244634             7.321155             7.549957
| 69>   H                      6.047535             7.462052             9.286655
| 70>   H                      7.490550             6.660002             8.846777
| 71> *
| 72>
| 73>                          ****END OF INPUT****
 Total Charge           Charge          ....    0
 Multiplicity           Mult            ....    1
 Number of Electrons    NEL             ....   36
Dispersion correction           -0.001376922
FINAL SINGLE POINT ENERGY      -231.456441706102
Dispersion correction           -0.000206596
FINAL SINGLE POINT ENERGY      -115.726462638098

CARTESIAN COORDINATES (ANGSTROEM)
---------------------------------
  C      7.257563    6.735818    4.442851
  O      8.386543    7.556154    4.548185
  H      9.044606    7.039462    5.018656
  H      7.278685    6.428361    3.430371
  H      7.463774    5.931356    5.183014
  H      6.305239    7.244127    4.579032
  C      6.435617    6.801561    8.504808
  O      5.582423    5.675321    8.583733
  H      6.153218    4.870023    8.502210
  H      6.244634    7.321155    7.549957
  H      6.047535    7.462052    9.286655
  H      7.490550    6.660002    8.846777

 Multiplicity           Mult            ....    1
 Number of Electrons    NEL             ....   18
 Basis Dimension        Dim             ....  172

ORBITAL ENERGIES
----------------

  NO   OCC          E(Eh)            E(eV)
   0   2.0000     -19.231836      -523.3249
   1   2.0000     -10.314553      -280.6732
   2   2.0000      -1.130452       -30.7612
   3   2.0000      -0.789975       -21.4963
   4   2.0000      -0.604943       -16.4613
   5   2.0000      -0.544726       -14.8227
   6   2.0000      -0.517372       -14.0784
   7   2.0000      -0.432777       -11.7765
   8   2.0000      -0.370120       -10.0715
   9   0.0000       0.084073         2.2877
  10   0.0000       0.115680         3.1478
  11   0.0000       0.153727         4.1831
  12   0.0000       0.161188         4.3861
  13   0.0000       0.188251         5.1226

MULLIKEN ATOMIC CHARGES
-----------------------
   0 C :   -0.001488
   1 O :    0.000222
   2 H :   -0.000121
   3 H :    0.000134
   4 H :    0.001262
   5 H :    0.000208
   6 C :   -0.189706
   7 O :   -0.472308
   8 H :    0.315634
   9 H :    0.114251
  10 H :    0.119128
  11 H :    0.112785
Sum of atomic charges:    0.0000000

LOEWDIN ATOMIC CHARGES
----------------------
   0 C :   -0.002722
   1 O :   -0.000059
   2 H :   -0.000108
   3 H :   -0.000018
   4 H :   -0.000559
   5 H :   -0.000694
   6 C :   -0.399930
   7 O :   -0.093402
   8 H :    0.185159
   9 H :    0.102818
  10 H :    0.106073
  11 H :    0.103440

  Mayer bond orders larger than 0.1
B(  6-C ,  7-O ) :   1.0027 B(  6-C ,  9-H ) :   0.9755 B(  6-C , 10-H ) :   0.9799
B(  6-C , 11-H ) :   0.9706 B(  7-O ,  8-H ) :   0.8980

Dispersion correction           -0.000257910
FINAL SINGLE POINT ENERGY      -115.729233067199

DIPOLE MOMENT
-------------
                                X             Y             Z
Electronic contribution:     -1.06713      -1.43431      -0.02824
Nuclear contribution   :      1.75095       1.37002      -0.01094
                        -----------------------------------------
Total Dipole Moment    :      0.68383      -0.06429      -0.03918
                        -----------------------------------------
Magnitude (a.u.)       :      0.68796
Magnitude (Debye)      :      1.74866

Rotational constants in cm-1:     4.138217     0.832130     0.800804
Rotational constants in MHz : 124060.621074 24946.637378 24007.512429

                             ****ORCA TERMINATED NORMALLY****
TOTAL RUN TIME: 0 days 0 hours 0 minutes 52 seconds 676 msec
