                         Program Version 4.1.2  - RELEASE  -
|  1> #Run DFT-D3 single point of the dimer
|  2> ! wB97X-D3 def2-TZVP TIGHTSCF CHELPG PMODEL PAL8
|  3>
|  4> %base "19-49_DFT_AB"
|  5>
|  6> %scf
|  7> MaxIter 1000
|  8> end
|  9>
| 10> * xyz 0 1
| 11>   C                      -5.106868            5.364977             4.076705
| 12>   O                      -4.860362            6.614453             3.509791
| 13>   H                      -4.817998            6.497377             2.536860
| 14>   H                      -6.164157            5.347365             4.411321
| 15>   H                      -4.952286            4.468046             3.431176
| 16>   H                      -4.499261            5.272901             4.938925
| 17>   C                      -2.210150            4.309729             2.179350
| 18>   O                      -2.099163            3.474252             3.360581
| 19>   H                      -2.770289            2.741984             3.380769
| 20>   H                      -1.626261            3.910436             1.350685
| 21>   H                      -3.312350            4.480102             1.869655
| 22>   H                      -1.674488            5.251024             2.293240
| 23> *
| 24>
| 25> #Run DFT-D3 single point of the molecule with dimer basis set
| 26> $new_job
| 27> %base "19-49_DFT_A"
| 28> ! wB97X-D3 def2-TZVP TIGHTSCF CHELPG PMODEL
| 29>
| 30> %scf
| 31> MaxIter 1000
| 32> end
| 33>
| 34> * xyz 0 1
| 35>   C                      -5.106868            5.364977             4.076705
| 36>   O                      -4.860362            6.614453             3.509791
| 37>   H                      -4.817998            6.497377             2.536860
| 38>   H                      -6.164157            5.347365             4.411321
| 39>   H                      -4.952286            4.468046             3.431176
| 40>   H                      -4.499261            5.272901             4.938925
| 41>   C                    : -2.210150            4.309729             2.179350
| 42>   O                    : -2.099163            3.474252             3.360581
| 43>   H                    : -2.770289            2.741984             3.380769
| 44>   H                    : -1.626261            3.910436             1.350685
| 45>   H                    : -3.312350            4.480102             1.869655
| 46>   H                    : -1.674488            5.251024             2.293240
| 47> *
| 48>
| 49> #Run DFT-D3 single point of the particle with dimer basis set
| 50> $new_job
| 51> %base "19-49_DFT_B"
| 52> ! wB97X-D3 def2-TZVP TIGHTSCF CHELPG PMODEL
| 53>
| 54> %scf
| 55> MaxIter 1000
| 56> end
| 57>
| 58> * xyz 0 1
| 59>   C                    : -5.106868            5.364977             4.076705
| 60>   O                    : -4.860362            6.614453             3.509791
| 61>   H                    : -4.817998            6.497377             2.536860
| 62>   H                    : -6.164157            5.347365             4.411321
| 63>   H                    : -4.952286            4.468046             3.431176
| 64>   H                    : -4.499261            5.272901             4.938925
| 65>   C                      -2.210150            4.309729             2.179350
| 66>   O                      -2.099163            3.474252             3.360581
| 67>   H                      -2.770289            2.741984             3.380769
| 68>   H                      -1.626261            3.910436             1.350685
| 69>   H                      -3.312350            4.480102             1.869655
| 70>   H                      -1.674488            5.251024             2.293240
| 71> *
| 72>
| 73>                          ****END OF INPUT****
 Total Charge           Charge          ....    0
 Multiplicity           Mult            ....    1
 Number of Electrons    NEL             ....   36
Dispersion correction           -0.002240293
FINAL SINGLE POINT ENERGY      -231.461997237347
Dispersion correction           -0.000245977
FINAL SINGLE POINT ENERGY      -115.733436277801

CARTESIAN COORDINATES (ANGSTROEM)
---------------------------------
  C     -5.106868    5.364977    4.076705
  O     -4.860362    6.614453    3.509791
  H     -4.817998    6.497377    2.536860
  H     -6.164157    5.347365    4.411321
  H     -4.952286    4.468046    3.431176
  H     -4.499261    5.272901    4.938925
  C     -2.210150    4.309729    2.179350
  O     -2.099163    3.474252    3.360581
  H     -2.770289    2.741984    3.380769
  H     -1.626261    3.910436    1.350685
  H     -3.312350    4.480102    1.869655
  H     -1.674488    5.251024    2.293240

 Multiplicity           Mult            ....    1
 Number of Electrons    NEL             ....   18
 Basis Dimension        Dim             ....  172

ORBITAL ENERGIES
----------------

  NO   OCC          E(Eh)            E(eV)
   0   2.0000     -19.233192      -523.3618
   1   2.0000     -10.322671      -280.8942
   2   2.0000      -1.116540       -30.3826
   3   2.0000      -0.794896       -21.6302
   4   2.0000      -0.597541       -16.2599
   5   2.0000      -0.538784       -14.6610
   6   2.0000      -0.520406       -14.1610
   7   2.0000      -0.427557       -11.6344
   8   2.0000      -0.372080       -10.1248
   9   0.0000       0.084746         2.3060
  10   0.0000       0.121679         3.3111
  11   0.0000       0.145781         3.9669
  12   0.0000       0.178923         4.8687
  13   0.0000       0.186997         5.0884

MULLIKEN ATOMIC CHARGES
-----------------------
   0 C :    0.005657
   1 O :   -0.000138
   2 H :   -0.001197
   3 H :   -0.000170
   4 H :   -0.005380
   5 H :   -0.002447
   6 C :   -0.175006
   7 O :   -0.490577
   8 H :    0.321819
   9 H :    0.115376
  10 H :    0.107667
  11 H :    0.124397
Sum of atomic charges:   -0.0000000

LOEWDIN ATOMIC CHARGES
----------------------
   0 C :   -0.008512
   1 O :   -0.000497
   2 H :   -0.002535
   3 H :   -0.000043
   4 H :   -0.005511
   5 H :   -0.001463
   6 C :   -0.366590
   7 O :   -0.115723
   8 H :    0.185110
   9 H :    0.095525
  10 H :    0.112410
  11 H :    0.107830

  Mayer bond orders larger than 0.1
B(  6-C ,  7-O ) :   0.9877 B(  6-C ,  9-H ) :   0.9757 B(  6-C , 10-H ) :   0.9736
B(  6-C , 11-H ) :   0.9730 B(  7-O ,  8-H ) :   0.8894

Dispersion correction           -0.000290635
FINAL SINGLE POINT ENERGY      -115.728285957304

DIPOLE MOMENT
-------------
                                X             Y             Z
Electronic contribution:      0.22064      -0.96805       1.56909
Nuclear contribution   :     -0.65204       0.85820      -2.05958
                        -----------------------------------------
Total Dipole Moment    :     -0.43140      -0.10985      -0.49049
                        -----------------------------------------
Magnitude (a.u.)       :      0.66238
Magnitude (Debye)      :      1.68365

Rotational constants in cm-1:     4.238192     0.785574     0.750063
Rotational constants in MHz : 127057.789511 23550.920674 22486.332797

                             ****ORCA TERMINATED NORMALLY****
TOTAL RUN TIME: 0 days 0 hours 0 minutes 45 seconds 775 msec
