                         Program Version 4.1.2  - RELEASE  -
|  1> #Run DFT-D3 single point of the dimer
|  2> ! wB97X-D3 def2-TZVP TIGHTSCF CHELPG PMODEL PAL8
|  3>
|  4> %base "11-29_DFT_AB"
|  5>
|  6> %scf
|  7> MaxIter 1000
|  8> end
|  9>
| 10> * xyz 0 1
| 11>   C                      -4.262804            -3.298811            4.931557
| 12>   O                      -3.864564            -2.942529            6.210114
| 13>   H                      -2.899731            -2.834253            6.123950
| 14>   H                      -4.286093            -4.428996            4.908977
| 15>   H                      -5.227939            -2.841040            4.620827
| 16>   H                      -3.491225            -3.035285            4.130311
| 17>   C                      -6.809828            -7.466043            3.576054
| 18>   O                      -7.899568            -7.122431            2.761647
| 19>   H                      -8.485116            -6.571884            3.300043
| 20>   H                      -6.140757            -8.235801            3.211368
| 21>   H                      -6.195975            -6.624707            3.804071
| 22>   H                      -7.153628            -7.872314            4.553636
| 23> *
| 24>
| 25> #Run DFT-D3 single point of the molecule with dimer basis set
| 26> $new_job
| 27> %base "11-29_DFT_A"
| 28> ! wB97X-D3 def2-TZVP TIGHTSCF CHELPG PMODEL
| 29>
| 30> %scf
| 31> MaxIter 1000
| 32> end
| 33>
| 34> * xyz 0 1
| 35>   C                      -4.262804            -3.298811            4.931557
| 36>   O                      -3.864564            -2.942529            6.210114
| 37>   H                      -2.899731            -2.834253            6.123950
| 38>   H                      -4.286093            -4.428996            4.908977
| 39>   H                      -5.227939            -2.841040            4.620827
| 40>   H                      -3.491225            -3.035285            4.130311
| 41>   C                    : -6.809828            -7.466043            3.576054
| 42>   O                    : -7.899568            -7.122431            2.761647
| 43>   H                    : -8.485116            -6.571884            3.300043
| 44>   H                    : -6.140757            -8.235801            3.211368
| 45>   H                    : -6.195975            -6.624707            3.804071
| 46>   H                    : -7.153628            -7.872314            4.553636
| 47> *
| 48>
| 49> #Run DFT-D3 single point of the particle with dimer basis set
| 50> $new_job
| 51> %base "11-29_DFT_B"
| 52> ! wB97X-D3 def2-TZVP TIGHTSCF CHELPG PMODEL
| 53>
| 54> %scf
| 55> MaxIter 1000
| 56> end
| 57>
| 58> * xyz 0 1
| 59>   C                    : -4.262804            -3.298811            4.931557
| 60>   O                    : -3.864564            -2.942529            6.210114
| 61>   H                    : -2.899731            -2.834253            6.123950
| 62>   H                    : -4.286093            -4.428996            4.908977
| 63>   H                    : -5.227939            -2.841040            4.620827
| 64>   H                    : -3.491225            -3.035285            4.130311
| 65>   C                      -6.809828            -7.466043            3.576054
| 66>   O                      -7.899568            -7.122431            2.761647
| 67>   H                      -8.485116            -6.571884            3.300043
| 68>   H                      -6.140757            -8.235801            3.211368
| 69>   H                      -6.195975            -6.624707            3.804071
| 70>   H                      -7.153628            -7.872314            4.553636
| 71> *
| 72>
| 73>                          ****END OF INPUT****
 Total Charge           Charge          ....    0
 Multiplicity           Mult            ....    1
 Number of Electrons    NEL             ....   36
Dispersion correction           -0.000803736
FINAL SINGLE POINT ENERGY      -231.463492975762
Dispersion correction           -0.000233823
FINAL SINGLE POINT ENERGY      -115.729804592800

CARTESIAN COORDINATES (ANGSTROEM)
---------------------------------
  C     -4.262804   -3.298811    4.931557
  O     -3.864564   -2.942529    6.210114
  H     -2.899731   -2.834253    6.123950
  H     -4.286093   -4.428996    4.908977
  H     -5.227939   -2.841040    4.620827
  H     -3.491225   -3.035285    4.130311
  C     -6.809828   -7.466043    3.576054
  O     -7.899568   -7.122431    2.761647
  H     -8.485116   -6.571884    3.300043
  H     -6.140757   -8.235801    3.211368
  H     -6.195975   -6.624707    3.804071
  H     -7.153628   -7.872314    4.553636

 Multiplicity           Mult            ....    1
 Number of Electrons    NEL             ....   18
 Basis Dimension        Dim             ....  172

ORBITAL ENERGIES
----------------

  NO   OCC          E(Eh)            E(eV)
   0   2.0000     -19.232544      -523.3441
   1   2.0000     -10.310353      -280.5590
   2   2.0000      -1.139576       -31.0094
   3   2.0000      -0.797308       -21.6958
   4   2.0000      -0.612695       -16.6723
   5   2.0000      -0.543202       -14.7813
   6   2.0000      -0.533221       -14.5097
   7   2.0000      -0.431197       -11.7335
   8   2.0000      -0.373340       -10.1591
   9   0.0000       0.083203         2.2641
  10   0.0000       0.115000         3.1293
  11   0.0000       0.147402         4.0110
  12   0.0000       0.167309         4.5527
  13   0.0000       0.190669         5.1884

MULLIKEN ATOMIC CHARGES
-----------------------
   0 C :    0.000290
   1 O :   -0.000000
   2 H :   -0.000001
   3 H :   -0.000667
   4 H :   -0.000014
   5 H :   -0.000030
   6 C :   -0.169066
   7 O :   -0.472171
   8 H :    0.319257
   9 H :    0.122210
  10 H :    0.106513
  11 H :    0.093679
Sum of atomic charges:    0.0000000

LOEWDIN ATOMIC CHARGES
----------------------
   0 C :   -0.000369
   1 O :   -0.000005
   2 H :   -0.000000
   3 H :   -0.000965
   4 H :   -0.000020
   5 H :   -0.000003
   6 C :   -0.396767
   7 O :   -0.071703
   8 H :    0.177732
   9 H :    0.106503
  10 H :    0.088524
  11 H :    0.097074

  Mayer bond orders larger than 0.1
B(  6-C ,  7-O ) :   0.9948 B(  6-C ,  9-H ) :   0.9697 B(  6-C , 10-H ) :   0.9772
B(  6-C , 11-H ) :   0.9845 B(  7-O ,  8-H ) :   0.8957

Dispersion correction           -0.000234372
FINAL SINGLE POINT ENERGY      -115.733183580970

DIPOLE MOMENT
-------------
                                X             Y             Z
Electronic contribution:     -1.36335       0.38876      -1.32756
Nuclear contribution   :      1.43046      -0.18274       1.98301
                        -----------------------------------------
Total Dipole Moment    :      0.06711       0.20602       0.65545
                        -----------------------------------------
Magnitude (a.u.)       :      0.69034
Magnitude (Debye)      :      1.75470

Rotational constants in cm-1:     4.451291     0.833463     0.804379
Rotational constants in MHz : 133446.347170 24986.585856 24114.671863

                             ****ORCA TERMINATED NORMALLY****
TOTAL RUN TIME: 0 days 0 hours 1 minutes 11 seconds 677 msec
