                         Program Version 4.1.2  - RELEASE  -
|  1> #Run DFT-D3 single point of the dimer
|  2> ! wB97X-D3 def2-TZVP TIGHTSCF CHELPG PMODEL PAL8
|  3>
|  4> %base "7-46_DFT_AB"
|  5>
|  6> %scf
|  7> MaxIter 1000
|  8> end
|  9>
| 10> * xyz 0 1
| 11>   C                      -9.811344            4.558187             10.207530
| 12>   O                      -8.653833            5.412163             9.985210
| 13>   H                      -8.166910            5.609681             10.804078
| 14>   H                      -10.766672           5.084000             10.437990
| 15>   H                      -10.064099           3.949902             9.357270
| 16>   H                      -9.652676            3.829172             10.959154
| 17>   C                      -9.181369            2.122025             5.814508
| 18>   O                      -8.904246            2.536516             7.146417
| 19>   H                      -8.288244            3.301824             7.207093
| 20>   H                      -8.213815            2.199684             5.235665
| 21>   H                      -9.506973            1.100846             5.833280
| 22>   H                      -9.931350            2.722090             5.355694
| 23> *
| 24>
| 25> #Run DFT-D3 single point of the molecule with dimer basis set
| 26> $new_job
| 27> %base "7-46_DFT_A"
| 28> ! wB97X-D3 def2-TZVP TIGHTSCF CHELPG PMODEL
| 29>
| 30> %scf
| 31> MaxIter 1000
| 32> end
| 33>
| 34> * xyz 0 1
| 35>   C                      -9.811344            4.558187             10.207530
| 36>   O                      -8.653833            5.412163             9.985210
| 37>   H                      -8.166910            5.609681             10.804078
| 38>   H                      -10.766672           5.084000             10.437990
| 39>   H                      -10.064099           3.949902             9.357270
| 40>   H                      -9.652676            3.829172             10.959154
| 41>   C                    : -9.181369            2.122025             5.814508
| 42>   O                    : -8.904246            2.536516             7.146417
| 43>   H                    : -8.288244            3.301824             7.207093
| 44>   H                    : -8.213815            2.199684             5.235665
| 45>   H                    : -9.506973            1.100846             5.833280
| 46>   H                    : -9.931350            2.722090             5.355694
| 47> *
| 48>
| 49> #Run DFT-D3 single point of the particle with dimer basis set
| 50> $new_job
| 51> %base "7-46_DFT_B"
| 52> ! wB97X-D3 def2-TZVP TIGHTSCF CHELPG PMODEL
| 53>
| 54> %scf
| 55> MaxIter 1000
| 56> end
| 57>
| 58> * xyz 0 1
| 59>   C                    : -9.811344            4.558187             10.207530
| 60>   O                    : -8.653833            5.412163             9.985210
| 61>   H                    : -8.166910            5.609681             10.804078
| 62>   H                    : -10.766672           5.084000             10.437990
| 63>   H                    : -10.064099           3.949902             9.357270
| 64>   H                    : -9.652676            3.829172             10.959154
| 65>   C                      -9.181369            2.122025             5.814508
| 66>   O                      -8.904246            2.536516             7.146417
| 67>   H                      -8.288244            3.301824             7.207093
| 68>   H                      -8.213815            2.199684             5.235665
| 69>   H                      -9.506973            1.100846             5.833280
| 70>   H                      -9.931350            2.722090             5.355694
| 71> *
| 72>
| 73>                          ****END OF INPUT****
 Total Charge           Charge          ....    0
 Multiplicity           Mult            ....    1
 Number of Electrons    NEL             ....   36
Dispersion correction           -0.001313316
FINAL SINGLE POINT ENERGY      -231.466702220226
Dispersion correction           -0.000289716
FINAL SINGLE POINT ENERGY      -115.730245699285

CARTESIAN COORDINATES (ANGSTROEM)
---------------------------------
  C     -9.811344    4.558187   10.207530
  O     -8.653833    5.412163    9.985210
  H     -8.166910    5.609681   10.804078
  H    -10.766672    5.084000   10.437990
  H    -10.064099    3.949902    9.357270
  H     -9.652676    3.829172   10.959154
  C     -9.181369    2.122025    5.814508
  O     -8.904246    2.536516    7.146417
  H     -8.288244    3.301824    7.207093
  H     -8.213815    2.199684    5.235665
  H     -9.506973    1.100846    5.833280
  H     -9.931350    2.722090    5.355694

 Multiplicity           Mult            ....    1
 Number of Electrons    NEL             ....   18
 Basis Dimension        Dim             ....  172

ORBITAL ENERGIES
----------------

  NO   OCC          E(Eh)            E(eV)
   0   2.0000     -19.227191      -523.1985
   1   2.0000     -10.312418      -280.6152
   2   2.0000      -1.124250       -30.5924
   3   2.0000      -0.796680       -21.6788
   4   2.0000      -0.603933       -16.4339
   5   2.0000      -0.543463       -14.7884
   6   2.0000      -0.531858       -14.4726
   7   2.0000      -0.423325       -11.5192
   8   2.0000      -0.371658       -10.1133
   9   0.0000       0.088252         2.4015
  10   0.0000       0.119315         3.2467
  11   0.0000       0.154228         4.1968
  12   0.0000       0.168262         4.5786
  13   0.0000       0.197949         5.3865

MULLIKEN ATOMIC CHARGES
-----------------------
   0 C :    0.003317
   1 O :    0.000032
   2 H :    0.000005
   3 H :   -0.000109
   4 H :   -0.010539
   5 H :   -0.000303
   6 C :   -0.151134
   7 O :   -0.489663
   8 H :    0.321671
   9 H :    0.097772
  10 H :    0.122726
  11 H :    0.106225
Sum of atomic charges:   -0.0000000

LOEWDIN ATOMIC CHARGES
----------------------
   0 C :   -0.002729
   1 O :   -0.000110
   2 H :   -0.000007
   3 H :   -0.000011
   4 H :   -0.006909
   5 H :   -0.000058
   6 C :   -0.370452
   7 O :   -0.095205
   8 H :    0.180432
   9 H :    0.103499
  10 H :    0.103616
  11 H :    0.087933

  Mayer bond orders larger than 0.1
B(  6-C ,  7-O ) :   0.9933 B(  6-C ,  9-H ) :   0.9845 B(  6-C , 10-H ) :   0.9729
B(  6-C , 11-H ) :   0.9717 B(  7-O ,  8-H ) :   0.8889

Dispersion correction           -0.000247364
FINAL SINGLE POINT ENERGY      -115.733468281342

DIPOLE MOMENT
-------------
                                X             Y             Z
Electronic contribution:      0.15411       0.39136       1.65491
Nuclear contribution   :      0.12629      -0.08808      -2.17953
                        -----------------------------------------
Total Dipole Moment    :      0.28040       0.30328      -0.52462
                        -----------------------------------------
Magnitude (a.u.)       :      0.66771
Magnitude (Debye)      :      1.69717

Rotational constants in cm-1:     4.289858     0.822976     0.792936
Rotational constants in MHz : 128606.696242 24672.184807 23771.618518

                             ****ORCA TERMINATED NORMALLY****
TOTAL RUN TIME: 0 days 0 hours 1 minutes 0 seconds 478 msec
