                         Program Version 4.1.2  - RELEASE  -
|  1> #Run DFT-D3 single point of the dimer
|  2> ! wB97X-D3 def2-TZVP TIGHTSCF CHELPG PMODEL PAL8
|  3>
|  4> %base "20-67_DFT_AB"
|  5>
|  6> %scf
|  7> MaxIter 1000
|  8> end
|  9>
| 10> * xyz 0 1
| 11>   C                      0.659082             8.615269             -3.643497
| 12>   O                      0.571755             9.841283             -3.042450
| 13>   H                      0.633439             10.539445            -3.712564
| 14>   H                      1.490287             8.549697             -4.355124
| 15>   H                      0.762765             7.880298             -2.852222
| 16>   H                      -0.254403            8.351689             -4.285406
| 17>   C                      3.870062             9.588237             -6.431992
| 18>   O                      4.333502             8.226179             -6.452210
| 19>   H                      4.139159             7.860522             -7.309450
| 20>   H                      4.710507             10.342658            -6.567665
| 21>   H                      3.127605             9.907514             -7.176449
| 22>   H                      3.433877             9.691790             -5.417177
| 23> *
| 24>
| 25> #Run DFT-D3 single point of the molecule with dimer basis set
| 26> $new_job
| 27> %base "20-67_DFT_A"
| 28> ! wB97X-D3 def2-TZVP TIGHTSCF CHELPG PMODEL
| 29>
| 30> %scf
| 31> MaxIter 1000
| 32> end
| 33>
| 34> * xyz 0 1
| 35>   C                      0.659082             8.615269             -3.643497
| 36>   O                      0.571755             9.841283             -3.042450
| 37>   H                      0.633439             10.539445            -3.712564
| 38>   H                      1.490287             8.549697             -4.355124
| 39>   H                      0.762765             7.880298             -2.852222
| 40>   H                      -0.254403            8.351689             -4.285406
| 41>   C                    : 3.870062             9.588237             -6.431992
| 42>   O                    : 4.333502             8.226179             -6.452210
| 43>   H                    : 4.139159             7.860522             -7.309450
| 44>   H                    : 4.710507             10.342658            -6.567665
| 45>   H                    : 3.127605             9.907514             -7.176449
| 46>   H                    : 3.433877             9.691790             -5.417177
| 47> *
| 48>
| 49> #Run DFT-D3 single point of the particle with dimer basis set
| 50> $new_job
| 51> %base "20-67_DFT_B"
| 52> ! wB97X-D3 def2-TZVP TIGHTSCF CHELPG PMODEL
| 53>
| 54> %scf
| 55> MaxIter 1000
| 56> end
| 57>
| 58> * xyz 0 1
| 59>   C                    : 0.659082             8.615269             -3.643497
| 60>   O                    : 0.571755             9.841283             -3.042450
| 61>   H                    : 0.633439             10.539445            -3.712564
| 62>   H                    : 1.490287             8.549697             -4.355124
| 63>   H                    : 0.762765             7.880298             -2.852222
| 64>   H                    : -0.254403            8.351689             -4.285406
| 65>   C                      3.870062             9.588237             -6.431992
| 66>   O                      4.333502             8.226179             -6.452210
| 67>   H                      4.139159             7.860522             -7.309450
| 68>   H                      4.710507             10.342658            -6.567665
| 69>   H                      3.127605             9.907514             -7.176449
| 70>   H                      3.433877             9.691790             -5.417177
| 71> *
| 72>
| 73>                          ****END OF INPUT****
 Total Charge           Charge          ....    0
 Multiplicity           Mult            ....    1
 Number of Electrons    NEL             ....   36
Dispersion correction           -0.001319646
FINAL SINGLE POINT ENERGY      -231.467100028159
Dispersion correction           -0.000234560
FINAL SINGLE POINT ENERGY      -115.734365737114

CARTESIAN COORDINATES (ANGSTROEM)
---------------------------------
  C      0.659082    8.615269   -3.643497
  O      0.571755    9.841283   -3.042450
  H      0.633439   10.539445   -3.712564
  H      1.490287    8.549697   -4.355124
  H      0.762765    7.880298   -2.852222
  H     -0.254403    8.351689   -4.285406
  C      3.870062    9.588237   -6.431992
  O      4.333502    8.226179   -6.452210
  H      4.139159    7.860522   -7.309450
  H      4.710507   10.342658   -6.567665
  H      3.127605    9.907514   -7.176449
  H      3.433877    9.691790   -5.417177

 Multiplicity           Mult            ....    1
 Number of Electrons    NEL             ....   18
 Basis Dimension        Dim             ....  172

ORBITAL ENERGIES
----------------

  NO   OCC          E(Eh)            E(eV)
   0   2.0000     -19.232427      -523.3410
   1   2.0000     -10.321626      -280.8657
   2   2.0000      -1.131944       -30.8018
   3   2.0000      -0.793020       -21.5792
   4   2.0000      -0.613150       -16.6847
   5   2.0000      -0.531043       -14.4504
   6   2.0000      -0.514734       -14.0066
   7   2.0000      -0.441609       -12.0168
   8   2.0000      -0.373957       -10.1759
   9   0.0000       0.088146         2.3986
  10   0.0000       0.118529         3.2253
  11   0.0000       0.148161         4.0317
  12   0.0000       0.171229         4.6594
  13   0.0000       0.183743         4.9999

MULLIKEN ATOMIC CHARGES
-----------------------
   0 C :   -0.003713
   1 O :    0.000171
   2 H :   -0.000055
   3 H :    0.004844
   4 H :    0.000044
   5 H :    0.000105
   6 C :   -0.187498
   7 O :   -0.472359
   8 H :    0.312609
   9 H :    0.108513
  10 H :    0.114924
  11 H :    0.122414
Sum of atomic charges:    0.0000000

LOEWDIN ATOMIC CHARGES
----------------------
   0 C :   -0.001375
   1 O :   -0.000053
   2 H :   -0.000272
   3 H :   -0.002229
   4 H :   -0.000008
   5 H :   -0.000008
   6 C :   -0.379765
   7 O :   -0.088221
   8 H :    0.160750
   9 H :    0.103350
  10 H :    0.096906
  11 H :    0.110925

  Mayer bond orders larger than 0.1
B(  6-C ,  7-O ) :   0.9979 B(  6-C ,  9-H ) :   0.9726 B(  6-C , 10-H ) :   0.9683
B(  6-C , 11-H ) :   0.9816 B(  7-O ,  8-H ) :   0.9032

Dispersion correction           -0.000281105
FINAL SINGLE POINT ENERGY      -115.732159789619

DIPOLE MOMENT
-------------
                                X             Y             Z
Electronic contribution:      0.58953      -1.79239       0.01102
Nuclear contribution   :     -0.92159       2.09092      -0.57108
                        -----------------------------------------
Total Dipole Moment    :     -0.33206       0.29852      -0.56006
                        -----------------------------------------
Magnitude (a.u.)       :      0.71627
Magnitude (Debye)      :      1.82062

Rotational constants in cm-1:     4.232891     0.799041     0.773290
Rotational constants in MHz : 126898.870653 23954.634385 23182.645896

                             ****ORCA TERMINATED NORMALLY****
TOTAL RUN TIME: 0 days 0 hours 1 minutes 5 seconds 468 msec
