                         Program Version 4.1.2  - RELEASE  -
|  1> #Run DFT-D3 single point of the dimer
|  2> ! wB97X-D3 def2-TZVP TIGHTSCF CHELPG PMODEL PAL8
|  3>
|  4> %base "3-52_DFT_AB"
|  5>
|  6> %scf
|  7> MaxIter 1000
|  8> end
|  9>
| 10> * xyz 0 1
| 11>   C                      -1.585375            -0.526504            1.034932
| 12>   O                      -1.659778            -0.611331            2.447003
| 13>   H                      -2.532319            -0.358363            2.745018
| 14>   H                      -0.888317            0.258825             0.604334
| 15>   H                      -1.291051            -1.503012            0.632394
| 16>   H                      -2.593034            -0.391837            0.618044
| 17>   C                      1.467480             2.436894             2.519463
| 18>   O                      1.532638             3.667263             1.792435
| 19>   H                      1.815579             3.425079             0.869417
| 20>   H                      1.252288             2.512821             3.585320
| 21>   H                      0.686186             1.727678             2.137464
| 22>   H                      2.382609             1.925820             2.485749
| 23> *
| 24>
| 25> #Run DFT-D3 single point of the molecule with dimer basis set
| 26> $new_job
| 27> %base "3-52_DFT_A"
| 28> ! wB97X-D3 def2-TZVP TIGHTSCF CHELPG PMODEL
| 29>
| 30> %scf
| 31> MaxIter 1000
| 32> end
| 33>
| 34> * xyz 0 1
| 35>   C                      -1.585375            -0.526504            1.034932
| 36>   O                      -1.659778            -0.611331            2.447003
| 37>   H                      -2.532319            -0.358363            2.745018
| 38>   H                      -0.888317            0.258825             0.604334
| 39>   H                      -1.291051            -1.503012            0.632394
| 40>   H                      -2.593034            -0.391837            0.618044
| 41>   C                    : 1.467480             2.436894             2.519463
| 42>   O                    : 1.532638             3.667263             1.792435
| 43>   H                    : 1.815579             3.425079             0.869417
| 44>   H                    : 1.252288             2.512821             3.585320
| 45>   H                    : 0.686186             1.727678             2.137464
| 46>   H                    : 2.382609             1.925820             2.485749
| 47> *
| 48>
| 49> #Run DFT-D3 single point of the particle with dimer basis set
| 50> $new_job
| 51> %base "3-52_DFT_B"
| 52> ! wB97X-D3 def2-TZVP TIGHTSCF CHELPG PMODEL
| 53>
| 54> %scf
| 55> MaxIter 1000
| 56> end
| 57>
| 58> * xyz 0 1
| 59>   C                    : -1.585375            -0.526504            1.034932
| 60>   O                    : -1.659778            -0.611331            2.447003
| 61>   H                    : -2.532319            -0.358363            2.745018
| 62>   H                    : -0.888317            0.258825             0.604334
| 63>   H                    : -1.291051            -1.503012            0.632394
| 64>   H                    : -2.593034            -0.391837            0.618044
| 65>   C                      1.467480             2.436894             2.519463
| 66>   O                      1.532638             3.667263             1.792435
| 67>   H                      1.815579             3.425079             0.869417
| 68>   H                      1.252288             2.512821             3.585320
| 69>   H                      0.686186             1.727678             2.137464
| 70>   H                      2.382609             1.925820             2.485749
| 71> *
| 72>
| 73>                          ****END OF INPUT****
 Total Charge           Charge          ....    0
 Multiplicity           Mult            ....    1
 Number of Electrons    NEL             ....   36
Dispersion correction           -0.001205867
FINAL SINGLE POINT ENERGY      -231.464738972083
Dispersion correction           -0.000262640
FINAL SINGLE POINT ENERGY      -115.732851460909

CARTESIAN COORDINATES (ANGSTROEM)
---------------------------------
  C     -1.585375   -0.526504    1.034932
  O     -1.659778   -0.611331    2.447003
  H     -2.532319   -0.358363    2.745018
  H     -0.888317    0.258825    0.604334
  H     -1.291051   -1.503012    0.632394
  H     -2.593034   -0.391837    0.618044
  C      1.467480    2.436894    2.519463
  O      1.532638    3.667263    1.792435
  H      1.815579    3.425079    0.869417
  H      1.252288    2.512821    3.585320
  H      0.686186    1.727678    2.137464
  H      2.382609    1.925820    2.485749

 Multiplicity           Mult            ....    1
 Number of Electrons    NEL             ....   18
 Basis Dimension        Dim             ....  172

ORBITAL ENERGIES
----------------

  NO   OCC          E(Eh)            E(eV)
   0   2.0000     -19.236249      -523.4449
   1   2.0000     -10.311752      -280.5970
   2   2.0000      -1.126656       -30.6579
   3   2.0000      -0.797109       -21.6904
   4   2.0000      -0.604376       -16.4459
   5   2.0000      -0.538790       -14.6612
   6   2.0000      -0.528186       -14.3727
   7   2.0000      -0.433647       -11.8001
   8   2.0000      -0.374856       -10.2004
   9   0.0000       0.082465         2.2440
  10   0.0000       0.113539         3.0895
  11   0.0000       0.149172         4.0592
  12   0.0000       0.165276         4.4974
  13   0.0000       0.187008         5.0888

MULLIKEN ATOMIC CHARGES
-----------------------
   0 C :   -0.001967
   1 O :    0.000073
   2 H :   -0.000042
   3 H :    0.002050
   4 H :    0.000135
   5 H :    0.000023
   6 C :   -0.185718
   7 O :   -0.476433
   8 H :    0.320806
   9 H :    0.123465
  10 H :    0.100762
  11 H :    0.116847
Sum of atomic charges:    0.0000000

LOEWDIN ATOMIC CHARGES
----------------------
   0 C :   -0.002505
   1 O :   -0.000324
   2 H :   -0.000053
   3 H :   -0.002160
   4 H :   -0.000017
   5 H :   -0.000024
   6 C :   -0.381634
   7 O :   -0.101759
   8 H :    0.191602
   9 H :    0.108723
  10 H :    0.101936
  11 H :    0.086214

  Mayer bond orders larger than 0.1
B(  6-C ,  7-O ) :   0.9958 B(  6-C ,  9-H ) :   0.9705 B(  6-C , 10-H ) :   0.9741
B(  6-C , 11-H ) :   0.9798 B(  7-O ,  8-H ) :   0.8921

Dispersion correction           -0.000253736
FINAL SINGLE POINT ENERGY      -115.730766511760

DIPOLE MOMENT
-------------
                                X             Y             Z
Electronic contribution:      0.07672       1.77750      -0.79666
Nuclear contribution   :      0.09703      -2.42434       0.53733
                        -----------------------------------------
Total Dipole Moment    :      0.17375      -0.64684      -0.25933
                        -----------------------------------------
Magnitude (a.u.)       :      0.71822
Magnitude (Debye)      :      1.82558

Rotational constants in cm-1:     4.412674     0.804936     0.776933
Rotational constants in MHz : 132288.628282 24131.368396 23291.869881

                             ****ORCA TERMINATED NORMALLY****
TOTAL RUN TIME: 0 days 0 hours 6 minutes 0 seconds 427 msec
