                         Program Version 4.1.2  - RELEASE  -
|  1> #Run DFT-D3 single point of the dimer
|  2> ! wB97X-D3 def2-TZVP TIGHTSCF CHELPG PMODEL PAL8
|  3>
|  4> %base "8-157_DFT_AB"
|  5>
|  6> %scf
|  7> MaxIter 1000
|  8> end
|  9>
| 10> * xyz 0 1
| 11>   C                      0.399239             -8.859715            -3.556576
| 12>   O                      0.031534             -8.982643            -2.192844
| 13>   H                      0.511903             -9.696120            -1.791495
| 14>   H                      -0.019064            -7.961344            -3.953290
| 15>   H                      1.515028             -8.803939            -3.714569
| 16>   H                      -0.081125            -9.682371            -4.161165
| 17>   C                      -2.293713            -8.881930            0.250787
| 18>   O                      -1.068833            -8.238405            0.185196
| 19>   H                      -0.646330            -8.471846            -0.718595
| 20>   H                      -2.184696            -9.919336            0.150728
| 21>   H                      -2.724398            -8.545962            1.216586
| 22>   H                      -2.990550            -8.492704            -0.545659
| 23> *
| 24>
| 25> #Run DFT-D3 single point of the molecule with dimer basis set
| 26> $new_job
| 27> %base "8-157_DFT_A"
| 28> ! wB97X-D3 def2-TZVP TIGHTSCF CHELPG PMODEL
| 29>
| 30> %scf
| 31> MaxIter 1000
| 32> end
| 33>
| 34> * xyz 0 1
| 35>   C                      0.399239             -8.859715            -3.556576
| 36>   O                      0.031534             -8.982643            -2.192844
| 37>   H                      0.511903             -9.696120            -1.791495
| 38>   H                      -0.019064            -7.961344            -3.953290
| 39>   H                      1.515028             -8.803939            -3.714569
| 40>   H                      -0.081125            -9.682371            -4.161165
| 41>   C                    : -2.293713            -8.881930            0.250787
| 42>   O                    : -1.068833            -8.238405            0.185196
| 43>   H                    : -0.646330            -8.471846            -0.718595
| 44>   H                    : -2.184696            -9.919336            0.150728
| 45>   H                    : -2.724398            -8.545962            1.216586
| 46>   H                    : -2.990550            -8.492704            -0.545659
| 47> *
| 48>
| 49> #Run DFT-D3 single point of the particle with dimer basis set
| 50> $new_job
| 51> %base "8-157_DFT_B"
| 52> ! wB97X-D3 def2-TZVP TIGHTSCF CHELPG PMODEL
| 53>
| 54> %scf
| 55> MaxIter 1000
| 56> end
| 57>
| 58> * xyz 0 1
| 59>   C                    : 0.399239             -8.859715            -3.556576
| 60>   O                    : 0.031534             -8.982643            -2.192844
| 61>   H                    : 0.511903             -9.696120            -1.791495
| 62>   H                    : -0.019064            -7.961344            -3.953290
| 63>   H                    : 1.515028             -8.803939            -3.714569
| 64>   H                    : -0.081125            -9.682371            -4.161165
| 65>   C                      -2.293713            -8.881930            0.250787
| 66>   O                      -1.068833            -8.238405            0.185196
| 67>   H                      -0.646330            -8.471846            -0.718595
| 68>   H                      -2.184696            -9.919336            0.150728
| 69>   H                      -2.724398            -8.545962            1.216586
| 70>   H                      -2.990550            -8.492704            -0.545659
| 71> *
| 72>
| 73>                          ****END OF INPUT****
 Total Charge           Charge          ....    0
 Multiplicity           Mult            ....    1
 Number of Electrons    NEL             ....   36
Dispersion correction           -0.001645026
FINAL SINGLE POINT ENERGY      -231.472056861184
Dispersion correction           -0.000256985
FINAL SINGLE POINT ENERGY      -115.735429767332

CARTESIAN COORDINATES (ANGSTROEM)
---------------------------------
  C      0.399239   -8.859715   -3.556576
  O      0.031534   -8.982643   -2.192844
  H      0.511903   -9.696120   -1.791495
  H     -0.019064   -7.961344   -3.953290
  H      1.515028   -8.803939   -3.714569
  H     -0.081125   -9.682371   -4.161165
  C     -2.293713   -8.881930    0.250787
  O     -1.068833   -8.238405    0.185196
  H     -0.646330   -8.471846   -0.718595
  H     -2.184696   -9.919336    0.150728
  H     -2.724398   -8.545962    1.216586
  H     -2.990550   -8.492704   -0.545659

 Multiplicity           Mult            ....    1
 Number of Electrons    NEL             ....   18
 Basis Dimension        Dim             ....  172

ORBITAL ENERGIES
----------------

  NO   OCC          E(Eh)            E(eV)
   0   2.0000     -19.234116      -523.3869
   1   2.0000     -10.309667      -280.5403
   2   2.0000      -1.135079       -30.8871
   3   2.0000      -0.786412       -21.3994
   4   2.0000      -0.611301       -16.6343
   5   2.0000      -0.548975       -14.9384
   6   2.0000      -0.522211       -14.2101
   7   2.0000      -0.430432       -11.7127
   8   2.0000      -0.369821       -10.0633
   9   0.0000       0.066803         1.8178
  10   0.0000       0.125970         3.4278
  11   0.0000       0.154121         4.1938
  12   0.0000       0.167299         4.5524
  13   0.0000       0.191032         5.1982

MULLIKEN ATOMIC CHARGES
-----------------------
   0 C :   -0.001321
   1 O :   -0.007361
   2 H :   -0.002730
   3 H :   -0.000040
   4 H :    0.000050
   5 H :    0.000005
   6 C :   -0.156449
   7 O :   -0.470312
   8 H :    0.319295
   9 H :    0.109479
  10 H :    0.116680
  11 H :    0.092704
Sum of atomic charges:   -0.0000000

LOEWDIN ATOMIC CHARGES
----------------------
   0 C :   -0.002691
   1 O :   -0.038970
   2 H :   -0.006191
   3 H :   -0.000161
   4 H :   -0.000062
   5 H :   -0.000069
   6 C :   -0.409912
   7 O :   -0.066628
   8 H :    0.228166
   9 H :    0.083632
  10 H :    0.114550
  11 H :    0.098337

  Mayer bond orders larger than 0.1
B(  6-C ,  7-O ) :   0.9891 B(  6-C ,  9-H ) :   0.9730 B(  6-C , 10-H ) :   0.9744
B(  6-C , 11-H ) :   0.9790 B(  7-O ,  8-H ) :   0.8944

Dispersion correction           -0.000220715
FINAL SINGLE POINT ENERGY      -115.730104045941

DIPOLE MOMENT
-------------
                                X             Y             Z
Electronic contribution:      1.57315       0.73474       0.10791
Nuclear contribution   :     -1.77062      -1.12084      -0.61535
                        -----------------------------------------
Total Dipole Moment    :     -0.19747      -0.38609      -0.50743
                        -----------------------------------------
Magnitude (a.u.)       :      0.66749
Magnitude (Debye)      :      1.69664

Rotational constants in cm-1:     4.085983     0.869357     0.829865
Rotational constants in MHz : 122494.684336 26062.677609 24878.732183

                             ****ORCA TERMINATED NORMALLY****
TOTAL RUN TIME: 0 days 0 hours 0 minutes 46 seconds 803 msec
