                         Program Version 4.1.2  - RELEASE  -
|  1> #Run DFT-D3 single point of the dimer
|  2> ! wB97X-D3 def2-TZVP TIGHTSCF CHELPG PMODEL PAL8
|  3>
|  4> %base "11-4_DFT_AB"
|  5>
|  6> %scf
|  7> MaxIter 1000
|  8> end
|  9>
| 10> * xyz 0 1
| 11>   C                      -2.148013            2.129847             1.911966
| 12>   O                      -0.703100            2.202816             2.039990
| 13>   H                      -0.327344            2.930984             1.522731
| 14>   H                      -2.414317            2.238284             0.914172
| 15>   H                      -2.582117            1.155431             2.198879
| 16>   H                      -2.594961            2.946416             2.554262
| 17>   C                      1.722889             4.769203             0.376616
| 18>   O                      0.399741             4.545588             0.899651
| 19>   H                      -0.141667            4.517815             0.109783
| 20>   H                      2.065816             3.898530             -0.238405
| 21>   H                      1.754386             5.714182             -0.138334
| 22>   H                      2.523821             4.837285             1.055451
| 23> *
| 24>
| 25> #Run DFT-D3 single point of the molecule with dimer basis set
| 26> $new_job
| 27> %base "11-4_DFT_A"
| 28> ! wB97X-D3 def2-TZVP TIGHTSCF CHELPG PMODEL
| 29>
| 30> %scf
| 31> MaxIter 1000
| 32> end
| 33>
| 34> * xyz 0 1
| 35>   C                      -2.148013            2.129847             1.911966
| 36>   O                      -0.703100            2.202816             2.039990
| 37>   H                      -0.327344            2.930984             1.522731
| 38>   H                      -2.414317            2.238284             0.914172
| 39>   H                      -2.582117            1.155431             2.198879
| 40>   H                      -2.594961            2.946416             2.554262
| 41>   C                    : 1.722889             4.769203             0.376616
| 42>   O                    : 0.399741             4.545588             0.899651
| 43>   H                    : -0.141667            4.517815             0.109783
| 44>   H                    : 2.065816             3.898530             -0.238405
| 45>   H                    : 1.754386             5.714182             -0.138334
| 46>   H                    : 2.523821             4.837285             1.055451
| 47> *
| 48>
| 49> #Run DFT-D3 single point of the particle with dimer basis set
| 50> $new_job
| 51> %base "11-4_DFT_B"
| 52> ! wB97X-D3 def2-TZVP TIGHTSCF CHELPG PMODEL
| 53>
| 54> %scf
| 55> MaxIter 1000
| 56> end
| 57>
| 58> * xyz 0 1
| 59>   C                    : -2.148013            2.129847             1.911966
| 60>   O                    : -0.703100            2.202816             2.039990
| 61>   H                    : -0.327344            2.930984             1.522731
| 62>   H                    : -2.414317            2.238284             0.914172
| 63>   H                    : -2.582117            1.155431             2.198879
| 64>   H                    : -2.594961            2.946416             2.554262
| 65>   C                      1.722889             4.769203             0.376616
| 66>   O                      0.399741             4.545588             0.899651
| 67>   H                      -0.141667            4.517815             0.109783
| 68>   H                      2.065816             3.898530             -0.238405
| 69>   H                      1.754386             5.714182             -0.138334
| 70>   H                      2.523821             4.837285             1.055451
| 71> *
| 72>
| 73>                          ****END OF INPUT****
 Total Charge           Charge          ....    0
 Multiplicity           Mult            ....    1
 Number of Electrons    NEL             ....   36
Dispersion correction           -0.001605705
FINAL SINGLE POINT ENERGY      -231.465485989785
Dispersion correction           -0.000260017
FINAL SINGLE POINT ENERGY      -115.730275783515

CARTESIAN COORDINATES (ANGSTROEM)
---------------------------------
  C     -2.148013    2.129847    1.911966
  O     -0.703100    2.202816    2.039990
  H     -0.327344    2.930984    1.522731
  H     -2.414317    2.238284    0.914172
  H     -2.582117    1.155431    2.198879
  H     -2.594961    2.946416    2.554262
  C      1.722889    4.769203    0.376616
  O      0.399741    4.545588    0.899651
  H     -0.141667    4.517815    0.109783
  H      2.065816    3.898530   -0.238405
  H      1.754386    5.714182   -0.138334
  H      2.523821    4.837285    1.055451

 Multiplicity           Mult            ....    1
 Number of Electrons    NEL             ....   18
 Basis Dimension        Dim             ....  172

ORBITAL ENERGIES
----------------

  NO   OCC          E(Eh)            E(eV)
   0   2.0000     -19.234158      -523.3880
   1   2.0000     -10.312613      -280.6205
   2   2.0000      -1.133131       -30.8341
   3   2.0000      -0.801605       -21.8128
   4   2.0000      -0.601346       -16.3635
   5   2.0000      -0.548611       -14.9285
   6   2.0000      -0.531726       -14.4690
   7   2.0000      -0.432297       -11.7634
   8   2.0000      -0.378393       -10.2966
   9   0.0000       0.093445         2.5428
  10   0.0000       0.126376         3.4389
  11   0.0000       0.150953         4.1076
  12   0.0000       0.188046         5.1170
  13   0.0000       0.199367         5.4250

MULLIKEN ATOMIC CHARGES
-----------------------
   0 C :    0.002860
   1 O :    0.005644
   2 H :   -0.026878
   3 H :   -0.001091
   4 H :   -0.000118
   5 H :   -0.000352
   6 C :   -0.185622
   7 O :   -0.457512
   8 H :    0.319383
   9 H :    0.108417
  10 H :    0.112613
  11 H :    0.122656
Sum of atomic charges:   -0.0000000

LOEWDIN ATOMIC CHARGES
----------------------
   0 C :   -0.001981
   1 O :   -0.006927
   2 H :   -0.052431
   3 H :   -0.000291
   4 H :   -0.000033
   5 H :   -0.000147
   6 C :   -0.369487
   7 O :   -0.041360
   8 H :    0.173296
   9 H :    0.104041
  10 H :    0.096963
  11 H :    0.098355

  Mayer bond orders larger than 0.1
B(  6-C ,  7-O ) :   0.9867 B(  6-C ,  9-H ) :   0.9790 B(  6-C , 10-H ) :   0.9757
B(  6-C , 11-H ) :   0.9744 B(  7-O ,  8-H ) :   0.8981

Dispersion correction           -0.000242394
FINAL SINGLE POINT ENERGY      -115.729532201632

DIPOLE MOMENT
-------------
                                X             Y             Z
Electronic contribution:     -1.66990      -0.22851       0.88588
Nuclear contribution   :      1.90458       0.32801      -1.56467
                        -----------------------------------------
Total Dipole Moment    :      0.23468       0.09949      -0.67878
                        -----------------------------------------
Magnitude (a.u.)       :      0.72506
Magnitude (Debye)      :      1.84296

Rotational constants in cm-1:     4.443502     0.797858     0.784322
Rotational constants in MHz : 133212.847826 23919.167067 23513.393794

                             ****ORCA TERMINATED NORMALLY****
TOTAL RUN TIME: 0 days 0 hours 1 minutes 11 seconds 227 msec
