                         Program Version 4.1.2  - RELEASE  -
|  1> #Run DFT-D3 single point of the dimer
|  2> ! wB97X-D3 def2-TZVP TIGHTSCF CHELPG PMODEL PAL8
|  3>
|  4> %base "13-158_DFT_AB"
|  5>
|  6> %scf
|  7> MaxIter 1000
|  8> end
|  9>
| 10> * xyz 0 1
| 11>   C                      0.030164             -4.047049            -2.629038
| 12>   O                      -1.138071            -4.695708            -3.059685
| 13>   H                      -0.944249            -5.458277            -3.624393
| 14>   H                      0.284661             -4.359550            -1.576838
| 15>   H                      0.878129             -4.316467            -3.321165
| 16>   H                      -0.148044            -2.943190            -2.634008
| 17>   C                      -2.752617            -3.076059            -0.589000
| 18>   O                      -3.304085            -3.768648            -1.717035
| 19>   H                      -2.612261            -3.905826            -2.386180
| 20>   H                      -3.493172            -2.722931            0.156007
| 21>   H                      -2.242479            -3.835967            0.046678
| 22>   H                      -2.114953            -2.201284            -0.755336
| 23> *
| 24>
| 25> #Run DFT-D3 single point of the molecule with dimer basis set
| 26> $new_job
| 27> %base "13-158_DFT_A"
| 28> ! wB97X-D3 def2-TZVP TIGHTSCF CHELPG PMODEL
| 29>
| 30> %scf
| 31> MaxIter 1000
| 32> end
| 33>
| 34> * xyz 0 1
| 35>   C                      0.030164             -4.047049            -2.629038
| 36>   O                      -1.138071            -4.695708            -3.059685
| 37>   H                      -0.944249            -5.458277            -3.624393
| 38>   H                      0.284661             -4.359550            -1.576838
| 39>   H                      0.878129             -4.316467            -3.321165
| 40>   H                      -0.148044            -2.943190            -2.634008
| 41>   C                    : -2.752617            -3.076059            -0.589000
| 42>   O                    : -3.304085            -3.768648            -1.717035
| 43>   H                    : -2.612261            -3.905826            -2.386180
| 44>   H                    : -3.493172            -2.722931            0.156007
| 45>   H                    : -2.242479            -3.835967            0.046678
| 46>   H                    : -2.114953            -2.201284            -0.755336
| 47> *
| 48>
| 49> #Run DFT-D3 single point of the particle with dimer basis set
| 50> $new_job
| 51> %base "13-158_DFT_B"
| 52> ! wB97X-D3 def2-TZVP TIGHTSCF CHELPG PMODEL
| 53>
| 54> %scf
| 55> MaxIter 1000
| 56> end
| 57>
| 58> * xyz 0 1
| 59>   C                    : 0.030164             -4.047049            -2.629038
| 60>   O                    : -1.138071            -4.695708            -3.059685
| 61>   H                    : -0.944249            -5.458277            -3.624393
| 62>   H                    : 0.284661             -4.359550            -1.576838
| 63>   H                    : 0.878129             -4.316467            -3.321165
| 64>   H                    : -0.148044            -2.943190            -2.634008
| 65>   C                      -2.752617            -3.076059            -0.589000
| 66>   O                      -3.304085            -3.768648            -1.717035
| 67>   H                      -2.612261            -3.905826            -2.386180
| 68>   H                      -3.493172            -2.722931            0.156007
| 69>   H                      -2.242479            -3.835967            0.046678
| 70>   H                      -2.114953            -2.201284            -0.755336
| 71> *
| 72>
| 73>                          ****END OF INPUT****
 Total Charge           Charge          ....    0
 Multiplicity           Mult            ....    1
 Number of Electrons    NEL             ....   36
Dispersion correction           -0.002280673
FINAL SINGLE POINT ENERGY      -231.470427646722
Dispersion correction           -0.000253478
FINAL SINGLE POINT ENERGY      -115.734134928493

CARTESIAN COORDINATES (ANGSTROEM)
---------------------------------
  C      0.030164   -4.047049   -2.629038
  O     -1.138071   -4.695708   -3.059685
  H     -0.944249   -5.458277   -3.624393
  H      0.284661   -4.359550   -1.576838
  H      0.878129   -4.316467   -3.321165
  H     -0.148044   -2.943190   -2.634008
  C     -2.752617   -3.076059   -0.589000
  O     -3.304085   -3.768648   -1.717035
  H     -2.612261   -3.905826   -2.386180
  H     -3.493172   -2.722931    0.156007
  H     -2.242479   -3.835967    0.046678
  H     -2.114953   -2.201284   -0.755336

 Multiplicity           Mult            ....    1
 Number of Electrons    NEL             ....   18
 Basis Dimension        Dim             ....  172

ORBITAL ENERGIES
----------------

  NO   OCC          E(Eh)            E(eV)
   0   2.0000     -19.235647      -523.4286
   1   2.0000     -10.318897      -280.7915
   2   2.0000      -1.128809       -30.7165
   3   2.0000      -0.796606       -21.6767
   4   2.0000      -0.607318       -16.5260
   5   2.0000      -0.537969       -14.6389
   6   2.0000      -0.524244       -14.2654
   7   2.0000      -0.430313       -11.7094
   8   2.0000      -0.374069       -10.1789
   9   0.0000       0.070277         1.9123
  10   0.0000       0.134634         3.6636
  11   0.0000       0.144086         3.9208
  12   0.0000       0.166860         4.5405
  13   0.0000       0.182485         4.9657

MULLIKEN ATOMIC CHARGES
-----------------------
   0 C :    0.000990
   1 O :   -0.007924
   2 H :   -0.000762
   3 H :   -0.001007
   4 H :    0.000041
   5 H :   -0.000912
   6 C :   -0.198219
   7 O :   -0.469898
   8 H :    0.321882
   9 H :    0.129435
  10 H :    0.109245
  11 H :    0.117130
Sum of atomic charges:   -0.0000000

LOEWDIN ATOMIC CHARGES
----------------------
   0 C :   -0.009550
   1 O :   -0.029644
   2 H :   -0.001424
   3 H :   -0.000988
   4 H :   -0.000120
   5 H :   -0.001607
   6 C :   -0.383928
   7 O :   -0.075970
   8 H :    0.190405
   9 H :    0.112631
  10 H :    0.102443
  11 H :    0.097751

  Mayer bond orders larger than 0.1
B(  6-C ,  7-O ) :   0.9976 B(  6-C ,  9-H ) :   0.9705 B(  6-C , 10-H ) :   0.9834
B(  6-C , 11-H ) :   0.9666 B(  7-O ,  8-H ) :   0.8975

Dispersion correction           -0.000281074
FINAL SINGLE POINT ENERGY      -115.730069549223

DIPOLE MOMENT
-------------
                                X             Y             Z
Electronic contribution:     -0.84158      -0.79180      -1.57164
Nuclear contribution   :      1.47809       0.99610       1.62761
                        -----------------------------------------
Total Dipole Moment    :      0.63651       0.20430       0.05597
                        -----------------------------------------
Magnitude (a.u.)       :      0.67083
Magnitude (Debye)      :      1.70512

Rotational constants in cm-1:     4.405686     0.792481     0.769306
Rotational constants in MHz : 132079.132696 23757.987078 23063.220302

                             ****ORCA TERMINATED NORMALLY****
TOTAL RUN TIME: 0 days 0 hours 1 minutes 12 seconds 917 msec
