                         Program Version 4.1.2  - RELEASE  -
|  1> #Run DFT-D3 single point of the dimer
|  2> ! wB97X-D3 def2-TZVP TIGHTSCF CHELPG PMODEL PAL8
|  3>
|  4> %base "15-145_DFT_AB"
|  5>
|  6> %scf
|  7> MaxIter 1000
|  8> end
|  9>
| 10> * xyz 0 1
| 11>   C                      -4.484758            8.407967             3.688813
| 12>   O                      -4.479491            9.748562             3.262175
| 13>   H                      -3.579098            10.059647            3.079137
| 14>   H                      -4.119576            7.755454             2.874660
| 15>   H                      -3.874546            8.304731             4.547465
| 16>   H                      -5.538848            8.038277             3.916587
| 17>   C                      -5.632659            5.085313             3.590567
| 18>   O                      -5.862079            5.490800             4.879194
| 19>   H                      -6.522953            4.845330             5.158301
| 20>   H                      -5.175815            4.020753             3.644523
| 21>   H                      -6.566947            4.897796             3.005638
| 22>   H                      -5.058881            5.782737             3.034811
| 23> *
| 24>
| 25> #Run DFT-D3 single point of the molecule with dimer basis set
| 26> $new_job
| 27> %base "15-145_DFT_A"
| 28> ! wB97X-D3 def2-TZVP TIGHTSCF CHELPG PMODEL
| 29>
| 30> %scf
| 31> MaxIter 1000
| 32> end
| 33>
| 34> * xyz 0 1
| 35>   C                      -4.484758            8.407967             3.688813
| 36>   O                      -4.479491            9.748562             3.262175
| 37>   H                      -3.579098            10.059647            3.079137
| 38>   H                      -4.119576            7.755454             2.874660
| 39>   H                      -3.874546            8.304731             4.547465
| 40>   H                      -5.538848            8.038277             3.916587
| 41>   C                    : -5.632659            5.085313             3.590567
| 42>   O                    : -5.862079            5.490800             4.879194
| 43>   H                    : -6.522953            4.845330             5.158301
| 44>   H                    : -5.175815            4.020753             3.644523
| 45>   H                    : -6.566947            4.897796             3.005638
| 46>   H                    : -5.058881            5.782737             3.034811
| 47> *
| 48>
| 49> #Run DFT-D3 single point of the particle with dimer basis set
| 50> $new_job
| 51> %base "15-145_DFT_B"
| 52> ! wB97X-D3 def2-TZVP TIGHTSCF CHELPG PMODEL
| 53>
| 54> %scf
| 55> MaxIter 1000
| 56> end
| 57>
| 58> * xyz 0 1
| 59>   C                    : -4.484758            8.407967             3.688813
| 60>   O                    : -4.479491            9.748562             3.262175
| 61>   H                    : -3.579098            10.059647            3.079137
| 62>   H                    : -4.119576            7.755454             2.874660
| 63>   H                    : -3.874546            8.304731             4.547465
| 64>   H                    : -5.538848            8.038277             3.916587
| 65>   C                      -5.632659            5.085313             3.590567
| 66>   O                      -5.862079            5.490800             4.879194
| 67>   H                      -6.522953            4.845330             5.158301
| 68>   H                      -5.175815            4.020753             3.644523
| 69>   H                      -6.566947            4.897796             3.005638
| 70>   H                      -5.058881            5.782737             3.034811
| 71> *
| 72>
| 73>                          ****END OF INPUT****
 Total Charge           Charge          ....    0
 Multiplicity           Mult            ....    1
 Number of Electrons    NEL             ....   36
Dispersion correction           -0.001755487
FINAL SINGLE POINT ENERGY      -231.462636079988
Dispersion correction           -0.000238525
FINAL SINGLE POINT ENERGY      -115.733570588572

CARTESIAN COORDINATES (ANGSTROEM)
---------------------------------
  C     -4.484758    8.407967    3.688813
  O     -4.479491    9.748562    3.262175
  H     -3.579098   10.059647    3.079137
  H     -4.119576    7.755454    2.874660
  H     -3.874546    8.304731    4.547465
  H     -5.538848    8.038277    3.916587
  C     -5.632659    5.085313    3.590567
  O     -5.862079    5.490800    4.879194
  H     -6.522953    4.845330    5.158301
  H     -5.175815    4.020753    3.644523
  H     -6.566947    4.897796    3.005638
  H     -5.058881    5.782737    3.034811

 Multiplicity           Mult            ....    1
 Number of Electrons    NEL             ....   18
 Basis Dimension        Dim             ....  172

ORBITAL ENERGIES
----------------

  NO   OCC          E(Eh)            E(eV)
   0   2.0000     -19.234614      -523.4005
   1   2.0000     -10.316254      -280.7195
   2   2.0000      -1.157199       -31.4890
   3   2.0000      -0.787004       -21.4155
   4   2.0000      -0.620875       -16.8949
   5   2.0000      -0.547192       -14.8899
   6   2.0000      -0.529336       -14.4040
   7   2.0000      -0.443508       -12.0685
   8   2.0000      -0.365727        -9.9519
   9   0.0000       0.092344         2.5128
  10   0.0000       0.115388         3.1399
  11   0.0000       0.158020         4.2999
  12   0.0000       0.179579         4.8866
  13   0.0000       0.190569         5.1856

MULLIKEN ATOMIC CHARGES
-----------------------
   0 C :    0.004998
   1 O :    0.000086
   2 H :    0.000016
   3 H :   -0.001112
   4 H :   -0.001363
   5 H :   -0.004107
   6 C :   -0.188148
   7 O :   -0.443291
   8 H :    0.316644
   9 H :    0.093391
  10 H :    0.098022
  11 H :    0.124863
Sum of atomic charges:   -0.0000000

LOEWDIN ATOMIC CHARGES
----------------------
   0 C :   -0.009484
   1 O :   -0.000042
   2 H :   -0.000005
   3 H :   -0.004824
   4 H :   -0.000402
   5 H :   -0.005479
   6 C :   -0.425264
   7 O :   -0.037501
   8 H :    0.182174
   9 H :    0.102597
  10 H :    0.095061
  11 H :    0.103169

  Mayer bond orders larger than 0.1
B(  6-C ,  7-O ) :   1.0028 B(  6-C ,  9-H ) :   0.9805 B(  6-C , 10-H ) :   0.9755
B(  6-C , 11-H ) :   0.9740 B(  7-O ,  8-H ) :   0.8989

Dispersion correction           -0.000204258
FINAL SINGLE POINT ENERGY      -115.728152260518

DIPOLE MOMENT
-------------
                                X             Y             Z
Electronic contribution:     -0.11944       0.89874       1.73181
Nuclear contribution   :     -0.22259      -1.40812      -2.01080
                        -----------------------------------------
Total Dipole Moment    :     -0.34203      -0.50938      -0.27899
                        -----------------------------------------
Magnitude (a.u.)       :      0.67400
Magnitude (Debye)      :      1.71318

Rotational constants in cm-1:     4.114847     0.883455     0.842464
Rotational constants in MHz : 123359.997719 26485.306202 25256.434106

                             ****ORCA TERMINATED NORMALLY****
TOTAL RUN TIME: 0 days 0 hours 1 minutes 5 seconds 407 msec
