                         Program Version 4.1.2  - RELEASE  -
|  1> # Geometry optimization for OKKJLVBELUTLKV-UHFFFAOYSA-N
|  2> ! wB97X-D3 def2-TZVP TIGHTSCF Opt Grid5 FinalGrid6 CHELPG PAL4
|  3>
|  4> %geom MaxIter 500
|  5> end
|  6>
|  7>
|  8> %base "geo_opt"
|  9>
| 10> * xyz 0 1
| 11>   C    3.01732000      -1.18901000       0.60577000
| 12>   O    4.38732000      -1.13966000       0.88109000
| 13>   H    4.73706000      -0.35387000       0.38618000
| 14>   H    2.84742000      -1.32812000      -0.48393000
| 15>   H    2.57485000      -2.05559000       1.13876000
| 16>   H    2.51703000      -0.26544000       0.96963000
| 17> *
| 18>
| 19>                          ****END OF INPUT****
 Total Charge           Charge          ....    0
 Multiplicity           Mult            ....    1
 Number of Electrons    NEL             ....   18
Dispersion correction           -0.000228575
FINAL SINGLE POINT ENERGY      -115.735674240694
Dispersion correction            ... done
Dispersion correction           -0.000233036
FINAL SINGLE POINT ENERGY      -115.737920710579
Dispersion correction            ... done
Dispersion correction           -0.000237251
FINAL SINGLE POINT ENERGY      -115.738023041388
Dispersion correction            ... done
Dispersion correction           -0.000239526
FINAL SINGLE POINT ENERGY      -115.738049283704
Dispersion correction            ... done
Dispersion correction           -0.000239436
FINAL SINGLE POINT ENERGY      -115.738051145476
Dispersion correction            ... done
                    ***********************HURRAY********************

CARTESIAN COORDINATES (ANGSTROEM)
---------------------------------
  C      3.011308   -1.180897    0.598492
  O      4.394673   -1.128050    0.874308
  H      4.772196   -0.379022    0.412493
  H      2.806434   -1.318965   -0.469350
  H      2.611632   -2.040265    1.135898
  H      2.484757   -0.284491    0.945659

 Multiplicity           Mult            ....    1
 Number of Electrons    NEL             ....   18
 Basis Dimension        Dim             ....   86

ORBITAL ENERGIES
----------------

  NO   OCC          E(Eh)            E(eV)
   0   2.0000     -19.228083      -523.2227
   1   2.0000     -10.315109      -280.6884
   2   2.0000      -1.136798       -30.9338
   3   2.0000      -0.795342       -21.6424
   4   2.0000      -0.611590       -16.6422
   5   2.0000      -0.541772       -14.7424
   6   2.0000      -0.526321       -14.3219
   7   2.0000      -0.433796       -11.8042
   8   2.0000      -0.373607       -10.1664
   9   0.0000       0.116642         3.1740
  10   0.0000       0.156678         4.2634
  11   0.0000       0.202571         5.5122
  12   0.0000       0.205115         5.5815
  13   0.0000       0.226369         6.1598

MULLIKEN ATOMIC CHARGES
-----------------------
   0 C :   -0.150858
   1 O :   -0.477643
   2 H :    0.313009
   3 H :    0.098631
   4 H :    0.118228
   5 H :    0.098634
Sum of atomic charges:    0.0000000

LOEWDIN ATOMIC CHARGES
----------------------
   0 C :   -0.385164
   1 O :   -0.076105
   2 H :    0.165783
   3 H :    0.093398
   4 H :    0.108692
   5 H :    0.093396

  Mayer bond orders larger than 0.1
B(  0-C ,  1-O ) :   0.9987 B(  0-C ,  3-H ) :   0.9755 B(  0-C ,  4-H ) :   0.9749
B(  0-C ,  5-H ) :   0.9755 B(  1-O ,  2-H ) :   0.9002

Dispersion correction           -0.000239267
FINAL SINGLE POINT ENERGY      -115.738051353913

DIPOLE MOMENT
-------------
                                X             Y             Z
Electronic contribution:      1.75587      -0.02824       0.41979
Nuclear contribution   :     -2.06566       0.47582      -0.81745
                        -----------------------------------------
Total Dipole Moment    :     -0.30979       0.44758      -0.39766
                        -----------------------------------------
Magnitude (a.u.)       :      0.67411
Magnitude (Debye)      :      1.71346

Rotational constants in cm-1:     4.292814     0.833800     0.804909
Rotational constants in MHz : 128695.322365 24996.682669 24130.567439

                             ****ORCA TERMINATED NORMALLY****
TOTAL RUN TIME: 0 days 0 hours 1 minutes 11 seconds 730 msec
