                         Program Version 4.1.2  - RELEASE  -
|  1> #Run DFT geometry optimization
|  2> ! wB97X-D3 def2-TZVP TIGHTSCF Grid5 FinalGrid6 Opt CHELPG PAL4
|  3>
|  4> %base "6_geo_opt"
|  5> %geom MaxIter 500
|  6> end
|  7>
|  8> %geom
|  9>   Constraints
| 10>     { B 2 1 C }
| 11>   end
| 12> end
| 13>
| 14>
| 15> * xyz 0 1
| 16>   C                    3.011347             -1.180819            0.598444
| 17>   O                    4.394712             -1.127972            0.874259
| 18>   H                    4.772157             -0.379100            0.412541
| 19>   H                    2.806474             -1.318887            -0.469398
| 20>   H                    2.611671             -2.040187            1.135850
| 21>   H                    2.484797             -0.284413            0.945611
| 22> *
| 23>
| 24>                          ****END OF INPUT****
 Total Charge           Charge          ....    0
 Multiplicity           Mult            ....    1
 Number of Electrons    NEL             ....   18
Dispersion correction           -0.000239247
FINAL SINGLE POINT ENERGY      -115.738051319790
Dispersion correction            ... done
                    ***********************HURRAY********************

CARTESIAN COORDINATES (ANGSTROEM)
---------------------------------
  C      3.011395   -1.180854    0.598477
  O      4.394731   -1.127949    0.874232
  H      4.772159   -0.379058    0.412530
  H      2.806484   -1.318897   -0.469364
  H      2.611564   -2.040178    1.135824
  H      2.484825   -0.284441    0.945609

 Multiplicity           Mult            ....    1
 Number of Electrons    NEL             ....   18
 Basis Dimension        Dim             ....   86

ORBITAL ENERGIES
----------------

  NO   OCC          E(Eh)            E(eV)
   0   2.0000     -19.228064      -523.2222
   1   2.0000     -10.315112      -280.6885
   2   2.0000      -1.136847       -30.9352
   3   2.0000      -0.795364       -21.6430
   4   2.0000      -0.611620       -16.6430
   5   2.0000      -0.541774       -14.7424
   6   2.0000      -0.526344       -14.3226
   7   2.0000      -0.433797       -11.8042
   8   2.0000      -0.373610       -10.1664
   9   0.0000       0.116664         3.1746
  10   0.0000       0.156684         4.2636
  11   0.0000       0.202581         5.5125
  12   0.0000       0.205116         5.5815
  13   0.0000       0.226378         6.1601

MULLIKEN ATOMIC CHARGES
-----------------------
   0 C :   -0.150853
   1 O :   -0.477615
   2 H :    0.312992
   3 H :    0.098622
   4 H :    0.118227
   5 H :    0.098626
Sum of atomic charges:    0.0000000

LOEWDIN ATOMIC CHARGES
----------------------
   0 C :   -0.385169
   1 O :   -0.075980
   2 H :    0.165667
   3 H :    0.093398
   4 H :    0.108688
   5 H :    0.093396

  Mayer bond orders larger than 0.1
B(  0-C ,  1-O ) :   0.9987 B(  0-C ,  3-H ) :   0.9755 B(  0-C ,  4-H ) :   0.9749
B(  0-C ,  5-H ) :   0.9755 B(  1-O ,  2-H ) :   0.9002

Dispersion correction           -0.000239246
FINAL SINGLE POINT ENERGY      -115.738051336151

DIPOLE MOMENT
-------------
                                X             Y             Z
Electronic contribution:      1.75608      -0.02817       0.41977
Nuclear contribution   :     -2.06589       0.47571      -0.81737
                        -----------------------------------------
Total Dipole Moment    :     -0.30981       0.44754      -0.39760
                        -----------------------------------------
Magnitude (a.u.)       :      0.67406
Magnitude (Debye)      :      1.71332

Rotational constants in cm-1:     4.293353     0.833824     0.804945
Rotational constants in MHz : 128711.495867 24997.404503 24131.636207

                             ****ORCA TERMINATED NORMALLY****
TOTAL RUN TIME: 0 days 0 hours 0 minutes 36 seconds 321 msec
