                         Program Version 4.1.2  - RELEASE  -
|  1> #Run DFT-D3 single point of the dimer
|  2> ! wB97X-D3 def2-TZVP TIGHTSCF CHELPG PMODEL PAL8
|  3>
|  4> %base "18-118_DFT_AB"
|  5>
|  6> %scf
|  7> MaxIter 1000
|  8> end
|  9>
| 10> * xyz 0 1
| 11>   C                      -5.446868            -6.427898            4.398812
| 12>   O                      -6.637437            -7.096489            4.745750
| 13>   H                      -6.687544            -8.002790            4.433937
| 14>   H                      -5.460413            -5.329283            4.727372
| 15>   H                      -4.544172            -6.930192            4.735164
| 16>   H                      -5.335296            -6.386736            3.346718
| 17>   C                      -9.153282            -8.477792            6.924629
| 18>   O                      -7.769319            -8.220859            7.312762
| 19>   H                      -7.444320            -7.572881            6.635456
| 20>   H                      -9.273223            -9.351089            6.351012
| 21>   H                      -9.805501            -8.522427            7.775496
| 22>   H                      -9.528106            -7.587786            6.403392
| 23> *
| 24>
| 25> #Run DFT-D3 single point of the molecule with dimer basis set
| 26> $new_job
| 27> %base "18-118_DFT_A"
| 28> ! wB97X-D3 def2-TZVP TIGHTSCF CHELPG PMODEL
| 29>
| 30> %scf
| 31> MaxIter 1000
| 32> end
| 33>
| 34> * xyz 0 1
| 35>   C                      -5.446868            -6.427898            4.398812
| 36>   O                      -6.637437            -7.096489            4.745750
| 37>   H                      -6.687544            -8.002790            4.433937
| 38>   H                      -5.460413            -5.329283            4.727372
| 39>   H                      -4.544172            -6.930192            4.735164
| 40>   H                      -5.335296            -6.386736            3.346718
| 41>   C                    : -9.153282            -8.477792            6.924629
| 42>   O                    : -7.769319            -8.220859            7.312762
| 43>   H                    : -7.444320            -7.572881            6.635456
| 44>   H                    : -9.273223            -9.351089            6.351012
| 45>   H                    : -9.805501            -8.522427            7.775496
| 46>   H                    : -9.528106            -7.587786            6.403392
| 47> *
| 48>
| 49> #Run DFT-D3 single point of the particle with dimer basis set
| 50> $new_job
| 51> %base "18-118_DFT_B"
| 52> ! wB97X-D3 def2-TZVP TIGHTSCF CHELPG PMODEL
| 53>
| 54> %scf
| 55> MaxIter 1000
| 56> end
| 57>
| 58> * xyz 0 1
| 59>   C                    : -5.446868            -6.427898            4.398812
| 60>   O                    : -6.637437            -7.096489            4.745750
| 61>   H                    : -6.687544            -8.002790            4.433937
| 62>   H                    : -5.460413            -5.329283            4.727372
| 63>   H                    : -4.544172            -6.930192            4.735164
| 64>   H                    : -5.335296            -6.386736            3.346718
| 65>   C                      -9.153282            -8.477792            6.924629
| 66>   O                      -7.769319            -8.220859            7.312762
| 67>   H                      -7.444320            -7.572881            6.635456
| 68>   H                      -9.273223            -9.351089            6.351012
| 69>   H                      -9.805501            -8.522427            7.775496
| 70>   H                      -9.528106            -7.587786            6.403392
| 71> *
| 72>
| 73>                          ****END OF INPUT****
 Total Charge           Charge          ....    0
 Multiplicity           Mult            ....    1
 Number of Electrons    NEL             ....   36
Dispersion correction           -0.001637401
FINAL SINGLE POINT ENERGY      -231.471054923154
Dispersion correction           -0.000254323
FINAL SINGLE POINT ENERGY      -115.732045422303

CARTESIAN COORDINATES (ANGSTROEM)
---------------------------------
  C     -5.446868   -6.427898    4.398812
  O     -6.637437   -7.096489    4.745750
  H     -6.687544   -8.002790    4.433937
  H     -5.460413   -5.329283    4.727372
  H     -4.544172   -6.930192    4.735164
  H     -5.335296   -6.386736    3.346718
  C     -9.153282   -8.477792    6.924629
  O     -7.769319   -8.220859    7.312762
  H     -7.444320   -7.572881    6.635456
  H     -9.273223   -9.351089    6.351012
  H     -9.805501   -8.522427    7.775496
  H     -9.528106   -7.587786    6.403392

 Multiplicity           Mult            ....    1
 Number of Electrons    NEL             ....   18
 Basis Dimension        Dim             ....  172

ORBITAL ENERGIES
----------------

  NO   OCC          E(Eh)            E(eV)
   0   2.0000     -19.233667      -523.3747
   1   2.0000     -10.310575      -280.5650
   2   2.0000      -1.118504       -30.4360
   3   2.0000      -0.799549       -21.7568
   4   2.0000      -0.596442       -16.2300
   5   2.0000      -0.549314       -14.9476
   6   2.0000      -0.522390       -14.2150
   7   2.0000      -0.432800       -11.7771
   8   2.0000      -0.378487       -10.2992
   9   0.0000       0.070506         1.9186
  10   0.0000       0.123465         3.3597
  11   0.0000       0.150218         4.0876
  12   0.0000       0.166028         4.5179
  13   0.0000       0.194882         5.3030

MULLIKEN ATOMIC CHARGES
-----------------------
   0 C :   -0.001142
   1 O :   -0.003842
   2 H :   -0.001969
   3 H :    0.000013
   4 H :   -0.000117
   5 H :    0.000008
   6 C :   -0.179589
   7 O :   -0.474918
   8 H :    0.316584
   9 H :    0.117852
  10 H :    0.119817
  11 H :    0.107304
Sum of atomic charges:   -0.0000000

LOEWDIN ATOMIC CHARGES
----------------------
   0 C :   -0.001763
   1 O :   -0.014039
   2 H :   -0.003617
   3 H :   -0.000061
   4 H :   -0.000072
   5 H :   -0.000046
   6 C :   -0.349041
   7 O :   -0.114565
   8 H :    0.191012
   9 H :    0.089262
  10 H :    0.101360
  11 H :    0.101568

  Mayer bond orders larger than 0.1
B(  6-C ,  7-O ) :   0.9986 B(  6-C ,  9-H ) :   0.9707 B(  6-C , 10-H ) :   0.9760
B(  6-C , 11-H ) :   0.9894 B(  7-O ,  8-H ) :   0.9029

Dispersion correction           -0.000249975
FINAL SINGLE POINT ENERGY      -115.730904100271

DIPOLE MOMENT
-------------
                                X             Y             Z
Electronic contribution:      1.71967       0.06240       0.59920
Nuclear contribution   :     -2.12236       0.23929      -1.16141
                        -----------------------------------------
Total Dipole Moment    :     -0.40269       0.30169      -0.56221
                        -----------------------------------------
Magnitude (a.u.)       :      0.75449
Magnitude (Debye)      :      1.91777

Rotational constants in cm-1:     4.339658     0.792312     0.766526
Rotational constants in MHz : 130099.687202 23752.916487 22979.859911

                             ****ORCA TERMINATED NORMALLY****
TOTAL RUN TIME: 0 days 0 hours 1 minutes 7 seconds 75 msec
