                         Program Version 4.1.2  - RELEASE  -
|  1> #Run DFT-D3 single point of the dimer
|  2> ! wB97X-D3 def2-TZVP TIGHTSCF CHELPG PMODEL PAL8
|  3>
|  4> %base "7-97_DFT_AB"
|  5>
|  6> %scf
|  7> MaxIter 1000
|  8> end
|  9>
| 10> * xyz 0 1
| 11>   C                      9.977652             -2.198286            -7.359169
| 12>   O                      11.412398            -2.219645            -7.354476
| 13>   H                      11.773627            -1.911416            -6.524812
| 14>   H                      9.486885             -2.938841            -6.747138
| 15>   H                      9.553607             -1.262547            -7.091710
| 16>   H                      9.519030             -2.212074            -8.322583
| 17>   C                      6.671575             0.864832             -9.575396
| 18>   O                      5.502137             0.769810             -10.286720
| 19>   H                      5.410029             -0.072044            -10.730265
| 20>   H                      6.634025             0.216302             -8.719840
| 21>   H                      7.489950             0.358097             -10.100182
| 22>   H                      6.898265             1.942829             -9.426292
| 23> *
| 24>
| 25> #Run DFT-D3 single point of the molecule with dimer basis set
| 26> $new_job
| 27> %base "7-97_DFT_A"
| 28> ! wB97X-D3 def2-TZVP TIGHTSCF CHELPG PMODEL
| 29>
| 30> %scf
| 31> MaxIter 1000
| 32> end
| 33>
| 34> * xyz 0 1
| 35>   C                      9.977652             -2.198286            -7.359169
| 36>   O                      11.412398            -2.219645            -7.354476
| 37>   H                      11.773627            -1.911416            -6.524812
| 38>   H                      9.486885             -2.938841            -6.747138
| 39>   H                      9.553607             -1.262547            -7.091710
| 40>   H                      9.519030             -2.212074            -8.322583
| 41>   C                    : 6.671575             0.864832             -9.575396
| 42>   O                    : 5.502137             0.769810             -10.286720
| 43>   H                    : 5.410029             -0.072044            -10.730265
| 44>   H                    : 6.634025             0.216302             -8.719840
| 45>   H                    : 7.489950             0.358097             -10.100182
| 46>   H                    : 6.898265             1.942829             -9.426292
| 47> *
| 48>
| 49> #Run DFT-D3 single point of the particle with dimer basis set
| 50> $new_job
| 51> %base "7-97_DFT_B"
| 52> ! wB97X-D3 def2-TZVP TIGHTSCF CHELPG PMODEL
| 53>
| 54> %scf
| 55> MaxIter 1000
| 56> end
| 57>
| 58> * xyz 0 1
| 59>   C                    : 9.977652             -2.198286            -7.359169
| 60>   O                    : 11.412398            -2.219645            -7.354476
| 61>   H                    : 11.773627            -1.911416            -6.524812
| 62>   H                    : 9.486885             -2.938841            -6.747138
| 63>   H                    : 9.553607             -1.262547            -7.091710
| 64>   H                    : 9.519030             -2.212074            -8.322583
| 65>   C                      6.671575             0.864832             -9.575396
| 66>   O                      5.502137             0.769810             -10.286720
| 67>   H                      5.410029             -0.072044            -10.730265
| 68>   H                      6.634025             0.216302             -8.719840
| 69>   H                      7.489950             0.358097             -10.100182
| 70>   H                      6.898265             1.942829             -9.426292
| 71> *
| 72>
| 73>                          ****END OF INPUT****
 Total Charge           Charge          ....    0
 Multiplicity           Mult            ....    1
 Number of Electrons    NEL             ....   36
Dispersion correction           -0.000838236
FINAL SINGLE POINT ENERGY      -231.457092217864
Dispersion correction           -0.000275830
FINAL SINGLE POINT ENERGY      -115.727468626170

CARTESIAN COORDINATES (ANGSTROEM)
---------------------------------
  C      9.977652   -2.198286   -7.359169
  O     11.412398   -2.219645   -7.354476
  H     11.773627   -1.911416   -6.524812
  H      9.486885   -2.938841   -6.747138
  H      9.553607   -1.262547   -7.091710
  H      9.519030   -2.212074   -8.322583
  C      6.671575    0.864832   -9.575396
  O      5.502137    0.769810  -10.286720
  H      5.410029   -0.072044  -10.730265
  H      6.634025    0.216302   -8.719840
  H      7.489950    0.358097  -10.100182
  H      6.898265    1.942829   -9.426292

 Multiplicity           Mult            ....    1
 Number of Electrons    NEL             ....   18
 Basis Dimension        Dim             ....  172

ORBITAL ENERGIES
----------------

  NO   OCC          E(Eh)            E(eV)
   0   2.0000     -19.225092      -523.1413
   1   2.0000     -10.309314      -280.5307
   2   2.0000      -1.146774       -31.2053
   3   2.0000      -0.795418       -21.6444
   4   2.0000      -0.626701       -17.0534
   5   2.0000      -0.545884       -14.8543
   6   2.0000      -0.525589       -14.3020
   7   2.0000      -0.430291       -11.7088
   8   2.0000      -0.364596        -9.9212
   9   0.0000       0.080469         2.1897
  10   0.0000       0.113577         3.0906
  11   0.0000       0.142643         3.8815
  12   0.0000       0.175077         4.7641
  13   0.0000       0.184449         5.0191

MULLIKEN ATOMIC CHARGES
-----------------------
   0 C :    0.000458
   1 O :   -0.000005
   2 H :   -0.000001
   3 H :   -0.000024
   4 H :   -0.000421
   5 H :   -0.000428
   6 C :   -0.140245
   7 O :   -0.476668
   8 H :    0.315630
   9 H :    0.092581
  10 H :    0.089752
  11 H :    0.119371
Sum of atomic charges:    0.0000000

LOEWDIN ATOMIC CHARGES
----------------------
   0 C :   -0.000165
   1 O :   -0.000004
   2 H :   -0.000000
   3 H :   -0.000002
   4 H :   -0.000182
   5 H :   -0.000139
   6 C :   -0.414660
   7 O :   -0.049186
   8 H :    0.167452
   9 H :    0.089107
  10 H :    0.092577
  11 H :    0.115202

  Mayer bond orders larger than 0.1
B(  6-C ,  7-O ) :   0.9973 B(  6-C ,  9-H ) :   0.9769 B(  6-C , 10-H ) :   0.9855
B(  6-C , 11-H ) :   0.9694 B(  7-O ,  8-H ) :   0.8955

Dispersion correction           -0.000216495
FINAL SINGLE POINT ENERGY      -115.729364281304

DIPOLE MOMENT
-------------
                                X             Y             Z
Electronic contribution:     -1.58002       0.12364      -0.80967
Nuclear contribution   :      1.97439      -0.65390       0.77433
                        -----------------------------------------
Total Dipole Moment    :      0.39437      -0.53027      -0.03534
                        -----------------------------------------
Magnitude (a.u.)       :      0.66178
Magnitude (Debye)      :      1.68212

Rotational constants in cm-1:     4.289619     0.883986     0.834059
Rotational constants in MHz : 128599.540657 26501.224467 25004.445073

                             ****ORCA TERMINATED NORMALLY****
TOTAL RUN TIME: 0 days 0 hours 0 minutes 47 seconds 434 msec
