                         Program Version 4.1.2  - RELEASE  -
|  1> #Run DFT-D3 single point of the dimer
|  2> ! wB97X-D3 def2-TZVP TIGHTSCF CHELPG PMODEL PAL8
|  3>
|  4> %base "13-99_DFT_AB"
|  5>
|  6> %scf
|  7> MaxIter 1000
|  8> end
|  9>
| 10> * xyz 0 1
| 11>   C                      -8.327295            -6.314122            3.863884
| 12>   O                      -7.013995            -6.096790            4.267801
| 13>   H                      -6.519497            -6.634224            3.582791
| 14>   H                      -8.460313            -6.122950            2.836673
| 15>   H                      -8.712477            -7.355026            4.012781
| 16>   H                      -9.101512            -5.635674            4.311855
| 17>   C                      -10.145847           -5.988541            -1.209905
| 18>   O                      -10.382820           -6.937075            -0.157967
| 19>   H                      -9.593386            -7.370216            0.193973
| 20>   H                      -10.967038           -5.299304            -1.438026
| 21>   H                      -9.264605            -5.446526            -0.980276
| 22>   H                      -9.938180            -6.476666            -2.169130
| 23> *
| 24>
| 25> #Run DFT-D3 single point of the molecule with dimer basis set
| 26> $new_job
| 27> %base "13-99_DFT_A"
| 28> ! wB97X-D3 def2-TZVP TIGHTSCF CHELPG PMODEL
| 29>
| 30> %scf
| 31> MaxIter 1000
| 32> end
| 33>
| 34> * xyz 0 1
| 35>   C                      -8.327295            -6.314122            3.863884
| 36>   O                      -7.013995            -6.096790            4.267801
| 37>   H                      -6.519497            -6.634224            3.582791
| 38>   H                      -8.460313            -6.122950            2.836673
| 39>   H                      -8.712477            -7.355026            4.012781
| 40>   H                      -9.101512            -5.635674            4.311855
| 41>   C                    : -10.145847           -5.988541            -1.209905
| 42>   O                    : -10.382820           -6.937075            -0.157967
| 43>   H                    : -9.593386            -7.370216            0.193973
| 44>   H                    : -10.967038           -5.299304            -1.438026
| 45>   H                    : -9.264605            -5.446526            -0.980276
| 46>   H                    : -9.938180            -6.476666            -2.169130
| 47> *
| 48>
| 49> #Run DFT-D3 single point of the particle with dimer basis set
| 50> $new_job
| 51> %base "13-99_DFT_B"
| 52> ! wB97X-D3 def2-TZVP TIGHTSCF CHELPG PMODEL
| 53>
| 54> %scf
| 55> MaxIter 1000
| 56> end
| 57>
| 58> * xyz 0 1
| 59>   C                    : -8.327295            -6.314122            3.863884
| 60>   O                    : -7.013995            -6.096790            4.267801
| 61>   H                    : -6.519497            -6.634224            3.582791
| 62>   H                    : -8.460313            -6.122950            2.836673
| 63>   H                    : -8.712477            -7.355026            4.012781
| 64>   H                    : -9.101512            -5.635674            4.311855
| 65>   C                      -10.145847           -5.988541            -1.209905
| 66>   O                      -10.382820           -6.937075            -0.157967
| 67>   H                      -9.593386            -7.370216            0.193973
| 68>   H                      -10.967038           -5.299304            -1.438026
| 69>   H                      -9.264605            -5.446526            -0.980276
| 70>   H                      -9.938180            -6.476666            -2.169130
| 71> *
| 72>
| 73>                          ****END OF INPUT****
 Total Charge           Charge          ....    0
 Multiplicity           Mult            ....    1
 Number of Electrons    NEL             ....   36
Dispersion correction           -0.000929566
FINAL SINGLE POINT ENERGY      -231.459205467776
Dispersion correction           -0.000231840
FINAL SINGLE POINT ENERGY      -115.728258847206

CARTESIAN COORDINATES (ANGSTROEM)
---------------------------------
  C     -8.327295   -6.314122    3.863884
  O     -7.013995   -6.096790    4.267801
  H     -6.519497   -6.634224    3.582791
  H     -8.460313   -6.122950    2.836673
  H     -8.712477   -7.355026    4.012781
  H     -9.101512   -5.635674    4.311855
  C    -10.145847   -5.988541   -1.209905
  O    -10.382820   -6.937075   -0.157967
  H     -9.593386   -7.370216    0.193973
  H    -10.967038   -5.299304   -1.438026
  H     -9.264605   -5.446526   -0.980276
  H     -9.938180   -6.476666   -2.169130

 Multiplicity           Mult            ....    1
 Number of Electrons    NEL             ....   18
 Basis Dimension        Dim             ....  172

ORBITAL ENERGIES
----------------

  NO   OCC          E(Eh)            E(eV)
   0   2.0000     -19.227745      -523.2135
   1   2.0000     -10.313164      -280.6355
   2   2.0000      -1.123365       -30.5683
   3   2.0000      -0.802029       -21.8243
   4   2.0000      -0.609675       -16.5901
   5   2.0000      -0.540445       -14.7063
   6   2.0000      -0.528173       -14.3723
   7   2.0000      -0.425627       -11.5819
   8   2.0000      -0.371406       -10.1065
   9   0.0000       0.079904         2.1743
  10   0.0000       0.121508         3.3064
  11   0.0000       0.148260         4.0344
  12   0.0000       0.167735         4.5643
  13   0.0000       0.194905         5.3036

MULLIKEN ATOMIC CHARGES
-----------------------
   0 C :    0.003152
   1 O :   -0.000040
   2 H :   -0.000019
   3 H :   -0.006164
   4 H :   -0.000164
   5 H :   -0.000165
   6 C :   -0.161394
   7 O :   -0.496839
   8 H :    0.322467
   9 H :    0.127003
  10 H :    0.110291
  11 H :    0.101871
Sum of atomic charges:    0.0000000

LOEWDIN ATOMIC CHARGES
----------------------
   0 C :   -0.000515
   1 O :   -0.000011
   2 H :   -0.000001
   3 H :   -0.001693
   4 H :   -0.000028
   5 H :   -0.000011
   6 C :   -0.363592
   7 O :   -0.099917
   8 H :    0.170264
   9 H :    0.110276
  10 H :    0.089870
  11 H :    0.095359

  Mayer bond orders larger than 0.1
B(  6-C ,  7-O ) :   0.9910 B(  6-C ,  9-H ) :   0.9689 B(  6-C , 10-H ) :   0.9842
B(  6-C , 11-H ) :   0.9776 B(  7-O ,  8-H ) :   0.8893

Dispersion correction           -0.000263288
FINAL SINGLE POINT ENERGY      -115.730770933662

DIPOLE MOMENT
-------------
                                X             Y             Z
Electronic contribution:     -0.48675      -1.11017       1.36613
Nuclear contribution   :      1.11454       1.24693      -1.59761
                        -----------------------------------------
Total Dipole Moment    :      0.62779       0.13675      -0.23148
                        -----------------------------------------
Magnitude (a.u.)       :      0.68294
Magnitude (Debye)      :      1.73590

Rotational constants in cm-1:     4.545933     0.798275     0.769471
Rotational constants in MHz : 136283.646933 23931.691142 23068.164352

                             ****ORCA TERMINATED NORMALLY****
TOTAL RUN TIME: 0 days 0 hours 1 minutes 2 seconds 754 msec
