                         Program Version 4.1.2  - RELEASE  -
|  1> #Run DFT-D3 single point of the dimer
|  2> ! wB97X-D3 def2-TZVP TIGHTSCF CHELPG PMODEL PAL8
|  3>
|  4> %base "22-19_DFT_AB"
|  5>
|  6> %scf
|  7> MaxIter 1000
|  8> end
|  9>
| 10> * xyz 0 1
| 11>   C                      -0.754698            -4.429643            3.939378
| 12>   O                      -1.196798            -4.428082            5.254249
| 13>   H                      -0.395699            -4.752719            5.779728
| 14>   H                      -0.383757            -5.340087            3.635676
| 15>   H                      -1.507620            -4.118996            3.190048
| 16>   H                      0.031200             -3.762485            3.769299
| 17>   C                      4.063604             -4.164335            1.522662
| 18>   O                      3.636612             -3.300503            0.440059
| 19>   H                      4.382438             -2.679649            0.364125
| 20>   H                      3.242593             -4.589483            2.142196
| 21>   H                      4.763362             -5.016916            1.216015
| 22>   H                      4.592937             -3.590968            2.334445
| 23> *
| 24>
| 25> #Run DFT-D3 single point of the molecule with dimer basis set
| 26> $new_job
| 27> %base "22-19_DFT_A"
| 28> ! wB97X-D3 def2-TZVP TIGHTSCF CHELPG PMODEL
| 29>
| 30> %scf
| 31> MaxIter 1000
| 32> end
| 33>
| 34> * xyz 0 1
| 35>   C                      -0.754698            -4.429643            3.939378
| 36>   O                      -1.196798            -4.428082            5.254249
| 37>   H                      -0.395699            -4.752719            5.779728
| 38>   H                      -0.383757            -5.340087            3.635676
| 39>   H                      -1.507620            -4.118996            3.190048
| 40>   H                      0.031200             -3.762485            3.769299
| 41>   C                    : 4.063604             -4.164335            1.522662
| 42>   O                    : 3.636612             -3.300503            0.440059
| 43>   H                    : 4.382438             -2.679649            0.364125
| 44>   H                    : 3.242593             -4.589483            2.142196
| 45>   H                    : 4.763362             -5.016916            1.216015
| 46>   H                    : 4.592937             -3.590968            2.334445
| 47> *
| 48>
| 49> #Run DFT-D3 single point of the particle with dimer basis set
| 50> $new_job
| 51> %base "22-19_DFT_B"
| 52> ! wB97X-D3 def2-TZVP TIGHTSCF CHELPG PMODEL
| 53>
| 54> %scf
| 55> MaxIter 1000
| 56> end
| 57>
| 58> * xyz 0 1
| 59>   C                    : -0.754698            -4.429643            3.939378
| 60>   O                    : -1.196798            -4.428082            5.254249
| 61>   H                    : -0.395699            -4.752719            5.779728
| 62>   H                    : -0.383757            -5.340087            3.635676
| 63>   H                    : -1.507620            -4.118996            3.190048
| 64>   H                    : 0.031200             -3.762485            3.769299
| 65>   C                      4.063604             -4.164335            1.522662
| 66>   O                      3.636612             -3.300503            0.440059
| 67>   H                      4.382438             -2.679649            0.364125
| 68>   H                      3.242593             -4.589483            2.142196
| 69>   H                      4.763362             -5.016916            1.216015
| 70>   H                      4.592937             -3.590968            2.334445
| 71> *
| 72>
| 73>                          ****END OF INPUT****
 Total Charge           Charge          ....    0
 Multiplicity           Mult            ....    1
 Number of Electrons    NEL             ....   36
Dispersion correction           -0.000724518
FINAL SINGLE POINT ENERGY      -231.455209796379
Dispersion correction           -0.000214268
FINAL SINGLE POINT ENERGY      -115.726266774789

CARTESIAN COORDINATES (ANGSTROEM)
---------------------------------
  C     -0.754698   -4.429643    3.939378
  O     -1.196798   -4.428082    5.254249
  H     -0.395699   -4.752719    5.779728
  H     -0.383757   -5.340087    3.635676
  H     -1.507620   -4.118996    3.190048
  H      0.031200   -3.762485    3.769299
  C      4.063604   -4.164335    1.522662
  O      3.636612   -3.300503    0.440059
  H      4.382438   -2.679649    0.364125
  H      3.242593   -4.589483    2.142196
  H      4.763362   -5.016916    1.216015
  H      4.592937   -3.590968    2.334445

 Multiplicity           Mult            ....    1
 Number of Electrons    NEL             ....   18
 Basis Dimension        Dim             ....  172

ORBITAL ENERGIES
----------------

  NO   OCC          E(Eh)            E(eV)
   0   2.0000     -19.238993      -523.5196
   1   2.0000     -10.327532      -281.0264
   2   2.0000      -1.129711       -30.7410
   3   2.0000      -0.788843       -21.4655
   4   2.0000      -0.602351       -16.3908
   5   2.0000      -0.535024       -14.5587
   6   2.0000      -0.519900       -14.1472
   7   2.0000      -0.433980       -11.8092
   8   2.0000      -0.379359       -10.3229
   9   0.0000       0.085532         2.3274
  10   0.0000       0.112770         3.0686
  11   0.0000       0.142535         3.8786
  12   0.0000       0.165451         4.5021
  13   0.0000       0.179965         4.8971

MULLIKEN ATOMIC CHARGES
-----------------------
   0 C :   -0.000126
   1 O :    0.000005
   2 H :    0.000002
   3 H :   -0.000036
   4 H :   -0.000004
   5 H :    0.000146
   6 C :   -0.201886
   7 O :   -0.461252
   8 H :    0.319907
   9 H :    0.125117
  10 H :    0.109680
  11 H :    0.108447
Sum of atomic charges:    0.0000000

LOEWDIN ATOMIC CHARGES
----------------------
   0 C :   -0.000119
   1 O :   -0.000002
   2 H :   -0.000000
   3 H :   -0.000048
   4 H :   -0.000001
   5 H :   -0.000073
   6 C :   -0.389705
   7 O :   -0.103418
   8 H :    0.179314
   9 H :    0.109490
  10 H :    0.103833
  11 H :    0.100729

  Mayer bond orders larger than 0.1
B(  6-C ,  7-O ) :   1.0077 B(  6-C ,  9-H ) :   0.9702 B(  6-C , 10-H ) :   0.9654
B(  6-C , 11-H ) :   0.9782 B(  7-O ,  8-H ) :   0.8985

Dispersion correction           -0.000281969
FINAL SINGLE POINT ENERGY      -115.728730586322

DIPOLE MOMENT
-------------
                                X             Y             Z
Electronic contribution:     -0.77919       1.04016      -1.58343
Nuclear contribution   :      1.39275      -0.97263       1.99278
                        -----------------------------------------
Total Dipole Moment    :      0.61356       0.06752       0.40935
                        -----------------------------------------
Magnitude (a.u.)       :      0.74066
Magnitude (Debye)      :      1.88262

Rotational constants in cm-1:     4.170377     0.779487     0.760861
Rotational constants in MHz : 125024.764681 23368.440573 22810.030147

                             ****ORCA TERMINATED NORMALLY****
TOTAL RUN TIME: 0 days 0 hours 0 minutes 54 seconds 983 msec
