                         Program Version 4.1.2  - RELEASE  -
|  1> #Run DFT-D3 single point of the dimer
|  2> ! wB97X-D3 def2-TZVP TIGHTSCF CHELPG PMODEL PAL8
|  3>
|  4> %base "13-176_DFT_AB"
|  5>
|  6> %scf
|  7> MaxIter 1000
|  8> end
|  9>
| 10> * xyz 0 1
| 11>   C                      -8.175449            2.746765             -1.837950
| 12>   O                      -8.060172            1.347872             -1.509764
| 13>   H                      -7.152855            1.053652             -1.666158
| 14>   H                      -8.791188            3.313160             -1.209012
| 15>   H                      -7.184519            3.201967             -1.930907
| 16>   H                      -8.582462            2.806671             -2.921973
| 17>   C                      -4.337666            0.501851             -1.889345
| 18>   O                      -5.619004            0.650676             -2.483384
| 19>   H                      -5.565727            1.294701             -3.176303
| 20>   H                      -4.456316            -0.139989            -0.980967
| 21>   H                      -3.606435            -0.028678            -2.449864
| 22>   H                      -3.910458            1.414120             -1.539723
| 23> *
| 24>
| 25> #Run DFT-D3 single point of the molecule with dimer basis set
| 26> $new_job
| 27> %base "13-176_DFT_A"
| 28> ! wB97X-D3 def2-TZVP TIGHTSCF CHELPG PMODEL
| 29>
| 30> %scf
| 31> MaxIter 1000
| 32> end
| 33>
| 34> * xyz 0 1
| 35>   C                      -8.175449            2.746765             -1.837950
| 36>   O                      -8.060172            1.347872             -1.509764
| 37>   H                      -7.152855            1.053652             -1.666158
| 38>   H                      -8.791188            3.313160             -1.209012
| 39>   H                      -7.184519            3.201967             -1.930907
| 40>   H                      -8.582462            2.806671             -2.921973
| 41>   C                    : -4.337666            0.501851             -1.889345
| 42>   O                    : -5.619004            0.650676             -2.483384
| 43>   H                    : -5.565727            1.294701             -3.176303
| 44>   H                    : -4.456316            -0.139989            -0.980967
| 45>   H                    : -3.606435            -0.028678            -2.449864
| 46>   H                    : -3.910458            1.414120             -1.539723
| 47> *
| 48>
| 49> #Run DFT-D3 single point of the particle with dimer basis set
| 50> $new_job
| 51> %base "13-176_DFT_B"
| 52> ! wB97X-D3 def2-TZVP TIGHTSCF CHELPG PMODEL
| 53>
| 54> %scf
| 55> MaxIter 1000
| 56> end
| 57>
| 58> * xyz 0 1
| 59>   C                    : -8.175449            2.746765             -1.837950
| 60>   O                    : -8.060172            1.347872             -1.509764
| 61>   H                    : -7.152855            1.053652             -1.666158
| 62>   H                    : -8.791188            3.313160             -1.209012
| 63>   H                    : -7.184519            3.201967             -1.930907
| 64>   H                    : -8.582462            2.806671             -2.921973
| 65>   C                      -4.337666            0.501851             -1.889345
| 66>   O                      -5.619004            0.650676             -2.483384
| 67>   H                      -5.565727            1.294701             -3.176303
| 68>   H                      -4.456316            -0.139989            -0.980967
| 69>   H                      -3.606435            -0.028678            -2.449864
| 70>   H                      -3.910458            1.414120             -1.539723
| 71> *
| 72>
| 73>                          ****END OF INPUT****
 Total Charge           Charge          ....    0
 Multiplicity           Mult            ....    1
 Number of Electrons    NEL             ....   36
Dispersion correction           -0.001898857
FINAL SINGLE POINT ENERGY      -231.471315085980
Dispersion correction           -0.000258959
FINAL SINGLE POINT ENERGY      -115.729873641874

CARTESIAN COORDINATES (ANGSTROEM)
---------------------------------
  C     -8.175449    2.746765   -1.837950
  O     -8.060172    1.347872   -1.509764
  H     -7.152855    1.053652   -1.666158
  H     -8.791188    3.313160   -1.209012
  H     -7.184519    3.201967   -1.930907
  H     -8.582462    2.806671   -2.921973
  C     -4.337666    0.501851   -1.889345
  O     -5.619004    0.650676   -2.483384
  H     -5.565727    1.294701   -3.176303
  H     -4.456316   -0.139989   -0.980967
  H     -3.606435   -0.028678   -2.449864
  H     -3.910458    1.414120   -1.539723

 Multiplicity           Mult            ....    1
 Number of Electrons    NEL             ....   18
 Basis Dimension        Dim             ....  172

ORBITAL ENERGIES
----------------

  NO   OCC          E(Eh)            E(eV)
   0   2.0000     -19.232955      -523.3553
   1   2.0000     -10.310055      -280.5509
   2   2.0000      -1.137707       -30.9586
   3   2.0000      -0.802610       -21.8401
   4   2.0000      -0.615801       -16.7568
   5   2.0000      -0.546709       -14.8767
   6   2.0000      -0.521521       -14.1913
   7   2.0000      -0.432917       -11.7803
   8   2.0000      -0.379547       -10.3280
   9   0.0000       0.092270         2.5108
  10   0.0000       0.133273         3.6265
  11   0.0000       0.152764         4.1569
  12   0.0000       0.181723         4.9449
  13   0.0000       0.198693         5.4067

MULLIKEN ATOMIC CHARGES
-----------------------
   0 C :   -0.001162
   1 O :    0.001589
   2 H :   -0.006909
   3 H :   -0.000741
   4 H :   -0.006133
   5 H :    0.000095
   6 C :   -0.159342
   7 O :   -0.467462
   8 H :    0.312892
   9 H :    0.117193
  10 H :    0.107129
  11 H :    0.102852
Sum of atomic charges:    0.0000000

LOEWDIN ATOMIC CHARGES
----------------------
   0 C :   -0.006166
   1 O :   -0.008814
   2 H :   -0.059759
   3 H :   -0.000116
   4 H :   -0.002990
   5 H :   -0.000148
   6 C :   -0.376127
   7 O :   -0.004640
   8 H :    0.161864
   9 H :    0.117062
  10 H :    0.090137
  11 H :    0.089697

  Mayer bond orders larger than 0.1
B(  6-C ,  7-O ) :   0.9926 B(  6-C ,  9-H ) :   0.9805 B(  6-C , 10-H ) :   0.9689
B(  6-C , 11-H ) :   0.9763 B(  7-O ,  8-H ) :   0.8991

Dispersion correction           -0.000255911
FINAL SINGLE POINT ENERGY      -115.734742395905

DIPOLE MOMENT
-------------
                                X             Y             Z
Electronic contribution:     -1.66825       0.18126      -0.82293
Nuclear contribution   :      2.23713       0.15891       0.62553
                        -----------------------------------------
Total Dipole Moment    :      0.56889       0.34017      -0.19740
                        -----------------------------------------
Magnitude (a.u.)       :      0.69160
Magnitude (Debye)      :      1.75792

Rotational constants in cm-1:     4.516718     0.818579     0.790199
Rotational constants in MHz : 135407.792591 24540.388119 23689.576756

                             ****ORCA TERMINATED NORMALLY****
TOTAL RUN TIME: 0 days 0 hours 1 minutes 14 seconds 316 msec
