                         Program Version 4.1.2  - RELEASE  -
|  1> #Run DFT-D3 single point of the dimer
|  2> ! wB97X-D3 def2-TZVP TIGHTSCF  CHELPG PAL8
|  3>
|  4> %base "76_charges"
|  5>
|  6> %scf
|  7> MaxIter 1000
|  8> end
|  9> %output
| 10>   Print[ P_Mayer ] 1
| 11>   Print[ P_NatPop ] 1
| 12>   Print[ P_Hirshfeld ] 1
| 13>   Print[ P_Mulliken ] 1
| 14>   Print [ P_Loewdin ] 1
| 15> end
| 16>
| 17> * xyz 0 1
| 18>   C                      -0.175020            8.072113             5.326848
| 19>   O                      0.249914             9.433086             5.415304
| 20>   H                      0.798402             9.499366             4.623105
| 21>   H                      -1.269058            7.906724             5.446056
| 22>   H                      0.064331             7.736061             4.338662
| 23>   H                      0.330196             7.390484             6.035953
| 24> *
| 25>
| 26>                          ****END OF INPUT****

CARTESIAN COORDINATES (ANGSTROEM)
---------------------------------
  C     -0.175020    8.072113    5.326848
  O      0.249914    9.433086    5.415304
  H      0.798402    9.499366    4.623105
  H     -1.269058    7.906724    5.446056
  H      0.064331    7.736061    4.338662
  H      0.330196    7.390484    6.035953

 Total Charge           Charge          ....    0
 Multiplicity           Mult            ....    1
 Number of Electrons    NEL             ....   18
 Basis Dimension        Dim             ....   86

ORBITAL ENERGIES
----------------

  NO   OCC          E(Eh)            E(eV)
   0   2.0000     -19.234020      -523.3843
   1   2.0000     -10.316223      -280.7187
   2   2.0000      -1.137108       -30.9423
   3   2.0000      -0.792578       -21.5671
   4   2.0000      -0.610609       -16.6155
   5   2.0000      -0.536640       -14.6027
   6   2.0000      -0.529658       -14.4127
   7   2.0000      -0.438212       -11.9243
   8   2.0000      -0.376353       -10.2411
   9   0.0000       0.109952         2.9919
  10   0.0000       0.152243         4.1427
  11   0.0000       0.199622         5.4320
  12   0.0000       0.207039         5.6338
  13   0.0000       0.234724         6.3872

MULLIKEN ATOMIC CHARGES
-----------------------
   0 C :   -0.168901
   1 O :   -0.460635
   2 H :    0.316917
   3 H :    0.112468
   4 H :    0.096651
   5 H :    0.103502
Sum of atomic charges:   -0.0000000

LOEWDIN ATOMIC CHARGES
----------------------
   0 C :   -0.381851
   1 O :   -0.089179
   2 H :    0.176807
   3 H :    0.105175
   4 H :    0.090687
   5 H :    0.098360

  Mayer bond orders larger than 0.1
B(  0-C ,  1-O ) :   1.0168 B(  0-C ,  3-H ) :   0.9723 B(  0-C ,  4-H ) :   0.9964
B(  0-C ,  5-H ) :   0.9707 B(  1-O ,  2-H ) :   0.9034

Dispersion correction           -0.000245474
FINAL SINGLE POINT ENERGY      -115.730973858949

DIPOLE MOMENT
-------------
                                X             Y             Z
Electronic contribution:      0.46108       1.84651       0.31337
Nuclear contribution   :     -0.28166      -2.33994      -0.87296
                        -----------------------------------------
Total Dipole Moment    :      0.17942      -0.49343      -0.55959
                        -----------------------------------------
Magnitude (a.u.)       :      0.76734
Magnitude (Debye)      :      1.95041

Rotational constants in cm-1:     4.291246     0.818349     0.790355
Rotational constants in MHz : 128648.320699 24533.496896 23694.242155

                             ****ORCA TERMINATED NORMALLY****
TOTAL RUN TIME: 0 days 0 hours 0 minutes 39 seconds 801 msec
