                         Program Version 4.1.2  - RELEASE  -
|  1> #Run DFT-D3 single point of the dimer
|  2> ! wB97X-D3 def2-TZVP TIGHTSCF CHELPG PMODEL PAL8
|  3>
|  4> %base "22-129_DFT_AB"
|  5>
|  6> %scf
|  7> MaxIter 1000
|  8> end
|  9>
| 10> * xyz 0 1
| 11>   C                      -0.749633            2.416253             -3.313901
| 12>   O                      -0.861180            1.452458             -2.250456
| 13>   H                      0.018248             1.215378             -2.084135
| 14>   H                      -1.723585            2.657808             -3.810069
| 15>   H                      -0.325219            3.272619             -2.879507
| 16>   H                      -0.054227            2.091398             -4.053934
| 17>   C                      -1.574959            5.552687             0.052939
| 18>   O                      -0.213049            5.315815             -0.311016
| 19>   H                      0.156390             6.059538             -0.790680
| 20>   H                      -2.149226            5.731861             -0.873116
| 21>   H                      -1.975648            4.632163             0.646193
| 22>   H                      -1.674990            6.385533             0.750422
| 23> *
| 24>
| 25> #Run DFT-D3 single point of the molecule with dimer basis set
| 26> $new_job
| 27> %base "22-129_DFT_A"
| 28> ! wB97X-D3 def2-TZVP TIGHTSCF CHELPG PMODEL
| 29>
| 30> %scf
| 31> MaxIter 1000
| 32> end
| 33>
| 34> * xyz 0 1
| 35>   C                      -0.749633            2.416253             -3.313901
| 36>   O                      -0.861180            1.452458             -2.250456
| 37>   H                      0.018248             1.215378             -2.084135
| 38>   H                      -1.723585            2.657808             -3.810069
| 39>   H                      -0.325219            3.272619             -2.879507
| 40>   H                      -0.054227            2.091398             -4.053934
| 41>   C                    : -1.574959            5.552687             0.052939
| 42>   O                    : -0.213049            5.315815             -0.311016
| 43>   H                    : 0.156390             6.059538             -0.790680
| 44>   H                    : -2.149226            5.731861             -0.873116
| 45>   H                    : -1.975648            4.632163             0.646193
| 46>   H                    : -1.674990            6.385533             0.750422
| 47> *
| 48>
| 49> #Run DFT-D3 single point of the particle with dimer basis set
| 50> $new_job
| 51> %base "22-129_DFT_B"
| 52> ! wB97X-D3 def2-TZVP TIGHTSCF CHELPG PMODEL
| 53>
| 54> %scf
| 55> MaxIter 1000
| 56> end
| 57>
| 58> * xyz 0 1
| 59>   C                    : -0.749633            2.416253             -3.313901
| 60>   O                    : -0.861180            1.452458             -2.250456
| 61>   H                    : 0.018248             1.215378             -2.084135
| 62>   H                    : -1.723585            2.657808             -3.810069
| 63>   H                    : -0.325219            3.272619             -2.879507
| 64>   H                    : -0.054227            2.091398             -4.053934
| 65>   C                      -1.574959            5.552687             0.052939
| 66>   O                      -0.213049            5.315815             -0.311016
| 67>   H                      0.156390             6.059538             -0.790680
| 68>   H                      -2.149226            5.731861             -0.873116
| 69>   H                      -1.975648            4.632163             0.646193
| 70>   H                      -1.674990            6.385533             0.750422
| 71> *
| 72>
| 73>                          ****END OF INPUT****
 Total Charge           Charge          ....    0
 Multiplicity           Mult            ....    1
 Number of Electrons    NEL             ....   36
Dispersion correction           -0.001145529
FINAL SINGLE POINT ENERGY      -231.463996021945
Dispersion correction           -0.000216039
FINAL SINGLE POINT ENERGY      -115.730182355408

CARTESIAN COORDINATES (ANGSTROEM)
---------------------------------
  C     -0.749633    2.416253   -3.313901
  O     -0.861180    1.452458   -2.250456
  H      0.018248    1.215378   -2.084135
  H     -1.723585    2.657808   -3.810069
  H     -0.325219    3.272619   -2.879507
  H     -0.054227    2.091398   -4.053934
  C     -1.574959    5.552687    0.052939
  O     -0.213049    5.315815   -0.311016
  H      0.156390    6.059538   -0.790680
  H     -2.149226    5.731861   -0.873116
  H     -1.975648    4.632163    0.646193
  H     -1.674990    6.385533    0.750422

 Multiplicity           Mult            ....    1
 Number of Electrons    NEL             ....   18
 Basis Dimension        Dim             ....  172

ORBITAL ENERGIES
----------------

  NO   OCC          E(Eh)            E(eV)
   0   2.0000     -19.228110      -523.2235
   1   2.0000     -10.323337      -280.9123
   2   2.0000      -1.129485       -30.7348
   3   2.0000      -0.791081       -21.5264
   4   2.0000      -0.606370       -16.5002
   5   2.0000      -0.545611       -14.8468
   6   2.0000      -0.516911       -14.0659
   7   2.0000      -0.426031       -11.5929
   8   2.0000      -0.374046       -10.1783
   9   0.0000       0.091922         2.5013
  10   0.0000       0.119877         3.2620
  11   0.0000       0.149269         4.0618
  12   0.0000       0.169120         4.6020
  13   0.0000       0.195864         5.3297

MULLIKEN ATOMIC CHARGES
-----------------------
   0 C :    0.004016
   1 O :   -0.000195
   2 H :   -0.000163
   3 H :   -0.000058
   4 H :   -0.008098
   5 H :   -0.000192
   6 C :   -0.163291
   7 O :   -0.484675
   8 H :    0.315631
   9 H :    0.108301
  10 H :    0.120319
  11 H :    0.108405
Sum of atomic charges:   -0.0000000

LOEWDIN ATOMIC CHARGES
----------------------
   0 C :   -0.000942
   1 O :   -0.000025
   2 H :   -0.000044
   3 H :   -0.000017
   4 H :   -0.003398
   5 H :   -0.000008
   6 C :   -0.381228
   7 O :   -0.091717
   8 H :    0.164441
   9 H :    0.097430
  10 H :    0.123332
  11 H :    0.092176

  Mayer bond orders larger than 0.1
B(  6-C ,  7-O ) :   0.9832 B(  6-C ,  9-H ) :   0.9792 B(  6-C , 10-H ) :   0.9700
B(  6-C , 11-H ) :   0.9701 B(  7-O ,  8-H ) :   0.8955

Dispersion correction           -0.000255907
FINAL SINGLE POINT ENERGY      -115.732825313488

DIPOLE MOMENT
-------------
                                X             Y             Z
Electronic contribution:      1.68505      -0.33869      -0.42987
Nuclear contribution   :     -2.00384       0.93253       0.28671
                        -----------------------------------------
Total Dipole Moment    :     -0.31879       0.59384      -0.14316
                        -----------------------------------------
Magnitude (a.u.)       :      0.68903
Magnitude (Debye)      :      1.75138

Rotational constants in cm-1:     4.132605     0.812116     0.781709
Rotational constants in MHz : 123892.380590 24346.639599 23435.049138

                             ****ORCA TERMINATED NORMALLY****
TOTAL RUN TIME: 0 days 0 hours 0 minutes 55 seconds 219 msec
