                         Program Version 4.1.2  - RELEASE  -
|  1> #Run DFT-D3 single point of the dimer
|  2> ! wB97X-D3 def2-TZVP TIGHTSCF CHELPG PMODEL PAL8
|  3>
|  4> %base "19-192_DFT_AB"
|  5>
|  6> %scf
|  7> MaxIter 1000
|  8> end
|  9>
| 10> * xyz 0 1
| 11>   C                      5.268727             -3.063159            7.449425
| 12>   O                      6.666113             -3.106608            7.276511
| 13>   H                      6.971623             -4.013655            7.312842
| 14>   H                      4.745337             -3.110422            6.493935
| 15>   H                      4.932925             -3.893901            8.091872
| 16>   H                      5.027289             -2.137624            7.948754
| 17>   C                      8.688637             -2.375975            10.960818
| 18>   O                      7.454048             -2.255057            10.299819
| 19>   H                      7.658497             -2.290132            9.340659
| 20>   H                      8.886621             -3.384822            11.307108
| 21>   H                      9.483844             -2.092720            10.345854
| 22>   H                      8.576336             -1.714098            11.815789
| 23> *
| 24>
| 25> #Run DFT-D3 single point of the molecule with dimer basis set
| 26> $new_job
| 27> %base "19-192_DFT_A"
| 28> ! wB97X-D3 def2-TZVP TIGHTSCF CHELPG PMODEL
| 29>
| 30> %scf
| 31> MaxIter 1000
| 32> end
| 33>
| 34> * xyz 0 1
| 35>   C                      5.268727             -3.063159            7.449425
| 36>   O                      6.666113             -3.106608            7.276511
| 37>   H                      6.971623             -4.013655            7.312842
| 38>   H                      4.745337             -3.110422            6.493935
| 39>   H                      4.932925             -3.893901            8.091872
| 40>   H                      5.027289             -2.137624            7.948754
| 41>   C                    : 8.688637             -2.375975            10.960818
| 42>   O                    : 7.454048             -2.255057            10.299819
| 43>   H                    : 7.658497             -2.290132            9.340659
| 44>   H                    : 8.886621             -3.384822            11.307108
| 45>   H                    : 9.483844             -2.092720            10.345854
| 46>   H                    : 8.576336             -1.714098            11.815789
| 47> *
| 48>
| 49> #Run DFT-D3 single point of the particle with dimer basis set
| 50> $new_job
| 51> %base "19-192_DFT_B"
| 52> ! wB97X-D3 def2-TZVP TIGHTSCF CHELPG PMODEL
| 53>
| 54> %scf
| 55> MaxIter 1000
| 56> end
| 57>
| 58> * xyz 0 1
| 59>   C                    : 5.268727             -3.063159            7.449425
| 60>   O                    : 6.666113             -3.106608            7.276511
| 61>   H                    : 6.971623             -4.013655            7.312842
| 62>   H                    : 4.745337             -3.110422            6.493935
| 63>   H                    : 4.932925             -3.893901            8.091872
| 64>   H                    : 5.027289             -2.137624            7.948754
| 65>   C                      8.688637             -2.375975            10.960818
| 66>   O                      7.454048             -2.255057            10.299819
| 67>   H                      7.658497             -2.290132            9.340659
| 68>   H                      8.886621             -3.384822            11.307108
| 69>   H                      9.483844             -2.092720            10.345854
| 70>   H                      8.576336             -1.714098            11.815789
| 71> *
| 72>
| 73>                          ****END OF INPUT****
 Total Charge           Charge          ....    0
 Multiplicity           Mult            ....    1
 Number of Electrons    NEL             ....   36
Dispersion correction           -0.001554261
FINAL SINGLE POINT ENERGY      -231.475675787283
Dispersion correction           -0.000239065
FINAL SINGLE POINT ENERGY      -115.736901887741

CARTESIAN COORDINATES (ANGSTROEM)
---------------------------------
  C      5.268727   -3.063159    7.449425
  O      6.666113   -3.106608    7.276511
  H      6.971623   -4.013655    7.312842
  H      4.745337   -3.110422    6.493935
  H      4.932925   -3.893901    8.091872
  H      5.027289   -2.137624    7.948754
  C      8.688637   -2.375975   10.960818
  O      7.454048   -2.255057   10.299819
  H      7.658497   -2.290132    9.340659
  H      8.886621   -3.384822   11.307108
  H      9.483844   -2.092720   10.345854
  H      8.576336   -1.714098   11.815789

 Multiplicity           Mult            ....    1
 Number of Electrons    NEL             ....   18
 Basis Dimension        Dim             ....  172

ORBITAL ENERGIES
----------------

  NO   OCC          E(Eh)            E(eV)
   0   2.0000     -19.230039      -523.2760
   1   2.0000     -10.304114      -280.3892
   2   2.0000      -1.135735       -30.9049
   3   2.0000      -0.795862       -21.6565
   4   2.0000      -0.616817       -16.7844
   5   2.0000      -0.543199       -14.7812
   6   2.0000      -0.524388       -14.2693
   7   2.0000      -0.440162       -11.9774
   8   2.0000      -0.370816       -10.0904
   9   0.0000       0.078459         2.1350
  10   0.0000       0.125651         3.4191
  11   0.0000       0.159240         4.3331
  12   0.0000       0.173743         4.7278
  13   0.0000       0.192128         5.2281

MULLIKEN ATOMIC CHARGES
-----------------------
   0 C :   -0.001241
   1 O :   -0.000979
   2 H :   -0.001003
   3 H :   -0.000076
   4 H :   -0.000425
   5 H :   -0.000445
   6 C :   -0.156662
   7 O :   -0.466745
   8 H :    0.313207
   9 H :    0.094232
  10 H :    0.107183
  11 H :    0.112954
Sum of atomic charges:    0.0000000

LOEWDIN ATOMIC CHARGES
----------------------
   0 C :   -0.003682
   1 O :   -0.005472
   2 H :   -0.001429
   3 H :   -0.000056
   4 H :   -0.000396
   5 H :   -0.000721
   6 C :   -0.382214
   7 O :   -0.076356
   8 H :    0.184131
   9 H :    0.093240
  10 H :    0.085612
  11 H :    0.107342

  Mayer bond orders larger than 0.1
B(  6-C ,  7-O ) :   1.0090 B(  6-C ,  9-H ) :   0.9700 B(  6-C , 10-H ) :   0.9866
B(  6-C , 11-H ) :   0.9827 B(  7-O ,  8-H ) :   0.9004

Dispersion correction           -0.000224605
FINAL SINGLE POINT ENERGY      -115.732853631248

DIPOLE MOMENT
-------------
                                X             Y             Z
Electronic contribution:     -1.55156       0.15539      -0.73875
Nuclear contribution   :      2.18187      -0.20754       0.38626
                        -----------------------------------------
Total Dipole Moment    :      0.63030      -0.05215      -0.35249
                        -----------------------------------------
Magnitude (a.u.)       :      0.72405
Magnitude (Debye)      :      1.84040

Rotational constants in cm-1:     4.313371     0.854340     0.818653
Rotational constants in MHz : 129311.619567 25612.474056 24542.596402

                             ****ORCA TERMINATED NORMALLY****
TOTAL RUN TIME: 0 days 0 hours 1 minutes 36 seconds 989 msec
