                         Program Version 4.1.2  - RELEASE  -
|  1> #Run DFT-D3 single point of the dimer
|  2> ! wB97X-D3 def2-TZVP TIGHTSCF CHELPG PMODEL PAL8
|  3>
|  4> %base "21-197_DFT_AB"
|  5>
|  6> %scf
|  7> MaxIter 1000
|  8> end
|  9>
| 10> * xyz 0 1
| 11>   C                      0.091192             -1.749890            -4.539063
| 12>   O                      -0.502179            -0.515485            -4.763093
| 13>   H                      -0.965131            -0.273473            -3.970408
| 14>   H                      -0.308437            -2.259169            -3.681666
| 15>   H                      0.147476             -2.344741            -5.426290
| 16>   H                      1.158647             -1.549646            -4.267280
| 17>   C                      -0.351555            0.383032             -8.402694
| 18>   O                      -0.314816            -0.859094            -7.686971
| 19>   H                      -0.003501            -0.643212            -6.725803
| 20>   H                      -0.755686            0.132344             -9.394718
| 21>   H                      -0.953286            1.168169             -8.019851
| 22>   H                      0.685888             0.764431             -8.560317
| 23> *
| 24>
| 25> #Run DFT-D3 single point of the molecule with dimer basis set
| 26> $new_job
| 27> %base "21-197_DFT_A"
| 28> ! wB97X-D3 def2-TZVP TIGHTSCF CHELPG PMODEL
| 29>
| 30> %scf
| 31> MaxIter 1000
| 32> end
| 33>
| 34> * xyz 0 1
| 35>   C                      0.091192             -1.749890            -4.539063
| 36>   O                      -0.502179            -0.515485            -4.763093
| 37>   H                      -0.965131            -0.273473            -3.970408
| 38>   H                      -0.308437            -2.259169            -3.681666
| 39>   H                      0.147476             -2.344741            -5.426290
| 40>   H                      1.158647             -1.549646            -4.267280
| 41>   C                    : -0.351555            0.383032             -8.402694
| 42>   O                    : -0.314816            -0.859094            -7.686971
| 43>   H                    : -0.003501            -0.643212            -6.725803
| 44>   H                    : -0.755686            0.132344             -9.394718
| 45>   H                    : -0.953286            1.168169             -8.019851
| 46>   H                    : 0.685888             0.764431             -8.560317
| 47> *
| 48>
| 49> #Run DFT-D3 single point of the particle with dimer basis set
| 50> $new_job
| 51> %base "21-197_DFT_B"
| 52> ! wB97X-D3 def2-TZVP TIGHTSCF CHELPG PMODEL
| 53>
| 54> %scf
| 55> MaxIter 1000
| 56> end
| 57>
| 58> * xyz 0 1
| 59>   C                    : 0.091192             -1.749890            -4.539063
| 60>   O                    : -0.502179            -0.515485            -4.763093
| 61>   H                    : -0.965131            -0.273473            -3.970408
| 62>   H                    : -0.308437            -2.259169            -3.681666
| 63>   H                    : 0.147476             -2.344741            -5.426290
| 64>   H                    : 1.158647             -1.549646            -4.267280
| 65>   C                      -0.351555            0.383032             -8.402694
| 66>   O                      -0.314816            -0.859094            -7.686971
| 67>   H                      -0.003501            -0.643212            -6.725803
| 68>   H                      -0.755686            0.132344             -9.394718
| 69>   H                      -0.953286            1.168169             -8.019851
| 70>   H                      0.685888             0.764431             -8.560317
| 71> *
| 72>
| 73>                          ****END OF INPUT****
 Total Charge           Charge          ....    0
 Multiplicity           Mult            ....    1
 Number of Electrons    NEL             ....   36
Dispersion correction           -0.001675039
FINAL SINGLE POINT ENERGY      -231.467533551533
Dispersion correction           -0.000224850
FINAL SINGLE POINT ENERGY      -115.732381356234

CARTESIAN COORDINATES (ANGSTROEM)
---------------------------------
  C      0.091192   -1.749890   -4.539063
  O     -0.502179   -0.515485   -4.763093
  H     -0.965131   -0.273473   -3.970408
  H     -0.308437   -2.259169   -3.681666
  H      0.147476   -2.344741   -5.426290
  H      1.158647   -1.549646   -4.267280
  C     -0.351555    0.383032   -8.402694
  O     -0.314816   -0.859094   -7.686971
  H     -0.003501   -0.643212   -6.725803
  H     -0.755686    0.132344   -9.394718
  H     -0.953286    1.168169   -8.019851
  H      0.685888    0.764431   -8.560317

 Multiplicity           Mult            ....    1
 Number of Electrons    NEL             ....   18
 Basis Dimension        Dim             ....  172

ORBITAL ENERGIES
----------------

  NO   OCC          E(Eh)            E(eV)
   0   2.0000     -19.239192      -523.5250
   1   2.0000     -10.313340      -280.6403
   2   2.0000      -1.119105       -30.4524
   3   2.0000      -0.791651       -21.5419
   4   2.0000      -0.601752       -16.3745
   5   2.0000      -0.539490       -14.6803
   6   2.0000      -0.517210       -14.0740
   7   2.0000      -0.435822       -11.8593
   8   2.0000      -0.374900       -10.2016
   9   0.0000       0.071868         1.9556
  10   0.0000       0.130905         3.5621
  11   0.0000       0.153147         4.1673
  12   0.0000       0.163306         4.4438
  13   0.0000       0.194933         5.3044

MULLIKEN ATOMIC CHARGES
-----------------------
   0 C :   -0.003230
   1 O :   -0.002828
   2 H :   -0.000352
   3 H :    0.000367
   4 H :   -0.001153
   5 H :    0.000053
   6 C :   -0.171471
   7 O :   -0.467548
   8 H :    0.313472
   9 H :    0.117565
  10 H :    0.113391
  11 H :    0.101735
Sum of atomic charges:    0.0000000

LOEWDIN ATOMIC CHARGES
----------------------
   0 C :   -0.013966
   1 O :   -0.016662
   2 H :   -0.000733
   3 H :   -0.000159
   4 H :   -0.004617
   5 H :   -0.000407
   6 C :   -0.379751
   7 O :   -0.103232
   8 H :    0.221534
   9 H :    0.111610
  10 H :    0.087111
  11 H :    0.099273

  Mayer bond orders larger than 0.1
B(  6-C ,  7-O ) :   1.0030 B(  6-C ,  9-H ) :   0.9755 B(  6-C , 10-H ) :   0.9634
B(  6-C , 11-H ) :   0.9822 B(  7-O ,  8-H ) :   0.8928

Dispersion correction           -0.000262035
FINAL SINGLE POINT ENERGY      -115.730786395982

DIPOLE MOMENT
-------------
                                X             Y             Z
Electronic contribution:     -0.09127      -1.59936       0.86099
Nuclear contribution   :      0.24260       2.22778      -0.58985
                        -----------------------------------------
Total Dipole Moment    :      0.15133       0.62842       0.27115
                        -----------------------------------------
Magnitude (a.u.)       :      0.70095
Magnitude (Debye)      :      1.78167

Rotational constants in cm-1:     4.191029     0.809300     0.777770
Rotational constants in MHz : 125643.884085 24262.205437 23316.971809

                             ****ORCA TERMINATED NORMALLY****
TOTAL RUN TIME: 0 days 0 hours 1 minutes 6 seconds 950 msec
