                         Program Version 4.1.2  - RELEASE  -
|  1> #Run DFT-D3 single point of the dimer
|  2> ! wB97X-D3 def2-TZVP TIGHTSCF CHELPG PMODEL PAL8
|  3>
|  4> %base "7-106_DFT_AB"
|  5>
|  6> %scf
|  7> MaxIter 1000
|  8> end
|  9>
| 10> * xyz 0 1
| 11>   C                      -2.638835            -6.614666            -7.420561
| 12>   O                      -2.992376            -6.578243            -8.791841
| 13>   H                      -2.217192            -6.413573            -9.277582
| 14>   H                      -1.667935            -6.968071            -7.283540
| 15>   H                      -2.582873            -5.608869            -6.989358
| 16>   H                      -3.339959            -7.212623            -6.807963
| 17>   C                      -6.045560            -8.791111            -9.092576
| 18>   O                      -6.099992            -9.084362            -7.667604
| 19>   H                      -5.380830            -9.682952            -7.459101
| 20>   H                      -5.092148            -8.258486            -9.316801
| 21>   H                      -5.891046            -9.683915            -9.654917
| 22>   H                      -6.893390            -8.131081            -9.325987
| 23> *
| 24>
| 25> #Run DFT-D3 single point of the molecule with dimer basis set
| 26> $new_job
| 27> %base "7-106_DFT_A"
| 28> ! wB97X-D3 def2-TZVP TIGHTSCF CHELPG PMODEL
| 29>
| 30> %scf
| 31> MaxIter 1000
| 32> end
| 33>
| 34> * xyz 0 1
| 35>   C                      -2.638835            -6.614666            -7.420561
| 36>   O                      -2.992376            -6.578243            -8.791841
| 37>   H                      -2.217192            -6.413573            -9.277582
| 38>   H                      -1.667935            -6.968071            -7.283540
| 39>   H                      -2.582873            -5.608869            -6.989358
| 40>   H                      -3.339959            -7.212623            -6.807963
| 41>   C                    : -6.045560            -8.791111            -9.092576
| 42>   O                    : -6.099992            -9.084362            -7.667604
| 43>   H                    : -5.380830            -9.682952            -7.459101
| 44>   H                    : -5.092148            -8.258486            -9.316801
| 45>   H                    : -5.891046            -9.683915            -9.654917
| 46>   H                    : -6.893390            -8.131081            -9.325987
| 47> *
| 48>
| 49> #Run DFT-D3 single point of the particle with dimer basis set
| 50> $new_job
| 51> %base "7-106_DFT_B"
| 52> ! wB97X-D3 def2-TZVP TIGHTSCF CHELPG PMODEL
| 53>
| 54> %scf
| 55> MaxIter 1000
| 56> end
| 57>
| 58> * xyz 0 1
| 59>   C                    : -2.638835            -6.614666            -7.420561
| 60>   O                    : -2.992376            -6.578243            -8.791841
| 61>   H                    : -2.217192            -6.413573            -9.277582
| 62>   H                    : -1.667935            -6.968071            -7.283540
| 63>   H                    : -2.582873            -5.608869            -6.989358
| 64>   H                    : -3.339959            -7.212623            -6.807963
| 65>   C                      -6.045560            -8.791111            -9.092576
| 66>   O                      -6.099992            -9.084362            -7.667604
| 67>   H                      -5.380830            -9.682952            -7.459101
| 68>   H                      -5.092148            -8.258486            -9.316801
| 69>   H                      -5.891046            -9.683915            -9.654917
| 70>   H                      -6.893390            -8.131081            -9.325987
| 71> *
| 72>
| 73>                          ****END OF INPUT****
 Total Charge           Charge          ....    0
 Multiplicity           Mult            ....    1
 Number of Electrons    NEL             ....   36
Dispersion correction           -0.001538126
FINAL SINGLE POINT ENERGY      -231.465791053280
Dispersion correction           -0.000235168
FINAL SINGLE POINT ENERGY      -115.732439651802

CARTESIAN COORDINATES (ANGSTROEM)
---------------------------------
  C     -2.638835   -6.614666   -7.420561
  O     -2.992376   -6.578243   -8.791841
  H     -2.217192   -6.413573   -9.277582
  H     -1.667935   -6.968071   -7.283540
  H     -2.582873   -5.608869   -6.989358
  H     -3.339959   -7.212623   -6.807963
  C     -6.045560   -8.791111   -9.092576
  O     -6.099992   -9.084362   -7.667604
  H     -5.380830   -9.682952   -7.459101
  H     -5.092148   -8.258486   -9.316801
  H     -5.891046   -9.683915   -9.654917
  H     -6.893390   -8.131081   -9.325987

 Multiplicity           Mult            ....    1
 Number of Electrons    NEL             ....   18
 Basis Dimension        Dim             ....  172

ORBITAL ENERGIES
----------------

  NO   OCC          E(Eh)            E(eV)
   0   2.0000     -19.227810      -523.2153
   1   2.0000     -10.317346      -280.7493
   2   2.0000      -1.123500       -30.5720
   3   2.0000      -0.797050       -21.6888
   4   2.0000      -0.610619       -16.6158
   5   2.0000      -0.532263       -14.4836
   6   2.0000      -0.519836       -14.1454
   7   2.0000      -0.443750       -12.0751
   8   2.0000      -0.369151       -10.0451
   9   0.0000       0.082255         2.2383
  10   0.0000       0.119997         3.2653
  11   0.0000       0.146988         3.9997
  12   0.0000       0.175562         4.7773
  13   0.0000       0.192700         5.2436

MULLIKEN ATOMIC CHARGES
-----------------------
   0 C :    0.002245
   1 O :    0.000678
   2 H :   -0.000115
   3 H :   -0.000060
   4 H :   -0.000088
   5 H :   -0.004811
   6 C :   -0.172201
   7 O :   -0.482043
   8 H :    0.310518
   9 H :    0.095384
  10 H :    0.116321
  11 H :    0.134173
Sum of atomic charges:    0.0000000

LOEWDIN ATOMIC CHARGES
----------------------
   0 C :   -0.001389
   1 O :   -0.003312
   2 H :   -0.000303
   3 H :   -0.000016
   4 H :   -0.000016
   5 H :   -0.001978
   6 C :   -0.352817
   7 O :   -0.107608
   8 H :    0.162176
   9 H :    0.100093
  10 H :    0.090981
  11 H :    0.114189

  Mayer bond orders larger than 0.1
B(  6-C ,  7-O ) :   0.9869 B(  6-C ,  9-H ) :   0.9750 B(  6-C , 10-H ) :   0.9758
B(  6-C , 11-H ) :   0.9714 B(  7-O ,  8-H ) :   0.9021

Dispersion correction           -0.000240105
FINAL SINGLE POINT ENERGY      -115.731338583834

DIPOLE MOMENT
-------------
                                X             Y             Z
Electronic contribution:     -0.37505      -0.32743       1.68190
Nuclear contribution   :      0.85963       0.06209      -2.15667
                        -----------------------------------------
Total Dipole Moment    :      0.48458      -0.26534      -0.47477
                        -----------------------------------------
Magnitude (a.u.)       :      0.72844
Magnitude (Debye)      :      1.85155

Rotational constants in cm-1:     4.214829     0.807368     0.763558
Rotational constants in MHz : 126357.398560 24204.287822 22890.901009

                             ****ORCA TERMINATED NORMALLY****
TOTAL RUN TIME: 0 days 0 hours 1 minutes 12 seconds 445 msec
