                         Program Version 4.1.2  - RELEASE  -
|  1> #Run DFT-D3 single point of the dimer
|  2> ! wB97X-D3 def2-TZVP TIGHTSCF CHELPG PMODEL PAL8
|  3>
|  4> %base "18-157_DFT_AB"
|  5>
|  6> %scf
|  7> MaxIter 1000
|  8> end
|  9>
| 10> * xyz 0 1
| 11>   C                      4.100286             2.419518             4.578838
| 12>   O                      4.571700             3.775638             4.629194
| 13>   H                      3.838929             4.233463             4.255375
| 14>   H                      3.081155             2.408276             4.861014
| 15>   H                      4.080533             1.920868             3.605897
| 16>   H                      4.727841             1.750703             5.215968
| 17>   C                      1.636724             3.135065             2.117009
| 18>   O                      2.604797             4.134345             2.105509
| 19>   H                      3.121479             4.067333             1.366747
| 20>   H                      0.710944             3.498242             1.633896
| 21>   H                      2.003399             2.198922             1.581749
| 22>   H                      1.507178             2.963489             3.155185
| 23> *
| 24>
| 25> #Run DFT-D3 single point of the molecule with dimer basis set
| 26> $new_job
| 27> %base "18-157_DFT_A"
| 28> ! wB97X-D3 def2-TZVP TIGHTSCF CHELPG PMODEL
| 29>
| 30> %scf
| 31> MaxIter 1000
| 32> end
| 33>
| 34> * xyz 0 1
| 35>   C                      4.100286             2.419518             4.578838
| 36>   O                      4.571700             3.775638             4.629194
| 37>   H                      3.838929             4.233463             4.255375
| 38>   H                      3.081155             2.408276             4.861014
| 39>   H                      4.080533             1.920868             3.605897
| 40>   H                      4.727841             1.750703             5.215968
| 41>   C                    : 1.636724             3.135065             2.117009
| 42>   O                    : 2.604797             4.134345             2.105509
| 43>   H                    : 3.121479             4.067333             1.366747
| 44>   H                    : 0.710944             3.498242             1.633896
| 45>   H                    : 2.003399             2.198922             1.581749
| 46>   H                    : 1.507178             2.963489             3.155185
| 47> *
| 48>
| 49> #Run DFT-D3 single point of the particle with dimer basis set
| 50> $new_job
| 51> %base "18-157_DFT_B"
| 52> ! wB97X-D3 def2-TZVP TIGHTSCF CHELPG PMODEL
| 53>
| 54> %scf
| 55> MaxIter 1000
| 56> end
| 57>
| 58> * xyz 0 1
| 59>   C                    : 4.100286             2.419518             4.578838
| 60>   O                    : 4.571700             3.775638             4.629194
| 61>   H                    : 3.838929             4.233463             4.255375
| 62>   H                    : 3.081155             2.408276             4.861014
| 63>   H                    : 4.080533             1.920868             3.605897
| 64>   H                    : 4.727841             1.750703             5.215968
| 65>   C                      1.636724             3.135065             2.117009
| 66>   O                      2.604797             4.134345             2.105509
| 67>   H                      3.121479             4.067333             1.366747
| 68>   H                      0.710944             3.498242             1.633896
| 69>   H                      2.003399             2.198922             1.581749
| 70>   H                      1.507178             2.963489             3.155185
| 71> *
| 72>
| 73>                          ****END OF INPUT****
 Total Charge           Charge          ....    0
 Multiplicity           Mult            ....    1
 Number of Electrons    NEL             ....   36
Dispersion correction           -0.002403081
FINAL SINGLE POINT ENERGY      -231.466288940021
Dispersion correction           -0.000238390
FINAL SINGLE POINT ENERGY      -115.730776478889

CARTESIAN COORDINATES (ANGSTROEM)
---------------------------------
  C      4.100286    2.419518    4.578838
  O      4.571700    3.775638    4.629194
  H      3.838929    4.233463    4.255375
  H      3.081155    2.408276    4.861014
  H      4.080533    1.920868    3.605897
  H      4.727841    1.750703    5.215968
  C      1.636724    3.135065    2.117009
  O      2.604797    4.134345    2.105509
  H      3.121479    4.067333    1.366747
  H      0.710944    3.498242    1.633896
  H      2.003399    2.198922    1.581749
  H      1.507178    2.963489    3.155185

 Multiplicity           Mult            ....    1
 Number of Electrons    NEL             ....   18
 Basis Dimension        Dim             ....  172

ORBITAL ENERGIES
----------------

  NO   OCC          E(Eh)            E(eV)
   0   2.0000     -19.221714      -523.0494
   1   2.0000     -10.313019      -280.6315
   2   2.0000      -1.153109       -31.3777
   3   2.0000      -0.799825       -21.7644
   4   2.0000      -0.618451       -16.8289
   5   2.0000      -0.546914       -14.8823
   6   2.0000      -0.529422       -14.4063
   7   2.0000      -0.432973       -11.7818
   8   2.0000      -0.372410       -10.1338
   9   0.0000       0.094065         2.5597
  10   0.0000       0.131294         3.5727
  11   0.0000       0.158088         4.3018
  12   0.0000       0.178076         4.8457
  13   0.0000       0.200076         5.4444

MULLIKEN ATOMIC CHARGES
-----------------------
   0 C :    0.006851
   1 O :   -0.000293
   2 H :   -0.005180
   3 H :   -0.002942
   4 H :   -0.003656
   5 H :    0.000032
   6 C :   -0.160694
   7 O :   -0.460103
   8 H :    0.300866
   9 H :    0.104437
  10 H :    0.097368
  11 H :    0.123314
Sum of atomic charges:    0.0000000

LOEWDIN ATOMIC CHARGES
----------------------
   0 C :   -0.009340
   1 O :   -0.002481
   2 H :   -0.012910
   3 H :   -0.002891
   4 H :   -0.002490
   5 H :   -0.000063
   6 C :   -0.388694
   7 O :   -0.016460
   8 H :    0.129209
   9 H :    0.097766
  10 H :    0.104010
  11 H :    0.104345

  Mayer bond orders larger than 0.1
B(  6-C ,  7-O ) :   0.9872 B(  6-C ,  9-H ) :   0.9719 B(  6-C , 10-H ) :   0.9817
B(  6-C , 11-H ) :   0.9820 B(  7-O ,  8-H ) :   0.9144

Dispersion correction           -0.000225266
FINAL SINGLE POINT ENERGY      -115.730109276859

DIPOLE MOMENT
-------------
                                X             Y             Z
Electronic contribution:      1.13026       1.28507       0.09525
Nuclear contribution   :     -1.15425      -1.71116      -0.57726
                        -----------------------------------------
Total Dipole Moment    :     -0.02399      -0.42608      -0.48201
                        -----------------------------------------
Magnitude (a.u.)       :      0.64378
Magnitude (Debye)      :      1.63637

Rotational constants in cm-1:     4.239353     0.863957     0.835354
Rotational constants in MHz : 127092.600815 25900.775818 25043.283592

                             ****ORCA TERMINATED NORMALLY****
TOTAL RUN TIME: 0 days 0 hours 1 minutes 7 seconds 640 msec
