                         Program Version 4.1.2  - RELEASE  -
|  1> #Run DFT-D3 single point of the dimer
|  2> ! wB97X-D3 def2-TZVP TIGHTSCF CHELPG PMODEL PAL8
|  3>
|  4> %base "2-116_DFT_AB"
|  5>
|  6> %scf
|  7> MaxIter 1000
|  8> end
|  9>
| 10> * xyz 0 1
| 11>   C                      -9.194448            -7.165680            8.606012
| 12>   O                      -9.483807            -8.443194            7.922237
| 13>   H                      -8.780202            -9.018449            8.087057
| 14>   H                      -8.510834            -6.560886            7.980636
| 15>   H                      -10.076085           -6.566288            8.744051
| 16>   H                      -8.775180            -7.380842            9.649389
| 17>   C                      -10.591239           -10.658285           11.106063
| 18>   O                      -10.060469           -9.413131            10.941213
| 19>   H                      -9.590453            -9.346941            10.090912
| 20>   H                      -10.002150           -11.442965           10.579058
| 21>   H                      -10.613828           -10.960083           12.166362
| 22>   H                      -11.654985           -10.744196           10.638417
| 23> *
| 24>
| 25> #Run DFT-D3 single point of the molecule with dimer basis set
| 26> $new_job
| 27> %base "2-116_DFT_A"
| 28> ! wB97X-D3 def2-TZVP TIGHTSCF CHELPG PMODEL
| 29>
| 30> %scf
| 31> MaxIter 1000
| 32> end
| 33>
| 34> * xyz 0 1
| 35>   C                      -9.194448            -7.165680            8.606012
| 36>   O                      -9.483807            -8.443194            7.922237
| 37>   H                      -8.780202            -9.018449            8.087057
| 38>   H                      -8.510834            -6.560886            7.980636
| 39>   H                      -10.076085           -6.566288            8.744051
| 40>   H                      -8.775180            -7.380842            9.649389
| 41>   C                    : -10.591239           -10.658285           11.106063
| 42>   O                    : -10.060469           -9.413131            10.941213
| 43>   H                    : -9.590453            -9.346941            10.090912
| 44>   H                    : -10.002150           -11.442965           10.579058
| 45>   H                    : -10.613828           -10.960083           12.166362
| 46>   H                    : -11.654985           -10.744196           10.638417
| 47> *
| 48>
| 49> #Run DFT-D3 single point of the particle with dimer basis set
| 50> $new_job
| 51> %base "2-116_DFT_B"
| 52> ! wB97X-D3 def2-TZVP TIGHTSCF CHELPG PMODEL
| 53>
| 54> %scf
| 55> MaxIter 1000
| 56> end
| 57>
| 58> * xyz 0 1
| 59>   C                    : -9.194448            -7.165680            8.606012
| 60>   O                    : -9.483807            -8.443194            7.922237
| 61>   H                    : -8.780202            -9.018449            8.087057
| 62>   H                    : -8.510834            -6.560886            7.980636
| 63>   H                    : -10.076085           -6.566288            8.744051
| 64>   H                    : -8.775180            -7.380842            9.649389
| 65>   C                      -10.591239           -10.658285           11.106063
| 66>   O                      -10.060469           -9.413131            10.941213
| 67>   H                      -9.590453            -9.346941            10.090912
| 68>   H                      -10.002150           -11.442965           10.579058
| 69>   H                      -10.613828           -10.960083           12.166362
| 70>   H                      -11.654985           -10.744196           10.638417
| 71> *
| 72>
| 73>                          ****END OF INPUT****
 Total Charge           Charge          ....    0
 Multiplicity           Mult            ....    1
 Number of Electrons    NEL             ....   36
Dispersion correction           -0.001810056
FINAL SINGLE POINT ENERGY      -231.464741547948
Dispersion correction           -0.000270809
FINAL SINGLE POINT ENERGY      -115.731048515278

CARTESIAN COORDINATES (ANGSTROEM)
---------------------------------
  C     -9.194448   -7.165680    8.606012
  O     -9.483807   -8.443194    7.922237
  H     -8.780202   -9.018449    8.087057
  H     -8.510834   -6.560886    7.980636
  H    -10.076085   -6.566288    8.744051
  H     -8.775180   -7.380842    9.649389
  C    -10.591239  -10.658285   11.106063
  O    -10.060469   -9.413131   10.941213
  H     -9.590453   -9.346941   10.090912
  H    -10.002150  -11.442965   10.579058
  H    -10.613828  -10.960083   12.166362
  H    -11.654985  -10.744196   10.638417

 Multiplicity           Mult            ....    1
 Number of Electrons    NEL             ....   18
 Basis Dimension        Dim             ....  172

ORBITAL ENERGIES
----------------

  NO   OCC          E(Eh)            E(eV)
   0   2.0000     -19.234687      -523.4025
   1   2.0000     -10.319703      -280.8134
   2   2.0000      -1.151417       -31.3316
   3   2.0000      -0.787663       -21.4334
   4   2.0000      -0.621738       -16.9184
   5   2.0000      -0.542090       -14.7510
   6   2.0000      -0.530897       -14.4465
   7   2.0000      -0.426649       -11.6097
   8   2.0000      -0.369326       -10.0499
   9   0.0000       0.073704         2.0056
  10   0.0000       0.127163         3.4603
  11   0.0000       0.154571         4.2061
  12   0.0000       0.176686         4.8079
  13   0.0000       0.190522         5.1844

MULLIKEN ATOMIC CHARGES
-----------------------
   0 C :   -0.006482
   1 O :    0.000018
   2 H :   -0.000986
   3 H :   -0.000017
   4 H :    0.000941
   5 H :   -0.001177
   6 C :   -0.160038
   7 O :   -0.453804
   8 H :    0.323259
   9 H :    0.096063
  10 H :    0.117878
  11 H :    0.084346
Sum of atomic charges:   -0.0000000

LOEWDIN ATOMIC CHARGES
----------------------
   0 C :   -0.009355
   1 O :   -0.005603
   2 H :   -0.003378
   3 H :   -0.000116
   4 H :   -0.000385
   5 H :   -0.004242
   6 C :   -0.435272
   7 O :   -0.033774
   8 H :    0.189680
   9 H :    0.095009
  10 H :    0.106770
  11 H :    0.100665

  Mayer bond orders larger than 0.1
B(  6-C ,  7-O ) :   1.0140 B(  6-C ,  9-H ) :   0.9843 B(  6-C , 10-H ) :   0.9704
B(  6-C , 11-H ) :   0.9676 B(  7-O ,  8-H ) :   0.8894

Dispersion correction           -0.000247725
FINAL SINGLE POINT ENERGY      -115.732136431476

DIPOLE MOMENT
-------------
                                X             Y             Z
Electronic contribution:      0.73579       1.79108      -0.00180
Nuclear contribution   :     -0.57788      -2.21002      -0.47059
                        -----------------------------------------
Total Dipole Moment    :      0.15791      -0.41895      -0.47240
                        -----------------------------------------
Magnitude (a.u.)       :      0.65085
Magnitude (Debye)      :      1.65434

Rotational constants in cm-1:     4.152634     0.862882     0.835852
Rotational constants in MHz : 124492.836890 25868.537067 25058.204290

                             ****ORCA TERMINATED NORMALLY****
TOTAL RUN TIME: 0 days 0 hours 6 minutes 0 seconds 315 msec
