                         Program Version 4.1.2  - RELEASE  -
|  1> #Run DFT-D3 single point of the dimer
|  2> ! wB97X-D3 def2-TZVP TIGHTSCF CHELPG PMODEL PAL8
|  3>
|  4> %base "15-68_DFT_AB"
|  5>
|  6> %scf
|  7> MaxIter 1000
|  8> end
|  9>
| 10> * xyz 0 1
| 11>   C                      0.395747             0.499302             3.166637
| 12>   O                      -0.741435            1.109411             2.820772
| 13>   H                      -1.443136            0.800324             3.428644
| 14>   H                      0.572906             0.753819             4.234277
| 15>   H                      0.320529             -0.597235            3.056164
| 16>   H                      1.203881             0.845296             2.442496
| 17>   C                      -0.112356            0.089913             7.947198
| 18>   O                      -0.638127            0.895916             6.936632
| 19>   H                      -1.086471            1.642819             7.343188
| 20>   H                      -0.795974            -0.516675            8.451876
| 21>   H                      0.816465             -0.433607            7.626531
| 22>   H                      0.204681             0.738533             8.713782
| 23> *
| 24>
| 25> #Run DFT-D3 single point of the molecule with dimer basis set
| 26> $new_job
| 27> %base "15-68_DFT_A"
| 28> ! wB97X-D3 def2-TZVP TIGHTSCF CHELPG PMODEL
| 29>
| 30> %scf
| 31> MaxIter 1000
| 32> end
| 33>
| 34> * xyz 0 1
| 35>   C                      0.395747             0.499302             3.166637
| 36>   O                      -0.741435            1.109411             2.820772
| 37>   H                      -1.443136            0.800324             3.428644
| 38>   H                      0.572906             0.753819             4.234277
| 39>   H                      0.320529             -0.597235            3.056164
| 40>   H                      1.203881             0.845296             2.442496
| 41>   C                    : -0.112356            0.089913             7.947198
| 42>   O                    : -0.638127            0.895916             6.936632
| 43>   H                    : -1.086471            1.642819             7.343188
| 44>   H                    : -0.795974            -0.516675            8.451876
| 45>   H                    : 0.816465             -0.433607            7.626531
| 46>   H                    : 0.204681             0.738533             8.713782
| 47> *
| 48>
| 49> #Run DFT-D3 single point of the particle with dimer basis set
| 50> $new_job
| 51> %base "15-68_DFT_B"
| 52> ! wB97X-D3 def2-TZVP TIGHTSCF CHELPG PMODEL
| 53>
| 54> %scf
| 55> MaxIter 1000
| 56> end
| 57>
| 58> * xyz 0 1
| 59>   C                    : 0.395747             0.499302             3.166637
| 60>   O                    : -0.741435            1.109411             2.820772
| 61>   H                    : -1.443136            0.800324             3.428644
| 62>   H                    : 0.572906             0.753819             4.234277
| 63>   H                    : 0.320529             -0.597235            3.056164
| 64>   H                    : 1.203881             0.845296             2.442496
| 65>   C                      -0.112356            0.089913             7.947198
| 66>   O                      -0.638127            0.895916             6.936632
| 67>   H                      -1.086471            1.642819             7.343188
| 68>   H                      -0.795974            -0.516675            8.451876
| 69>   H                      0.816465             -0.433607            7.626531
| 70>   H                      0.204681             0.738533             8.713782
| 71> *
| 72>
| 73>                          ****END OF INPUT****
 Total Charge           Charge          ....    0
 Multiplicity           Mult            ....    1
 Number of Electrons    NEL             ....   36
Dispersion correction           -0.001162280
FINAL SINGLE POINT ENERGY      -231.459580677065
Dispersion correction           -0.000199292
FINAL SINGLE POINT ENERGY      -115.728163909781

CARTESIAN COORDINATES (ANGSTROEM)
---------------------------------
  C      0.395747    0.499302    3.166637
  O     -0.741435    1.109411    2.820772
  H     -1.443136    0.800324    3.428644
  H      0.572906    0.753819    4.234277
  H      0.320529   -0.597235    3.056164
  H      1.203881    0.845296    2.442496
  C     -0.112356    0.089913    7.947198
  O     -0.638127    0.895916    6.936632
  H     -1.086471    1.642819    7.343188
  H     -0.795974   -0.516675    8.451876
  H      0.816465   -0.433607    7.626531
  H      0.204681    0.738533    8.713782

 Multiplicity           Mult            ....    1
 Number of Electrons    NEL             ....   18
 Basis Dimension        Dim             ....  172

ORBITAL ENERGIES
----------------

  NO   OCC          E(Eh)            E(eV)
   0   2.0000     -19.229026      -523.2484
   1   2.0000     -10.303620      -280.3758
   2   2.0000      -1.141481       -31.0613
   3   2.0000      -0.801141       -21.8002
   4   2.0000      -0.620959       -16.8971
   5   2.0000      -0.548858       -14.9352
   6   2.0000      -0.528857       -14.3909
   7   2.0000      -0.429744       -11.6939
   8   2.0000      -0.373426       -10.1615
   9   0.0000       0.098812         2.6888
  10   0.0000       0.119353         3.2478
  11   0.0000       0.153917         4.1883
  12   0.0000       0.183122         4.9830
  13   0.0000       0.190073         5.1721

MULLIKEN ATOMIC CHARGES
-----------------------
   0 C :    0.002636
   1 O :    0.000014
   2 H :   -0.001416
   3 H :   -0.006481
   4 H :   -0.000121
   5 H :   -0.000079
   6 C :   -0.158747
   7 O :   -0.471369
   8 H :    0.315212
   9 H :    0.101580
  10 H :    0.118121
  11 H :    0.100651
Sum of atomic charges:    0.0000000

LOEWDIN ATOMIC CHARGES
----------------------
   0 C :   -0.001792
   1 O :   -0.000059
   2 H :   -0.000942
   3 H :   -0.004466
   4 H :   -0.000024
   5 H :   -0.000012
   6 C :   -0.391739
   7 O :   -0.060436
   8 H :    0.172019
   9 H :    0.083671
  10 H :    0.114135
  11 H :    0.089644

  Mayer bond orders larger than 0.1
B(  6-C ,  7-O ) :   0.9984 B(  6-C ,  9-H ) :   0.9678 B(  6-C , 10-H ) :   0.9739
B(  6-C , 11-H ) :   0.9939 B(  7-O ,  8-H ) :   0.8968

Dispersion correction           -0.000220136
FINAL SINGLE POINT ENERGY      -115.728662527403

DIPOLE MOMENT
-------------
                                X             Y             Z
Electronic contribution:     -0.71269       0.81948      -1.46372
Nuclear contribution   :      0.64369      -0.62611       2.17017
                        -----------------------------------------
Total Dipole Moment    :     -0.06900       0.19337       0.70645
                        -----------------------------------------
Magnitude (a.u.)       :      0.73568
Magnitude (Debye)      :      1.86995

Rotational constants in cm-1:     4.505090     0.854664     0.817808
Rotational constants in MHz : 135059.193472 25622.193463 24517.265561

                             ****ORCA TERMINATED NORMALLY****
TOTAL RUN TIME: 0 days 0 hours 0 minutes 58 seconds 332 msec
