                         Program Version 4.1.2  - RELEASE  -
|  1> #Run DFT-D3 single point of the dimer
|  2> ! wB97X-D3 def2-TZVP TIGHTSCF CHELPG PMODEL PAL8
|  3>
|  4> %base "8-58_DFT_AB"
|  5>
|  6> %scf
|  7> MaxIter 1000
|  8> end
|  9>
| 10> * xyz 0 1
| 11>   C                      -1.670944            -9.559233            3.799074
| 12>   O                      -0.481268            -9.603435            3.036567
| 13>   H                      -0.736108            -9.305396            2.153526
| 14>   H                      -2.402088            -10.358033           3.567388
| 15>   H                      -1.449708            -9.797974            4.816966
| 16>   H                      -2.153882            -8.556090            3.774826
| 17>   C                      -2.293713            -8.881930            0.250787
| 18>   O                      -1.068833            -8.238405            0.185196
| 19>   H                      -0.646330            -8.471846            -0.718595
| 20>   H                      -2.184696            -9.919336            0.150728
| 21>   H                      -2.724398            -8.545962            1.216586
| 22>   H                      -2.990550            -8.492704            -0.545659
| 23> *
| 24>
| 25> #Run DFT-D3 single point of the molecule with dimer basis set
| 26> $new_job
| 27> %base "8-58_DFT_A"
| 28> ! wB97X-D3 def2-TZVP TIGHTSCF CHELPG PMODEL
| 29>
| 30> %scf
| 31> MaxIter 1000
| 32> end
| 33>
| 34> * xyz 0 1
| 35>   C                      -1.670944            -9.559233            3.799074
| 36>   O                      -0.481268            -9.603435            3.036567
| 37>   H                      -0.736108            -9.305396            2.153526
| 38>   H                      -2.402088            -10.358033           3.567388
| 39>   H                      -1.449708            -9.797974            4.816966
| 40>   H                      -2.153882            -8.556090            3.774826
| 41>   C                    : -2.293713            -8.881930            0.250787
| 42>   O                    : -1.068833            -8.238405            0.185196
| 43>   H                    : -0.646330            -8.471846            -0.718595
| 44>   H                    : -2.184696            -9.919336            0.150728
| 45>   H                    : -2.724398            -8.545962            1.216586
| 46>   H                    : -2.990550            -8.492704            -0.545659
| 47> *
| 48>
| 49> #Run DFT-D3 single point of the particle with dimer basis set
| 50> $new_job
| 51> %base "8-58_DFT_B"
| 52> ! wB97X-D3 def2-TZVP TIGHTSCF CHELPG PMODEL
| 53>
| 54> %scf
| 55> MaxIter 1000
| 56> end
| 57>
| 58> * xyz 0 1
| 59>   C                    : -1.670944            -9.559233            3.799074
| 60>   O                    : -0.481268            -9.603435            3.036567
| 61>   H                    : -0.736108            -9.305396            2.153526
| 62>   H                    : -2.402088            -10.358033           3.567388
| 63>   H                    : -1.449708            -9.797974            4.816966
| 64>   H                    : -2.153882            -8.556090            3.774826
| 65>   C                      -2.293713            -8.881930            0.250787
| 66>   O                      -1.068833            -8.238405            0.185196
| 67>   H                      -0.646330            -8.471846            -0.718595
| 68>   H                      -2.184696            -9.919336            0.150728
| 69>   H                      -2.724398            -8.545962            1.216586
| 70>   H                      -2.990550            -8.492704            -0.545659
| 71> *
| 72>
| 73>                          ****END OF INPUT****
 Total Charge           Charge          ....    0
 Multiplicity           Mult            ....    1
 Number of Electrons    NEL             ....   36
Dispersion correction           -0.002088034
FINAL SINGLE POINT ENERGY      -231.469846036416
Dispersion correction           -0.000248263
FINAL SINGLE POINT ENERGY      -115.735124859102

CARTESIAN COORDINATES (ANGSTROEM)
---------------------------------
  C     -1.670944   -9.559233    3.799074
  O     -0.481268   -9.603435    3.036567
  H     -0.736108   -9.305396    2.153526
  H     -2.402088  -10.358033    3.567388
  H     -1.449708   -9.797974    4.816966
  H     -2.153882   -8.556090    3.774826
  C     -2.293713   -8.881930    0.250787
  O     -1.068833   -8.238405    0.185196
  H     -0.646330   -8.471846   -0.718595
  H     -2.184696   -9.919336    0.150728
  H     -2.724398   -8.545962    1.216586
  H     -2.990550   -8.492704   -0.545659

 Multiplicity           Mult            ....    1
 Number of Electrons    NEL             ....   18
 Basis Dimension        Dim             ....  172

ORBITAL ENERGIES
----------------

  NO   OCC          E(Eh)            E(eV)
   0   2.0000     -19.233678      -523.3750
   1   2.0000     -10.309512      -280.5361
   2   2.0000      -1.134883       -30.8817
   3   2.0000      -0.786302       -21.3964
   4   2.0000      -0.611183       -16.6311
   5   2.0000      -0.548890       -14.9361
   6   2.0000      -0.522034       -14.2053
   7   2.0000      -0.430267       -11.7082
   8   2.0000      -0.369564       -10.0564
   9   0.0000       0.092425         2.5150
  10   0.0000       0.112499         3.0613
  11   0.0000       0.159754         4.3471
  12   0.0000       0.178880         4.8676
  13   0.0000       0.190815         5.1923

MULLIKEN ATOMIC CHARGES
-----------------------
   0 C :   -0.000712
   1 O :   -0.002303
   2 H :    0.002009
   3 H :   -0.000162
   4 H :    0.000089
   5 H :   -0.000057
   6 C :   -0.162422
   7 O :   -0.474936
   8 H :    0.313414
   9 H :    0.109508
  10 H :    0.116747
  11 H :    0.098825
Sum of atomic charges:    0.0000000

LOEWDIN ATOMIC CHARGES
----------------------
   0 C :   -0.006424
   1 O :   -0.001936
   2 H :   -0.019800
   3 H :   -0.000671
   4 H :   -0.000035
   5 H :   -0.001509
   6 C :   -0.405922
   7 O :   -0.070663
   8 H :    0.203863
   9 H :    0.084900
  10 H :    0.119146
  11 H :    0.099052

  Mayer bond orders larger than 0.1
B(  6-C ,  7-O ) :   0.9877 B(  6-C ,  9-H ) :   0.9786 B(  6-C , 10-H ) :   0.9772
B(  6-C , 11-H ) :   0.9699 B(  7-O ,  8-H ) :   0.8896

Dispersion correction           -0.000220715
FINAL SINGLE POINT ENERGY      -115.729983167036

DIPOLE MOMENT
-------------
                                X             Y             Z
Electronic contribution:      1.57419       0.73735       0.09267
Nuclear contribution   :     -1.77062      -1.12084      -0.61535
                        -----------------------------------------
Total Dipole Moment    :     -0.19643      -0.38348      -0.52267
                        -----------------------------------------
Magnitude (a.u.)       :      0.67737
Magnitude (Debye)      :      1.72174

Rotational constants in cm-1:     4.085983     0.869357     0.829865
Rotational constants in MHz : 122494.684336 26062.677609 24878.732183

                             ****ORCA TERMINATED NORMALLY****
TOTAL RUN TIME: 0 days 0 hours 0 minutes 47 seconds 826 msec
