                         Program Version 4.1.2  - RELEASE  -
|  1> #Run DFT-D3 single point of the dimer
|  2> ! wB97X-D3 def2-TZVP TIGHTSCF CHELPG PMODEL PAL8
|  3>
|  4> %base "4-70_DFT_AB"
|  5>
|  6> %scf
|  7> MaxIter 1000
|  8> end
|  9>
| 10> * xyz 0 1
| 11>   C                      4.024355             -6.801977            -8.916837
| 12>   O                      2.663368             -6.801153            -9.057764
| 13>   H                      2.302271             -5.971964            -8.723730
| 14>   H                      4.469199             -5.890253            -9.387422
| 15>   H                      4.195968             -6.701892            -7.838637
| 16>   H                      4.536072             -7.759296            -9.102608
| 17>   C                      0.569891             -5.382715            -7.010546
| 18>   O                      0.773501             -4.376366            -7.990577
| 19>   H                      0.921267             -3.482390            -7.603652
| 20>   H                      -0.365843            -5.204678            -6.471750
| 21>   H                      0.436550             -6.385259            -7.416811
| 22>   H                      1.339440             -5.489965            -6.216515
| 23> *
| 24>
| 25> #Run DFT-D3 single point of the molecule with dimer basis set
| 26> $new_job
| 27> %base "4-70_DFT_A"
| 28> ! wB97X-D3 def2-TZVP TIGHTSCF CHELPG PMODEL
| 29>
| 30> %scf
| 31> MaxIter 1000
| 32> end
| 33>
| 34> * xyz 0 1
| 35>   C                      4.024355             -6.801977            -8.916837
| 36>   O                      2.663368             -6.801153            -9.057764
| 37>   H                      2.302271             -5.971964            -8.723730
| 38>   H                      4.469199             -5.890253            -9.387422
| 39>   H                      4.195968             -6.701892            -7.838637
| 40>   H                      4.536072             -7.759296            -9.102608
| 41>   C                    : 0.569891             -5.382715            -7.010546
| 42>   O                    : 0.773501             -4.376366            -7.990577
| 43>   H                    : 0.921267             -3.482390            -7.603652
| 44>   H                    : -0.365843            -5.204678            -6.471750
| 45>   H                    : 0.436550             -6.385259            -7.416811
| 46>   H                    : 1.339440             -5.489965            -6.216515
| 47> *
| 48>
| 49> #Run DFT-D3 single point of the particle with dimer basis set
| 50> $new_job
| 51> %base "4-70_DFT_B"
| 52> ! wB97X-D3 def2-TZVP TIGHTSCF CHELPG PMODEL
| 53>
| 54> %scf
| 55> MaxIter 1000
| 56> end
| 57>
| 58> * xyz 0 1
| 59>   C                    : 4.024355             -6.801977            -8.916837
| 60>   O                    : 2.663368             -6.801153            -9.057764
| 61>   H                    : 2.302271             -5.971964            -8.723730
| 62>   H                    : 4.469199             -5.890253            -9.387422
| 63>   H                    : 4.195968             -6.701892            -7.838637
| 64>   H                    : 4.536072             -7.759296            -9.102608
| 65>   C                      0.569891             -5.382715            -7.010546
| 66>   O                      0.773501             -4.376366            -7.990577
| 67>   H                      0.921267             -3.482390            -7.603652
| 68>   H                      -0.365843            -5.204678            -6.471750
| 69>   H                      0.436550             -6.385259            -7.416811
| 70>   H                      1.339440             -5.489965            -6.216515
| 71> *
| 72>
| 73>                          ****END OF INPUT****
 Total Charge           Charge          ....    0
 Multiplicity           Mult            ....    1
 Number of Electrons    NEL             ....   36
Dispersion correction           -0.001832779
FINAL SINGLE POINT ENERGY      -231.466129348894
Dispersion correction           -0.000212364
FINAL SINGLE POINT ENERGY      -115.728014166275

CARTESIAN COORDINATES (ANGSTROEM)
---------------------------------
  C      4.024355   -6.801977   -8.916837
  O      2.663368   -6.801153   -9.057764
  H      2.302271   -5.971964   -8.723730
  H      4.469199   -5.890253   -9.387422
  H      4.195968   -6.701892   -7.838637
  H      4.536072   -7.759296   -9.102608
  C      0.569891   -5.382715   -7.010546
  O      0.773501   -4.376366   -7.990577
  H      0.921267   -3.482390   -7.603652
  H     -0.365843   -5.204678   -6.471750
  H      0.436550   -6.385259   -7.416811
  H      1.339440   -5.489965   -6.216515

 Multiplicity           Mult            ....    1
 Number of Electrons    NEL             ....   18
 Basis Dimension        Dim             ....  172

ORBITAL ENERGIES
----------------

  NO   OCC          E(Eh)            E(eV)
   0   2.0000     -19.234533      -523.3982
   1   2.0000     -10.315443      -280.6975
   2   2.0000      -1.128038       -30.6955
   3   2.0000      -0.797372       -21.6976
   4   2.0000      -0.610970       -16.6253
   5   2.0000      -0.533597       -14.5199
   6   2.0000      -0.528962       -14.3938
   7   2.0000      -0.428036       -11.6475
   8   2.0000      -0.373017       -10.1503
   9   0.0000       0.092791         2.5250
  10   0.0000       0.120046         3.2666
  11   0.0000       0.146085         3.9752
  12   0.0000       0.181812         4.9473
  13   0.0000       0.197515         5.3746

MULLIKEN ATOMIC CHARGES
-----------------------
   0 C :   -0.002399
   1 O :   -0.001075
   2 H :    0.004043
   3 H :    0.000023
   4 H :    0.000247
   5 H :   -0.000058
   6 C :   -0.172587
   7 O :   -0.487623
   8 H :    0.321972
   9 H :    0.109466
  10 H :    0.125525
  11 H :    0.102464
Sum of atomic charges:    0.0000000

LOEWDIN ATOMIC CHARGES
----------------------
   0 C :   -0.000719
   1 O :   -0.002750
   2 H :   -0.017448
   3 H :   -0.000051
   4 H :   -0.000135
   5 H :   -0.000015
   6 C :   -0.386223
   7 O :   -0.080500
   8 H :    0.183987
   9 H :    0.095651
  10 H :    0.111040
  11 H :    0.097163

  Mayer bond orders larger than 0.1
B(  6-C ,  7-O ) :   0.9900 B(  6-C ,  9-H ) :   0.9792 B(  6-C , 10-H ) :   0.9741
B(  6-C , 11-H ) :   0.9709 B(  7-O ,  8-H ) :   0.8865

Dispersion correction           -0.000277115
FINAL SINGLE POINT ENERGY      -115.732746036363

DIPOLE MOMENT
-------------
                                X             Y             Z
Electronic contribution:      0.32882       1.24077      -1.45893
Nuclear contribution   :     -0.33751      -1.08433       2.10242
                        -----------------------------------------
Total Dipole Moment    :     -0.00869       0.15644       0.64349
                        -----------------------------------------
Magnitude (a.u.)       :      0.66229
Magnitude (Debye)      :      1.68340

Rotational constants in cm-1:     4.462336     0.804365     0.777402
Rotational constants in MHz : 133777.457585 24114.268198 23305.938017

                             ****ORCA TERMINATED NORMALLY****
TOTAL RUN TIME: 0 days 0 hours 1 minutes 34 seconds 905 msec
