                         Program Version 4.1.2  - RELEASE  -
|  1> #Run DFT-D3 single point of the dimer
|  2> ! wB97X-D3 def2-TZVP TIGHTSCF CHELPG PMODEL PAL8
|  3>
|  4> %base "19-25_DFT_AB"
|  5>
|  6> %scf
|  7> MaxIter 1000
|  8> end
|  9>
| 10> * xyz 0 1
| 11>   C                      -9.778594            2.584819             -7.098236
| 12>   O                      -10.503116           3.623638             -6.480022
| 13>   H                      -10.501269           4.334988             -7.158476
| 14>   H                      -9.911806            2.435577             -8.131833
| 15>   H                      -8.678102            2.671316             -7.052734
| 16>   H                      -9.924804            1.624095             -6.681747
| 17>   C                      -7.106117            -0.711953            -4.295349
| 18>   O                      -7.987258            -0.969623            -5.345620
| 19>   H                      -8.785335            -0.606331            -5.012032
| 20>   H                      -6.036073            -1.036936            -4.411769
| 21>   H                      -7.037151            0.351110             -4.185939
| 22>   H                      -7.469075            -1.155235            -3.374603
| 23> *
| 24>
| 25> #Run DFT-D3 single point of the molecule with dimer basis set
| 26> $new_job
| 27> %base "19-25_DFT_A"
| 28> ! wB97X-D3 def2-TZVP TIGHTSCF CHELPG PMODEL
| 29>
| 30> %scf
| 31> MaxIter 1000
| 32> end
| 33>
| 34> * xyz 0 1
| 35>   C                      -9.778594            2.584819             -7.098236
| 36>   O                      -10.503116           3.623638             -6.480022
| 37>   H                      -10.501269           4.334988             -7.158476
| 38>   H                      -9.911806            2.435577             -8.131833
| 39>   H                      -8.678102            2.671316             -7.052734
| 40>   H                      -9.924804            1.624095             -6.681747
| 41>   C                    : -7.106117            -0.711953            -4.295349
| 42>   O                    : -7.987258            -0.969623            -5.345620
| 43>   H                    : -8.785335            -0.606331            -5.012032
| 44>   H                    : -6.036073            -1.036936            -4.411769
| 45>   H                    : -7.037151            0.351110             -4.185939
| 46>   H                    : -7.469075            -1.155235            -3.374603
| 47> *
| 48>
| 49> #Run DFT-D3 single point of the particle with dimer basis set
| 50> $new_job
| 51> %base "19-25_DFT_B"
| 52> ! wB97X-D3 def2-TZVP TIGHTSCF CHELPG PMODEL
| 53>
| 54> %scf
| 55> MaxIter 1000
| 56> end
| 57>
| 58> * xyz 0 1
| 59>   C                    : -9.778594            2.584819             -7.098236
| 60>   O                    : -10.503116           3.623638             -6.480022
| 61>   H                    : -10.501269           4.334988             -7.158476
| 62>   H                    : -9.911806            2.435577             -8.131833
| 63>   H                    : -8.678102            2.671316             -7.052734
| 64>   H                    : -9.924804            1.624095             -6.681747
| 65>   C                      -7.106117            -0.711953            -4.295349
| 66>   O                      -7.987258            -0.969623            -5.345620
| 67>   H                      -8.785335            -0.606331            -5.012032
| 68>   H                      -6.036073            -1.036936            -4.411769
| 69>   H                      -7.037151            0.351110             -4.185939
| 70>   H                      -7.469075            -1.155235            -3.374603
| 71> *
| 72>
| 73>                          ****END OF INPUT****
 Total Charge           Charge          ....    0
 Multiplicity           Mult            ....    1
 Number of Electrons    NEL             ....   36
Dispersion correction           -0.000997830
FINAL SINGLE POINT ENERGY      -231.459961739259
Dispersion correction           -0.000251189
FINAL SINGLE POINT ENERGY      -115.728488133980

CARTESIAN COORDINATES (ANGSTROEM)
---------------------------------
  C     -9.778594    2.584819   -7.098236
  O    -10.503116    3.623638   -6.480022
  H    -10.501269    4.334988   -7.158476
  H     -9.911806    2.435577   -8.131833
  H     -8.678102    2.671316   -7.052734
  H     -9.924804    1.624095   -6.681747
  C     -7.106117   -0.711953   -4.295349
  O     -7.987258   -0.969623   -5.345620
  H     -8.785335   -0.606331   -5.012032
  H     -6.036073   -1.036936   -4.411769
  H     -7.037151    0.351110   -4.185939
  H     -7.469075   -1.155235   -3.374603

 Multiplicity           Mult            ....    1
 Number of Electrons    NEL             ....   18
 Basis Dimension        Dim             ....  172

ORBITAL ENERGIES
----------------

  NO   OCC          E(Eh)            E(eV)
   0   2.0000     -19.230366      -523.2849
   1   2.0000     -10.311803      -280.5984
   2   2.0000      -1.152418       -31.3589
   3   2.0000      -0.794060       -21.6075
   4   2.0000      -0.614919       -16.7328
   5   2.0000      -0.552451       -15.0329
   6   2.0000      -0.532771       -14.4974
   7   2.0000      -0.433631       -11.7997
   8   2.0000      -0.374214       -10.1829
   9   0.0000       0.082541         2.2461
  10   0.0000       0.120119         3.2686
  11   0.0000       0.151688         4.1276
  12   0.0000       0.176265         4.7964
  13   0.0000       0.192596         5.2408

MULLIKEN ATOMIC CHARGES
-----------------------
   0 C :    0.002189
   1 O :   -0.000040
   2 H :   -0.000006
   3 H :   -0.000224
   4 H :   -0.000562
   5 H :   -0.004325
   6 C :   -0.176737
   7 O :   -0.457728
   8 H :    0.315950
   9 H :    0.116218
  10 H :    0.104809
  11 H :    0.100456
Sum of atomic charges:    0.0000000

LOEWDIN ATOMIC CHARGES
----------------------
   0 C :   -0.000865
   1 O :   -0.000014
   2 H :   -0.000005
   3 H :   -0.000007
   4 H :   -0.000186
   5 H :   -0.001500
   6 C :   -0.403793
   7 O :   -0.052048
   8 H :    0.162062
   9 H :    0.114266
  10 H :    0.090218
  11 H :    0.091872

  Mayer bond orders larger than 0.1
B(  6-C ,  7-O ) :   0.9943 B(  6-C ,  9-H ) :   0.9699 B(  6-C , 10-H ) :   0.9833
B(  6-C , 11-H ) :   0.9838 B(  7-O ,  8-H ) :   0.9017

Dispersion correction           -0.000209132
FINAL SINGLE POINT ENERGY      -115.730380391709

DIPOLE MOMENT
-------------
                                X             Y             Z
Electronic contribution:     -1.05377      -0.47805      -1.50478
Nuclear contribution   :      0.90425       0.80911       2.12171
                        -----------------------------------------
Total Dipole Moment    :     -0.14952       0.33106       0.61694
                        -----------------------------------------
Magnitude (a.u.)       :      0.71594
Magnitude (Debye)      :      1.81977

Rotational constants in cm-1:     4.380001     0.852875     0.822637
Rotational constants in MHz : 131309.135026 25568.539793 24662.047214

                             ****ORCA TERMINATED NORMALLY****
TOTAL RUN TIME: 0 days 0 hours 0 minutes 52 seconds 424 msec
