                         Program Version 4.1.2  - RELEASE  -
|  1> #Run DFT-D3 single point of the dimer
|  2> ! wB97X-D3 def2-TZVP TIGHTSCF CHELPG PMODEL PAL8
|  3>
|  4> %base "1-75_DFT_AB"
|  5>
|  6> %scf
|  7> MaxIter 1000
|  8> end
|  9>
| 10> * xyz 0 1
| 11>   C                      5.651281             -6.607152            -7.131808
| 12>   O                      4.421029             -6.172387            -6.635053
| 13>   H                      3.846128             -6.941923            -6.443546
| 14>   H                      6.331579             -5.736460            -7.229165
| 15>   H                      6.041744             -7.382705            -6.519006
| 16>   H                      5.543523             -7.079936            -8.062609
| 17>   C                      -0.352856            -5.334029            -9.666585
| 18>   O                      -0.317757            -4.982674            -8.320663
| 19>   H                      0.344040             -4.366143            -8.272061
| 20>   H                      0.635748             -5.542697            -10.066243
| 21>   H                      -0.869216            -6.260328            -9.669507
| 22>   H                      -0.853372            -4.654679            -10.321989
| 23> *
| 24>
| 25> #Run DFT-D3 single point of the molecule with dimer basis set
| 26> $new_job
| 27> %base "1-75_DFT_A"
| 28> ! wB97X-D3 def2-TZVP TIGHTSCF CHELPG PMODEL
| 29>
| 30> %scf
| 31> MaxIter 1000
| 32> end
| 33>
| 34> * xyz 0 1
| 35>   C                      5.651281             -6.607152            -7.131808
| 36>   O                      4.421029             -6.172387            -6.635053
| 37>   H                      3.846128             -6.941923            -6.443546
| 38>   H                      6.331579             -5.736460            -7.229165
| 39>   H                      6.041744             -7.382705            -6.519006
| 40>   H                      5.543523             -7.079936            -8.062609
| 41>   C                    : -0.352856            -5.334029            -9.666585
| 42>   O                    : -0.317757            -4.982674            -8.320663
| 43>   H                    : 0.344040             -4.366143            -8.272061
| 44>   H                    : 0.635748             -5.542697            -10.066243
| 45>   H                    : -0.869216            -6.260328            -9.669507
| 46>   H                    : -0.853372            -4.654679            -10.321989
| 47> *
| 48>
| 49> #Run DFT-D3 single point of the particle with dimer basis set
| 50> $new_job
| 51> %base "1-75_DFT_B"
| 52> ! wB97X-D3 def2-TZVP TIGHTSCF CHELPG PMODEL
| 53>
| 54> %scf
| 55> MaxIter 1000
| 56> end
| 57>
| 58> * xyz 0 1
| 59>   C                    : 5.651281             -6.607152            -7.131808
| 60>   O                    : 4.421029             -6.172387            -6.635053
| 61>   H                    : 3.846128             -6.941923            -6.443546
| 62>   H                    : 6.331579             -5.736460            -7.229165
| 63>   H                    : 6.041744             -7.382705            -6.519006
| 64>   H                    : 5.543523             -7.079936            -8.062609
| 65>   C                      -0.352856            -5.334029            -9.666585
| 66>   O                      -0.317757            -4.982674            -8.320663
| 67>   H                      0.344040             -4.366143            -8.272061
| 68>   H                      0.635748             -5.542697            -10.066243
| 69>   H                      -0.869216            -6.260328            -9.669507
| 70>   H                      -0.853372            -4.654679            -10.321989
| 71> *
| 72>
| 73>                          ****END OF INPUT****
 Total Charge           Charge          ....    0
 Multiplicity           Mult            ....    1
 Number of Electrons    NEL             ....   36
Dispersion correction           -0.000552870
FINAL SINGLE POINT ENERGY      -231.463828417906
Dispersion correction           -0.000217693
FINAL SINGLE POINT ENERGY      -115.732472301552

CARTESIAN COORDINATES (ANGSTROEM)
---------------------------------
  C      5.651281   -6.607152   -7.131808
  O      4.421029   -6.172387   -6.635053
  H      3.846128   -6.941923   -6.443546
  H      6.331579   -5.736460   -7.229165
  H      6.041744   -7.382705   -6.519006
  H      5.543523   -7.079936   -8.062609
  C     -0.352856   -5.334029   -9.666585
  O     -0.317757   -4.982674   -8.320663
  H      0.344040   -4.366143   -8.272061
  H      0.635748   -5.542697  -10.066243
  H     -0.869216   -6.260328   -9.669507
  H     -0.853372   -4.654679  -10.321989

 Multiplicity           Mult            ....    1
 Number of Electrons    NEL             ....   18
 Basis Dimension        Dim             ....  172

ORBITAL ENERGIES
----------------

  NO   OCC          E(Eh)            E(eV)
   0   2.0000     -19.225873      -523.1626
   1   2.0000     -10.303069      -280.3608
   2   2.0000      -1.157630       -31.5007
   3   2.0000      -0.803379       -21.8610
   4   2.0000      -0.623527       -16.9670
   5   2.0000      -0.549833       -14.9617
   6   2.0000      -0.528197       -14.3730
   7   2.0000      -0.440227       -11.9792
   8   2.0000      -0.377520       -10.2728
   9   0.0000       0.085659         2.3309
  10   0.0000       0.119939         3.2637
  11   0.0000       0.160542         4.3686
  12   0.0000       0.168427         4.5831
  13   0.0000       0.193650         5.2695

MULLIKEN ATOMIC CHARGES
-----------------------
   0 C :    0.000006
   1 O :    0.000002
   2 H :   -0.000068
   3 H :    0.000000
   4 H :   -0.000000
   5 H :   -0.000002
   6 C :   -0.155469
   7 O :   -0.452901
   8 H :    0.299806
   9 H :    0.094998
  10 H :    0.116457
  11 H :    0.097173
Sum of atomic charges:   -0.0000000

LOEWDIN ATOMIC CHARGES
----------------------
   0 C :   -0.000001
   1 O :   -0.000005
   2 H :   -0.000039
   3 H :   -0.000000
   4 H :   -0.000000
   5 H :   -0.000000
   6 C :   -0.391778
   7 O :   -0.029304
   8 H :    0.134258
   9 H :    0.093893
  10 H :    0.104672
  11 H :    0.088305

  Mayer bond orders larger than 0.1
B(  6-C ,  7-O ) :   1.0046 B(  6-C ,  9-H ) :   0.9833 B(  6-C , 10-H ) :   0.9813
B(  6-C , 11-H ) :   0.9690 B(  7-O ,  8-H ) :   0.9187

Dispersion correction           -0.000211951
FINAL SINGLE POINT ENERGY      -115.730639424401

DIPOLE MOMENT
-------------
                                X             Y             Z
Electronic contribution:     -0.06603       0.48122       1.75826
Nuclear contribution   :      0.48253      -0.23587      -2.23614
                        -----------------------------------------
Total Dipole Moment    :      0.41651       0.24534      -0.47788
                        -----------------------------------------
Magnitude (a.u.)       :      0.67974
Magnitude (Debye)      :      1.72775

Rotational constants in cm-1:     4.514429     0.864149     0.836980
Rotational constants in MHz : 135339.161881 25906.545899 25092.029388

                             ****ORCA TERMINATED NORMALLY****
TOTAL RUN TIME: 0 days 0 hours 6 minutes 15 seconds 350 msec
