                         Program Version 4.1.2  - RELEASE  -
|  1> #Run DFT-D3 single point of the dimer
|  2> ! wB97X-D3 def2-TZVP TIGHTSCF CHELPG PMODEL PAL8
|  3>
|  4> %base "2-23_DFT_AB"
|  5>
|  6> %scf
|  7> MaxIter 1000
|  8> end
|  9>
| 10> * xyz 0 1
| 11>   C                      3.461109             3.222378             4.105244
| 12>   O                      3.157580             2.071432             3.453058
| 13>   H                      2.370845             1.638740             3.819682
| 14>   H                      3.982423             3.051816             5.032330
| 15>   H                      4.203252             3.873688             3.594400
| 16>   H                      2.649209             3.897304             4.300673
| 17>   C                      7.340422             5.893953             5.507825
| 18>   O                      6.850748             7.095444             6.105686
| 19>   H                      6.761860             7.020480             7.106936
| 20>   H                      6.653238             5.108050             5.775999
| 21>   H                      7.329797             5.851631             4.363783
| 22>   H                      8.340120             5.550337             5.802321
| 23> *
| 24>
| 25> #Run DFT-D3 single point of the molecule with dimer basis set
| 26> $new_job
| 27> %base "2-23_DFT_A"
| 28> ! wB97X-D3 def2-TZVP TIGHTSCF CHELPG PMODEL
| 29>
| 30> %scf
| 31> MaxIter 1000
| 32> end
| 33>
| 34> * xyz 0 1
| 35>   C                      3.461109             3.222378             4.105244
| 36>   O                      3.157580             2.071432             3.453058
| 37>   H                      2.370845             1.638740             3.819682
| 38>   H                      3.982423             3.051816             5.032330
| 39>   H                      4.203252             3.873688             3.594400
| 40>   H                      2.649209             3.897304             4.300673
| 41>   C                    : 7.340422             5.893953             5.507825
| 42>   O                    : 6.850748             7.095444             6.105686
| 43>   H                    : 6.761860             7.020480             7.106936
| 44>   H                    : 6.653238             5.108050             5.775999
| 45>   H                    : 7.329797             5.851631             4.363783
| 46>   H                    : 8.340120             5.550337             5.802321
| 47> *
| 48>
| 49> #Run DFT-D3 single point of the particle with dimer basis set
| 50> $new_job
| 51> %base "2-23_DFT_B"
| 52> ! wB97X-D3 def2-TZVP TIGHTSCF CHELPG PMODEL
| 53>
| 54> %scf
| 55> MaxIter 1000
| 56> end
| 57>
| 58> * xyz 0 1
| 59>   C                    : 3.461109             3.222378             4.105244
| 60>   O                    : 3.157580             2.071432             3.453058
| 61>   H                    : 2.370845             1.638740             3.819682
| 62>   H                    : 3.982423             3.051816             5.032330
| 63>   H                    : 4.203252             3.873688             3.594400
| 64>   H                    : 2.649209             3.897304             4.300673
| 65>   C                      7.340422             5.893953             5.507825
| 66>   O                      6.850748             7.095444             6.105686
| 67>   H                      6.761860             7.020480             7.106936
| 68>   H                      6.653238             5.108050             5.775999
| 69>   H                      7.329797             5.851631             4.363783
| 70>   H                      8.340120             5.550337             5.802321
| 71> *
| 72>
| 73>                          ****END OF INPUT****
 Total Charge           Charge          ....    0
 Multiplicity           Mult            ....    1
 Number of Electrons    NEL             ....   36
Dispersion correction           -0.000919102
FINAL SINGLE POINT ENERGY      -231.458307400344
Dispersion correction           -0.000243364
FINAL SINGLE POINT ENERGY      -115.730895101829

CARTESIAN COORDINATES (ANGSTROEM)
---------------------------------
  C      3.461109    3.222378    4.105244
  O      3.157580    2.071432    3.453058
  H      2.370845    1.638740    3.819682
  H      3.982423    3.051816    5.032330
  H      4.203252    3.873688    3.594400
  H      2.649209    3.897304    4.300673
  C      7.340422    5.893953    5.507825
  O      6.850748    7.095444    6.105686
  H      6.761860    7.020480    7.106936
  H      6.653238    5.108050    5.775999
  H      7.329797    5.851631    4.363783
  H      8.340120    5.550337    5.802321

 Multiplicity           Mult            ....    1
 Number of Electrons    NEL             ....   18
 Basis Dimension        Dim             ....  172

ORBITAL ENERGIES
----------------

  NO   OCC          E(Eh)            E(eV)
   0   2.0000     -19.234789      -523.4052
   1   2.0000     -10.318781      -280.7883
   2   2.0000      -1.121360       -30.5138
   3   2.0000      -0.792679       -21.5699
   4   2.0000      -0.605157       -16.4671
   5   2.0000      -0.537780       -14.6337
   6   2.0000      -0.522475       -14.2173
   7   2.0000      -0.422937       -11.5087
   8   2.0000      -0.372716       -10.1421
   9   0.0000       0.083929         2.2838
  10   0.0000       0.110846         3.0163
  11   0.0000       0.136769         3.7217
  12   0.0000       0.171034         4.6541
  13   0.0000       0.185342         5.0434

MULLIKEN ATOMIC CHARGES
-----------------------
   0 C :    0.000555
   1 O :    0.000006
   2 H :    0.000001
   3 H :   -0.000378
   4 H :   -0.000397
   5 H :   -0.000067
   6 C :   -0.168744
   7 O :   -0.487971
   8 H :    0.323291
   9 H :    0.110506
  10 H :    0.121524
  11 H :    0.101675
Sum of atomic charges:    0.0000000

LOEWDIN ATOMIC CHARGES
----------------------
   0 C :   -0.000315
   1 O :   -0.000004
   2 H :   -0.000000
   3 H :   -0.000321
   4 H :   -0.000204
   5 H :   -0.000005
   6 C :   -0.388954
   7 O :   -0.110599
   8 H :    0.196420
   9 H :    0.092231
  10 H :    0.119363
  11 H :    0.092390

  Mayer bond orders larger than 0.1
B(  6-C ,  7-O ) :   0.9967 B(  6-C ,  9-H ) :   0.9852 B(  6-C , 10-H ) :   0.9684
B(  6-C , 11-H ) :   0.9668 B(  7-O ,  8-H ) :   0.8842

Dispersion correction           -0.000277275
FINAL SINGLE POINT ENERGY      -115.726897516817

DIPOLE MOMENT
-------------
                                X             Y             Z
Electronic contribution:     -0.56162       1.72154       0.67287
Nuclear contribution   :      0.68714      -2.27957      -0.28163
                        -----------------------------------------
Total Dipole Moment    :      0.12552      -0.55803       0.39124
                        -----------------------------------------
Magnitude (a.u.)       :      0.69298
Magnitude (Debye)      :      1.76142

Rotational constants in cm-1:     4.373691     0.795556     0.766486
Rotational constants in MHz : 131119.949725 23850.163086 22978.671704

                             ****ORCA TERMINATED NORMALLY****
TOTAL RUN TIME: 0 days 0 hours 5 minutes 27 seconds 996 msec
