                         Program Version 4.1.2  - RELEASE  -
|  1> #Run DFT-D3 single point of the dimer
|  2> ! wB97X-D3 def2-TZVP TIGHTSCF CHELPG PMODEL PAL8
|  3>
|  4> %base "2-105_DFT_AB"
|  5>
|  6> %scf
|  7> MaxIter 1000
|  8> end
|  9>
| 10> * xyz 0 1
| 11>   C                      8.250343             5.705359             -1.178994
| 12>   O                      7.781973             4.399579             -0.935683
| 13>   H                      6.990076             4.528335             -0.441139
| 14>   H                      7.784217             6.542154             -0.621818
| 15>   H                      9.292746             5.743374             -0.911809
| 16>   H                      8.314528             5.887828             -2.257205
| 17>   C                      9.970303             2.547988             -1.955222
| 18>   O                      11.124587            1.796867             -2.009329
| 19>   H                      11.460932            1.481587             -2.840544
| 20>   H                      9.207894             2.121664             -2.571068
| 21>   H                      9.617390             2.723581             -0.932174
| 22>   H                      10.100876            3.577035             -2.388590
| 23> *
| 24>
| 25> #Run DFT-D3 single point of the molecule with dimer basis set
| 26> $new_job
| 27> %base "2-105_DFT_A"
| 28> ! wB97X-D3 def2-TZVP TIGHTSCF CHELPG PMODEL
| 29>
| 30> %scf
| 31> MaxIter 1000
| 32> end
| 33>
| 34> * xyz 0 1
| 35>   C                      8.250343             5.705359             -1.178994
| 36>   O                      7.781973             4.399579             -0.935683
| 37>   H                      6.990076             4.528335             -0.441139
| 38>   H                      7.784217             6.542154             -0.621818
| 39>   H                      9.292746             5.743374             -0.911809
| 40>   H                      8.314528             5.887828             -2.257205
| 41>   C                    : 9.970303             2.547988             -1.955222
| 42>   O                    : 11.124587            1.796867             -2.009329
| 43>   H                    : 11.460932            1.481587             -2.840544
| 44>   H                    : 9.207894             2.121664             -2.571068
| 45>   H                    : 9.617390             2.723581             -0.932174
| 46>   H                    : 10.100876            3.577035             -2.388590
| 47> *
| 48>
| 49> #Run DFT-D3 single point of the particle with dimer basis set
| 50> $new_job
| 51> %base "2-105_DFT_B"
| 52> ! wB97X-D3 def2-TZVP TIGHTSCF CHELPG PMODEL
| 53>
| 54> %scf
| 55> MaxIter 1000
| 56> end
| 57>
| 58> * xyz 0 1
| 59>   C                    : 8.250343             5.705359             -1.178994
| 60>   O                    : 7.781973             4.399579             -0.935683
| 61>   H                    : 6.990076             4.528335             -0.441139
| 62>   H                    : 7.784217             6.542154             -0.621818
| 63>   H                    : 9.292746             5.743374             -0.911809
| 64>   H                    : 8.314528             5.887828             -2.257205
| 65>   C                      9.970303             2.547988             -1.955222
| 66>   O                      11.124587            1.796867             -2.009329
| 67>   H                      11.460932            1.481587             -2.840544
| 68>   H                      9.207894             2.121664             -2.571068
| 69>   H                      9.617390             2.723581             -0.932174
| 70>   H                      10.100876            3.577035             -2.388590
| 71> *
| 72>
| 73>                          ****END OF INPUT****
 Total Charge           Charge          ....    0
 Multiplicity           Mult            ....    1
 Number of Electrons    NEL             ....   36
Dispersion correction           -0.001996856
FINAL SINGLE POINT ENERGY      -231.463776338979
Dispersion correction           -0.000249600
FINAL SINGLE POINT ENERGY      -115.731441878831

CARTESIAN COORDINATES (ANGSTROEM)
---------------------------------
  C      8.250343    5.705359   -1.178994
  O      7.781973    4.399579   -0.935683
  H      6.990076    4.528335   -0.441139
  H      7.784217    6.542154   -0.621818
  H      9.292746    5.743374   -0.911809
  H      8.314528    5.887828   -2.257205
  C      9.970303    2.547988   -1.955222
  O     11.124587    1.796867   -2.009329
  H     11.460932    1.481587   -2.840544
  H      9.207894    2.121664   -2.571068
  H      9.617390    2.723581   -0.932174
  H     10.100876    3.577035   -2.388590

 Multiplicity           Mult            ....    1
 Number of Electrons    NEL             ....   18
 Basis Dimension        Dim             ....  172

ORBITAL ENERGIES
----------------

  NO   OCC          E(Eh)            E(eV)
   0   2.0000     -19.224669      -523.1298
   1   2.0000     -10.312425      -280.6154
   2   2.0000      -1.141108       -31.0511
   3   2.0000      -0.801458       -21.8088
   4   2.0000      -0.624318       -16.9886
   5   2.0000      -0.543904       -14.8004
   6   2.0000      -0.530617       -14.4388
   7   2.0000      -0.419227       -11.4078
   8   2.0000      -0.366638        -9.9767
   9   0.0000       0.084195         2.2911
  10   0.0000       0.118375         3.2211
  11   0.0000       0.157601         4.2885
  12   0.0000       0.161746         4.4013
  13   0.0000       0.186988         5.0882

MULLIKEN ATOMIC CHARGES
-----------------------
   0 C :   -0.001521
   1 O :    0.000095
   2 H :   -0.000055
   3 H :   -0.000141
   4 H :   -0.000333
   5 H :   -0.000105
   6 C :   -0.136147
   7 O :   -0.495428
   8 H :    0.323992
   9 H :    0.100623
  10 H :    0.120420
  11 H :    0.088601
Sum of atomic charges:   -0.0000000

LOEWDIN ATOMIC CHARGES
----------------------
   0 C :   -0.006742
   1 O :   -0.006594
   2 H :   -0.000265
   3 H :   -0.000060
   4 H :   -0.001742
   5 H :   -0.000921
   6 C :   -0.402541
   7 O :   -0.048357
   8 H :    0.163851
   9 H :    0.089520
  10 H :    0.113674
  11 H :    0.100177

  Mayer bond orders larger than 0.1
B(  6-C ,  7-O ) :   0.9967 B(  6-C ,  9-H ) :   0.9781 B(  6-C , 10-H ) :   0.9682
B(  6-C , 11-H ) :   0.9754 B(  7-O ,  8-H ) :   0.8857

Dispersion correction           -0.000255348
FINAL SINGLE POINT ENERGY      -115.730476425083

DIPOLE MOMENT
-------------
                                X             Y             Z
Electronic contribution:      1.50017      -1.09689       0.09904
Nuclear contribution   :     -1.73968       1.16574      -0.64612
                        -----------------------------------------
Total Dipole Moment    :     -0.23950       0.06885      -0.54708
                        -----------------------------------------
Magnitude (a.u.)       :      0.60116
Magnitude (Debye)      :      1.52803

Rotational constants in cm-1:     4.548988     0.846738     0.816024
Rotational constants in MHz : 136375.216886 25384.566094 24463.779197

                             ****ORCA TERMINATED NORMALLY****
TOTAL RUN TIME: 0 days 0 hours 6 minutes 0 seconds 262 msec
