                         Program Version 4.1.2  - RELEASE  -
|  1> #Run DFT-D3 single point of the dimer
|  2> ! wB97X-D3 def2-TZVP TIGHTSCF CHELPG PMODEL PAL8
|  3>
|  4> %base "5-20_DFT_AB"
|  5>
|  6> %scf
|  7> MaxIter 1000
|  8> end
|  9>
| 10> * xyz 0 1
| 11>   C                      2.739132             -3.942480            -1.008213
| 12>   O                      1.753076             -3.898102            -0.067553
| 13>   H                      2.322324             -4.076974            0.640020
| 14>   H                      3.466281             -4.735064            -0.636827
| 15>   H                      2.402265             -4.144417            -2.020121
| 16>   H                      3.256188             -3.012980            -0.955926
| 17>   C                      3.523408             -5.923778            2.070169
| 18>   O                      3.834441             -4.576411            1.836301
| 19>   H                      4.763971             -4.562166            1.509061
| 20>   H                      2.729272             -5.991882            2.856450
| 21>   H                      3.330591             -6.484672            1.252621
| 22>   H                      4.446997             -6.457884            2.510366
| 23> *
| 24>
| 25> #Run DFT-D3 single point of the molecule with dimer basis set
| 26> $new_job
| 27> %base "5-20_DFT_A"
| 28> ! wB97X-D3 def2-TZVP TIGHTSCF CHELPG PMODEL
| 29>
| 30> %scf
| 31> MaxIter 1000
| 32> end
| 33>
| 34> * xyz 0 1
| 35>   C                      2.739132             -3.942480            -1.008213
| 36>   O                      1.753076             -3.898102            -0.067553
| 37>   H                      2.322324             -4.076974            0.640020
| 38>   H                      3.466281             -4.735064            -0.636827
| 39>   H                      2.402265             -4.144417            -2.020121
| 40>   H                      3.256188             -3.012980            -0.955926
| 41>   C                    : 3.523408             -5.923778            2.070169
| 42>   O                    : 3.834441             -4.576411            1.836301
| 43>   H                    : 4.763971             -4.562166            1.509061
| 44>   H                    : 2.729272             -5.991882            2.856450
| 45>   H                    : 3.330591             -6.484672            1.252621
| 46>   H                    : 4.446997             -6.457884            2.510366
| 47> *
| 48>
| 49> #Run DFT-D3 single point of the particle with dimer basis set
| 50> $new_job
| 51> %base "5-20_DFT_B"
| 52> ! wB97X-D3 def2-TZVP TIGHTSCF CHELPG PMODEL
| 53>
| 54> %scf
| 55> MaxIter 1000
| 56> end
| 57>
| 58> * xyz 0 1
| 59>   C                    : 2.739132             -3.942480            -1.008213
| 60>   O                    : 1.753076             -3.898102            -0.067553
| 61>   H                    : 2.322324             -4.076974            0.640020
| 62>   H                    : 3.466281             -4.735064            -0.636827
| 63>   H                    : 2.402265             -4.144417            -2.020121
| 64>   H                    : 3.256188             -3.012980            -0.955926
| 65>   C                      3.523408             -5.923778            2.070169
| 66>   O                      3.834441             -4.576411            1.836301
| 67>   H                      4.763971             -4.562166            1.509061
| 68>   H                      2.729272             -5.991882            2.856450
| 69>   H                      3.330591             -6.484672            1.252621
| 70>   H                      4.446997             -6.457884            2.510366
| 71> *
| 72>
| 73>                          ****END OF INPUT****
 Total Charge           Charge          ....    0
 Multiplicity           Mult            ....    1
 Number of Electrons    NEL             ....   36
Dispersion correction           -0.002215548
FINAL SINGLE POINT ENERGY      -231.455747878612
Dispersion correction           -0.000170215
FINAL SINGLE POINT ENERGY      -115.720294626232

CARTESIAN COORDINATES (ANGSTROEM)
---------------------------------
  C      2.739132   -3.942480   -1.008213
  O      1.753076   -3.898102   -0.067553
  H      2.322324   -4.076974    0.640020
  H      3.466281   -4.735064   -0.636827
  H      2.402265   -4.144417   -2.020121
  H      3.256188   -3.012980   -0.955926
  C      3.523408   -5.923778    2.070169
  O      3.834441   -4.576411    1.836301
  H      4.763971   -4.562166    1.509061
  H      2.729272   -5.991882    2.856450
  H      3.330591   -6.484672    1.252621
  H      4.446997   -6.457884    2.510366

 Multiplicity           Mult            ....    1
 Number of Electrons    NEL             ....   18
 Basis Dimension        Dim             ....  172

ORBITAL ENERGIES
----------------

  NO   OCC          E(Eh)            E(eV)
   0   2.0000     -19.235545      -523.4258
   1   2.0000     -10.312598      -280.6200
   2   2.0000      -1.138114       -30.9697
   3   2.0000      -0.794588       -21.6218
   4   2.0000      -0.616125       -16.7656
   5   2.0000      -0.546079       -14.8596
   6   2.0000      -0.524764       -14.2795
   7   2.0000      -0.432193       -11.7606
   8   2.0000      -0.374486       -10.1903
   9   0.0000       0.092830         2.5260
  10   0.0000       0.129054         3.5117
  11   0.0000       0.151014         4.1093
  12   0.0000       0.186526         5.0756
  13   0.0000       0.189988         5.1698

MULLIKEN ATOMIC CHARGES
-----------------------
   0 C :    0.005288
   1 O :   -0.002824
   2 H :    0.003845
   3 H :   -0.014330
   4 H :   -0.000985
   5 H :   -0.001831
   6 C :   -0.173218
   7 O :   -0.466827
   8 H :    0.319708
   9 H :    0.119712
  10 H :    0.120899
  11 H :    0.090562
Sum of atomic charges:   -0.0000000

LOEWDIN ATOMIC CHARGES
----------------------
   0 C :   -0.013407
   1 O :   -0.004137
   2 H :   -0.032954
   3 H :   -0.009158
   4 H :   -0.000173
   5 H :   -0.001012
   6 C :   -0.388758
   7 O :   -0.033044
   8 H :    0.188721
   9 H :    0.114739
  10 H :    0.074027
  11 H :    0.105156

  Mayer bond orders larger than 0.1
B(  6-C ,  7-O ) :   0.9920 B(  6-C ,  9-H ) :   0.9785 B(  6-C , 10-H ) :   0.9661
B(  6-C , 11-H ) :   0.9845 B(  7-O ,  8-H ) :   0.8924

Dispersion correction           -0.000230739
FINAL SINGLE POINT ENERGY      -115.727065826336

DIPOLE MOMENT
-------------
                                X             Y             Z
Electronic contribution:      0.07626       1.83907      -0.42881
Nuclear contribution   :      0.38439      -2.35198       0.31175
                        -----------------------------------------
Total Dipole Moment    :      0.46066      -0.51291      -0.11706
                        -----------------------------------------
Magnitude (a.u.)       :      0.69928
Magnitude (Debye)      :      1.77742

Rotational constants in cm-1:     4.242782     0.847651     0.804472
Rotational constants in MHz : 127195.415070 25411.950990 24117.462614

                             ****ORCA TERMINATED NORMALLY****
TOTAL RUN TIME: 0 days 0 hours 1 minutes 1 seconds 310 msec
