                         Program Version 4.1.2  - RELEASE  -
|  1> #Run DFT-D3 single point of the dimer
|  2> ! wB97X-D3 def2-TZVP TIGHTSCF CHELPG PMODEL PAL8
|  3>
|  4> %base "10-31_DFT_AB"
|  5>
|  6> %scf
|  7> MaxIter 1000
|  8> end
|  9>
| 10> * xyz 0 1
| 11>   C                      -0.107336            -6.761295            -6.715591
| 12>   O                      -0.840736            -7.925506            -6.762882
| 13>   H                      -0.625648            -8.537022            -6.098598
| 14>   H                      0.918834             -6.900276            -6.443235
| 15>   H                      -0.136207            -6.196261            -7.628469
| 16>   H                      -0.460480            -6.062073            -5.931819
| 17>   C                      -1.641240            -3.725558            -6.177699
| 18>   O                      -0.270499            -3.593153            -5.977041
| 19>   H                      -0.002154            -4.134536            -5.291302
| 20>   H                      -2.040855            -4.591531            -5.660967
| 21>   H                      -2.103454            -2.829542            -5.842133
| 22>   H                      -1.862435            -3.762186            -7.224274
| 23> *
| 24>
| 25> #Run DFT-D3 single point of the molecule with dimer basis set
| 26> $new_job
| 27> %base "10-31_DFT_A"
| 28> ! wB97X-D3 def2-TZVP TIGHTSCF CHELPG PMODEL
| 29>
| 30> %scf
| 31> MaxIter 1000
| 32> end
| 33>
| 34> * xyz 0 1
| 35>   C                      -0.107336            -6.761295            -6.715591
| 36>   O                      -0.840736            -7.925506            -6.762882
| 37>   H                      -0.625648            -8.537022            -6.098598
| 38>   H                      0.918834             -6.900276            -6.443235
| 39>   H                      -0.136207            -6.196261            -7.628469
| 40>   H                      -0.460480            -6.062073            -5.931819
| 41>   C                    : -1.641240            -3.725558            -6.177699
| 42>   O                    : -0.270499            -3.593153            -5.977041
| 43>   H                    : -0.002154            -4.134536            -5.291302
| 44>   H                    : -2.040855            -4.591531            -5.660967
| 45>   H                    : -2.103454            -2.829542            -5.842133
| 46>   H                    : -1.862435            -3.762186            -7.224274
| 47> *
| 48>
| 49> #Run DFT-D3 single point of the particle with dimer basis set
| 50> $new_job
| 51> %base "10-31_DFT_B"
| 52> ! wB97X-D3 def2-TZVP TIGHTSCF CHELPG PMODEL
| 53>
| 54> %scf
| 55> MaxIter 1000
| 56> end
| 57>
| 58> * xyz 0 1
| 59>   C                    : -0.107336            -6.761295            -6.715591
| 60>   O                    : -0.840736            -7.925506            -6.762882
| 61>   H                    : -0.625648            -8.537022            -6.098598
| 62>   H                    : 0.918834             -6.900276            -6.443235
| 63>   H                    : -0.136207            -6.196261            -7.628469
| 64>   H                    : -0.460480            -6.062073            -5.931819
| 65>   C                      -1.641240            -3.725558            -6.177699
| 66>   O                      -0.270499            -3.593153            -5.977041
| 67>   H                      -0.002154            -4.134536            -5.291302
| 68>   H                      -2.040855            -4.591531            -5.660967
| 69>   H                      -2.103454            -2.829542            -5.842133
| 70>   H                      -1.862435            -3.762186            -7.224274
| 71> *
| 72>
| 73>                          ****END OF INPUT****
 Total Charge           Charge          ....    0
 Multiplicity           Mult            ....    1
 Number of Electrons    NEL             ....   36
Dispersion correction           -0.002067005
FINAL SINGLE POINT ENERGY      -231.464609678704
Dispersion correction           -0.000241885
FINAL SINGLE POINT ENERGY      -115.732697227885

CARTESIAN COORDINATES (ANGSTROEM)
---------------------------------
  C     -0.107336   -6.761295   -6.715591
  O     -0.840736   -7.925506   -6.762882
  H     -0.625648   -8.537022   -6.098598
  H      0.918834   -6.900276   -6.443235
  H     -0.136207   -6.196261   -7.628469
  H     -0.460480   -6.062073   -5.931819
  C     -1.641240   -3.725558   -6.177699
  O     -0.270499   -3.593153   -5.977041
  H     -0.002154   -4.134536   -5.291302
  H     -2.040855   -4.591531   -5.660967
  H     -2.103454   -2.829542   -5.842133
  H     -1.862435   -3.762186   -7.224274

 Multiplicity           Mult            ....    1
 Number of Electrons    NEL             ....   18
 Basis Dimension        Dim             ....  172

ORBITAL ENERGIES
----------------

  NO   OCC          E(Eh)            E(eV)
   0   2.0000     -19.222966      -523.0835
   1   2.0000     -10.303948      -280.3847
   2   2.0000      -1.150541       -31.3078
   3   2.0000      -0.804861       -21.9014
   4   2.0000      -0.620898       -16.8955
   5   2.0000      -0.544840       -14.8259
   6   2.0000      -0.539205       -14.6725
   7   2.0000      -0.435736       -11.8570
   8   2.0000      -0.370718       -10.0878
   9   0.0000       0.082335         2.2405
  10   0.0000       0.135472         3.6864
  11   0.0000       0.154109         4.1935
  12   0.0000       0.170563         4.6413
  13   0.0000       0.202830         5.5193

MULLIKEN ATOMIC CHARGES
-----------------------
   0 C :    0.005215
   1 O :   -0.000428
   2 H :   -0.000080
   3 H :   -0.000799
   4 H :   -0.000515
   5 H :   -0.016803
   6 C :   -0.157705
   7 O :   -0.461942
   8 H :    0.306997
   9 H :    0.103716
  10 H :    0.111577
  11 H :    0.110768
Sum of atomic charges:    0.0000000

LOEWDIN ATOMIC CHARGES
----------------------
   0 C :   -0.013765
   1 O :   -0.000070
   2 H :   -0.000029
   3 H :   -0.000495
   4 H :   -0.001809
   5 H :   -0.012856
   6 C :   -0.380207
   7 O :   -0.024977
   8 H :    0.139544
   9 H :    0.099710
  10 H :    0.093843
  11 H :    0.101111

  Mayer bond orders larger than 0.1
B(  6-C ,  7-O ) :   0.9814 B(  6-C ,  9-H ) :   0.9846 B(  6-C , 10-H ) :   0.9847
B(  6-C , 11-H ) :   0.9789 B(  7-O ,  8-H ) :   0.9137

Dispersion correction           -0.000221882
FINAL SINGLE POINT ENERGY      -115.732370077841

DIPOLE MOMENT
-------------
                                X             Y             Z
Electronic contribution:      1.72917       0.18950       0.18080
Nuclear contribution   :     -2.10253      -0.58774       0.19280
                        -----------------------------------------
Total Dipole Moment    :     -0.37336      -0.39824       0.37360
                        -----------------------------------------
Magnitude (a.u.)       :      0.66149
Magnitude (Debye)      :      1.68137

Rotational constants in cm-1:     4.501660     0.865769     0.828669
Rotational constants in MHz : 134956.357896 25955.092846 24842.867321

                             ****ORCA TERMINATED NORMALLY****
TOTAL RUN TIME: 0 days 0 hours 1 minutes 5 seconds 289 msec
