                         Program Version 4.1.2  - RELEASE  -
|  1> #Run DFT-D3 single point of the dimer
|  2> ! wB97X-D3 def2-TZVP TIGHTSCF CHELPG PMODEL PAL8
|  3>
|  4> %base "3-50_DFT_AB"
|  5>
|  6> %scf
|  7> MaxIter 1000
|  8> end
|  9>
| 10> * xyz 0 1
| 11>   C                      -1.585375            -0.526504            1.034932
| 12>   O                      -1.659778            -0.611331            2.447003
| 13>   H                      -2.532319            -0.358363            2.745018
| 14>   H                      -0.888317            0.258825             0.604334
| 15>   H                      -1.291051            -1.503012            0.632394
| 16>   H                      -2.593034            -0.391837            0.618044
| 17>   C                      0.065464             -4.211763            3.544082
| 18>   O                      0.811758             -3.591508            4.520244
| 19>   H                      1.119619             -4.270361            5.134675
| 20>   H                      0.671421             -4.857393            3.010172
| 21>   H                      -0.768815            -4.826459            3.971872
| 22>   H                      -0.362003            -3.489783            2.859465
| 23> *
| 24>
| 25> #Run DFT-D3 single point of the molecule with dimer basis set
| 26> $new_job
| 27> %base "3-50_DFT_A"
| 28> ! wB97X-D3 def2-TZVP TIGHTSCF CHELPG PMODEL
| 29>
| 30> %scf
| 31> MaxIter 1000
| 32> end
| 33>
| 34> * xyz 0 1
| 35>   C                      -1.585375            -0.526504            1.034932
| 36>   O                      -1.659778            -0.611331            2.447003
| 37>   H                      -2.532319            -0.358363            2.745018
| 38>   H                      -0.888317            0.258825             0.604334
| 39>   H                      -1.291051            -1.503012            0.632394
| 40>   H                      -2.593034            -0.391837            0.618044
| 41>   C                    : 0.065464             -4.211763            3.544082
| 42>   O                    : 0.811758             -3.591508            4.520244
| 43>   H                    : 1.119619             -4.270361            5.134675
| 44>   H                    : 0.671421             -4.857393            3.010172
| 45>   H                    : -0.768815            -4.826459            3.971872
| 46>   H                    : -0.362003            -3.489783            2.859465
| 47> *
| 48>
| 49> #Run DFT-D3 single point of the particle with dimer basis set
| 50> $new_job
| 51> %base "3-50_DFT_B"
| 52> ! wB97X-D3 def2-TZVP TIGHTSCF CHELPG PMODEL
| 53>
| 54> %scf
| 55> MaxIter 1000
| 56> end
| 57>
| 58> * xyz 0 1
| 59>   C                    : -1.585375            -0.526504            1.034932
| 60>   O                    : -1.659778            -0.611331            2.447003
| 61>   H                    : -2.532319            -0.358363            2.745018
| 62>   H                    : -0.888317            0.258825             0.604334
| 63>   H                    : -1.291051            -1.503012            0.632394
| 64>   H                    : -2.593034            -0.391837            0.618044
| 65>   C                      0.065464             -4.211763            3.544082
| 66>   O                      0.811758             -3.591508            4.520244
| 67>   H                      1.119619             -4.270361            5.134675
| 68>   H                      0.671421             -4.857393            3.010172
| 69>   H                      -0.768815            -4.826459            3.971872
| 70>   H                      -0.362003            -3.489783            2.859465
| 71> *
| 72>
| 73>                          ****END OF INPUT****
 Total Charge           Charge          ....    0
 Multiplicity           Mult            ....    1
 Number of Electrons    NEL             ....   36
Dispersion correction           -0.001100030
FINAL SINGLE POINT ENERGY      -231.465729571776
Dispersion correction           -0.000262640
FINAL SINGLE POINT ENERGY      -115.732869316062

CARTESIAN COORDINATES (ANGSTROEM)
---------------------------------
  C     -1.585375   -0.526504    1.034932
  O     -1.659778   -0.611331    2.447003
  H     -2.532319   -0.358363    2.745018
  H     -0.888317    0.258825    0.604334
  H     -1.291051   -1.503012    0.632394
  H     -2.593034   -0.391837    0.618044
  C      0.065464   -4.211763    3.544082
  O      0.811758   -3.591508    4.520244
  H      1.119619   -4.270361    5.134675
  H      0.671421   -4.857393    3.010172
  H     -0.768815   -4.826459    3.971872
  H     -0.362003   -3.489783    2.859465

 Multiplicity           Mult            ....    1
 Number of Electrons    NEL             ....   18
 Basis Dimension        Dim             ....  172

ORBITAL ENERGIES
----------------

  NO   OCC          E(Eh)            E(eV)
   0   2.0000     -19.228546      -523.2353
   1   2.0000     -10.304209      -280.3918
   2   2.0000      -1.146732       -31.2042
   3   2.0000      -0.796444       -21.6723
   4   2.0000      -0.618318       -16.8253
   5   2.0000      -0.548307       -14.9202
   6   2.0000      -0.534243       -14.5375
   7   2.0000      -0.431884       -11.7522
   8   2.0000      -0.369957       -10.0670
   9   0.0000       0.087180         2.3723
  10   0.0000       0.115987         3.1562
  11   0.0000       0.158029         4.3002
  12   0.0000       0.166621         4.5340
  13   0.0000       0.186879         5.0852

MULLIKEN ATOMIC CHARGES
-----------------------
   0 C :    0.000332
   1 O :   -0.000021
   2 H :   -0.000009
   3 H :   -0.000026
   4 H :   -0.000266
   5 H :   -0.000020
   6 C :   -0.154329
   7 O :   -0.470650
   8 H :    0.315928
   9 H :    0.101329
  10 H :    0.088809
  11 H :    0.118921
Sum of atomic charges:   -0.0000000

LOEWDIN ATOMIC CHARGES
----------------------
   0 C :   -0.000734
   1 O :   -0.000405
   2 H :   -0.000037
   3 H :   -0.000007
   4 H :   -0.000540
   5 H :   -0.000004
   6 C :   -0.407253
   7 O :   -0.052312
   8 H :    0.176304
   9 H :    0.080127
  10 H :    0.097365
  11 H :    0.107495

  Mayer bond orders larger than 0.1
B(  6-C ,  7-O ) :   1.0055 B(  6-C ,  9-H ) :   0.9843 B(  6-C , 10-H ) :   0.9796
B(  6-C , 11-H ) :   0.9713 B(  7-O ,  8-H ) :   0.8970

Dispersion correction           -0.000211213
FINAL SINGLE POINT ENERGY      -115.732777656093

DIPOLE MOMENT
-------------
                                X             Y             Z
Electronic contribution:      0.99550       0.98427       1.16850
Nuclear contribution   :     -1.06634      -1.64691      -1.16627
                        -----------------------------------------
Total Dipole Moment    :     -0.07084      -0.66264       0.00223
                        -----------------------------------------
Magnitude (a.u.)       :      0.66642
Magnitude (Debye)      :      1.69391

Rotational constants in cm-1:     4.384535     0.874538     0.837251
Rotational constants in MHz : 131445.053158 26217.990810 25100.142621

                             ****ORCA TERMINATED NORMALLY****
TOTAL RUN TIME: 0 days 0 hours 6 minutes 22 seconds 869 msec
