                         Program Version 4.1.2  - RELEASE  -
|  1> #Run DFT-D3 single point of the dimer
|  2> ! wB97X-D3 def2-TZVP TIGHTSCF CHELPG PMODEL PAL8
|  3>
|  4> %base "5-117_DFT_AB"
|  5>
|  6> %scf
|  7> MaxIter 1000
|  8> end
|  9>
| 10> * xyz 0 1
| 11>   C                      3.183736             5.995113             10.955954
| 12>   O                      3.499495             4.613569             11.171923
| 13>   H                      2.819800             4.190897             11.702328
| 14>   H                      3.994705             6.451378             10.373368
| 15>   H                      2.292251             6.198718             10.312832
| 16>   H                      3.131440             6.583796             11.863189
| 17>   C                      6.830244             6.511810             8.291363
| 18>   O                      6.008944             5.678856             7.405519
| 19>   H                      6.250590             4.775772             7.644456
| 20>   H                      7.872036             6.342662             8.045794
| 21>   H                      6.711935             7.625766             8.107160
| 22>   H                      6.674209             6.258402             9.324222
| 23> *
| 24>
| 25> #Run DFT-D3 single point of the molecule with dimer basis set
| 26> $new_job
| 27> %base "5-117_DFT_A"
| 28> ! wB97X-D3 def2-TZVP TIGHTSCF CHELPG PMODEL
| 29>
| 30> %scf
| 31> MaxIter 1000
| 32> end
| 33>
| 34> * xyz 0 1
| 35>   C                      3.183736             5.995113             10.955954
| 36>   O                      3.499495             4.613569             11.171923
| 37>   H                      2.819800             4.190897             11.702328
| 38>   H                      3.994705             6.451378             10.373368
| 39>   H                      2.292251             6.198718             10.312832
| 40>   H                      3.131440             6.583796             11.863189
| 41>   C                    : 6.830244             6.511810             8.291363
| 42>   O                    : 6.008944             5.678856             7.405519
| 43>   H                    : 6.250590             4.775772             7.644456
| 44>   H                    : 7.872036             6.342662             8.045794
| 45>   H                    : 6.711935             7.625766             8.107160
| 46>   H                    : 6.674209             6.258402             9.324222
| 47> *
| 48>
| 49> #Run DFT-D3 single point of the particle with dimer basis set
| 50> $new_job
| 51> %base "5-117_DFT_B"
| 52> ! wB97X-D3 def2-TZVP TIGHTSCF CHELPG PMODEL
| 53>
| 54> %scf
| 55> MaxIter 1000
| 56> end
| 57>
| 58> * xyz 0 1
| 59>   C                    : 3.183736             5.995113             10.955954
| 60>   O                    : 3.499495             4.613569             11.171923
| 61>   H                    : 2.819800             4.190897             11.702328
| 62>   H                    : 3.994705             6.451378             10.373368
| 63>   H                    : 2.292251             6.198718             10.312832
| 64>   H                    : 3.131440             6.583796             11.863189
| 65>   C                      6.830244             6.511810             8.291363
| 66>   O                      6.008944             5.678856             7.405519
| 67>   H                      6.250590             4.775772             7.644456
| 68>   H                      7.872036             6.342662             8.045794
| 69>   H                      6.711935             7.625766             8.107160
| 70>   H                      6.674209             6.258402             9.324222
| 71> *
| 72>
| 73>                          ****END OF INPUT****
 Total Charge           Charge          ....    0
 Multiplicity           Mult            ....    1
 Number of Electrons    NEL             ....   36
Dispersion correction           -0.001194453
FINAL SINGLE POINT ENERGY      -231.467745553358
Dispersion correction           -0.000278919
FINAL SINGLE POINT ENERGY      -115.734917282273

CARTESIAN COORDINATES (ANGSTROEM)
---------------------------------
  C      3.183736    5.995113   10.955954
  O      3.499495    4.613569   11.171923
  H      2.819800    4.190897   11.702328
  H      3.994705    6.451378   10.373368
  H      2.292251    6.198718   10.312832
  H      3.131440    6.583796   11.863189
  C      6.830244    6.511810    8.291363
  O      6.008944    5.678856    7.405519
  H      6.250590    4.775772    7.644456
  H      7.872036    6.342662    8.045794
  H      6.711935    7.625766    8.107160
  H      6.674209    6.258402    9.324222

 Multiplicity           Mult            ....    1
 Number of Electrons    NEL             ....   18
 Basis Dimension        Dim             ....  172

ORBITAL ENERGIES
----------------

  NO   OCC          E(Eh)            E(eV)
   0   2.0000     -19.231325      -523.3110
   1   2.0000     -10.318938      -280.7926
   2   2.0000      -1.122135       -30.5348
   3   2.0000      -0.795385       -21.6435
   4   2.0000      -0.598964       -16.2986
   5   2.0000      -0.542426       -14.7602
   6   2.0000      -0.517975       -14.0948
   7   2.0000      -0.438293       -11.9266
   8   2.0000      -0.375420       -10.2157
   9   0.0000       0.086305         2.3485
  10   0.0000       0.117574         3.1994
  11   0.0000       0.147006         4.0002
  12   0.0000       0.167714         4.5637
  13   0.0000       0.185987         5.0610

MULLIKEN ATOMIC CHARGES
-----------------------
   0 C :   -0.002286
   1 O :    0.000086
   2 H :    0.000002
   3 H :    0.002667
   4 H :    0.000167
   5 H :    0.000071
   6 C :   -0.199307
   7 O :   -0.476645
   8 H :    0.313539
   9 H :    0.118757
  10 H :    0.125422
  11 H :    0.117528
Sum of atomic charges:    0.0000000

LOEWDIN ATOMIC CHARGES
----------------------
   0 C :   -0.000729
   1 O :   -0.000019
   2 H :   -0.000001
   3 H :   -0.000753
   4 H :   -0.000010
   5 H :   -0.000016
   6 C :   -0.354926
   7 O :   -0.117481
   8 H :    0.168955
   9 H :    0.094662
  10 H :    0.118585
  11 H :    0.091734

  Mayer bond orders larger than 0.1
B(  6-C ,  7-O ) :   0.9838 B(  6-C ,  9-H ) :   0.9808 B(  6-C , 10-H ) :   0.9709
B(  6-C , 11-H ) :   0.9731 B(  7-O ,  8-H ) :   0.9013

Dispersion correction           -0.000249344
FINAL SINGLE POINT ENERGY      -115.731534649328

DIPOLE MOMENT
-------------
                                X             Y             Z
Electronic contribution:     -1.16900      -0.90877      -1.10204
Nuclear contribution   :      1.68678       0.69836       1.61740
                        -----------------------------------------
Total Dipole Moment    :      0.51778      -0.21042       0.51536
                        -----------------------------------------
Magnitude (a.u.)       :      0.76024
Magnitude (Debye)      :      1.93237

Rotational constants in cm-1:     4.251990     0.785181     0.753903
Rotational constants in MHz : 127471.460565 23539.129451 22601.455744

                             ****ORCA TERMINATED NORMALLY****
TOTAL RUN TIME: 0 days 0 hours 1 minutes 2 seconds 722 msec
