                         Program Version 4.1.2  - RELEASE  -
|  1> #Run DFT-D3 single point of the dimer
|  2> ! wB97X-D3 def2-TZVP TIGHTSCF  CHELPG PAL8
|  3>
|  4> %base "48_charges"
|  5>
|  6> %scf
|  7> MaxIter 1000
|  8> end
|  9> %output
| 10>   Print[ P_Mayer ] 1
| 11>   Print[ P_NatPop ] 1
| 12>   Print[ P_Hirshfeld ] 1
| 13>   Print[ P_Mulliken ] 1
| 14>   Print [ P_Loewdin ] 1
| 15> end
| 16>
| 17> * xyz 0 1
| 18>   C                      2.071981             -3.350948            7.780255
| 19>   O                      2.401524             -4.334646            6.808581
| 20>   H                      2.498126             -5.225193            7.179264
| 21>   H                      2.238102             -2.371984            7.414595
| 22>   H                      0.959148             -3.367396            7.951611
| 23>   H                      2.519001             -3.570511            8.714556
| 24> *
| 25>
| 26>                          ****END OF INPUT****

CARTESIAN COORDINATES (ANGSTROEM)
---------------------------------
  C      2.071981   -3.350948    7.780255
  O      2.401524   -4.334646    6.808581
  H      2.498126   -5.225193    7.179264
  H      2.238102   -2.371984    7.414595
  H      0.959148   -3.367396    7.951611
  H      2.519001   -3.570511    8.714556

 Total Charge           Charge          ....    0
 Multiplicity           Mult            ....    1
 Number of Electrons    NEL             ....   18
 Basis Dimension        Dim             ....   86

ORBITAL ENERGIES
----------------

  NO   OCC          E(Eh)            E(eV)
   0   2.0000     -19.226644      -523.1836
   1   2.0000     -10.310051      -280.5508
   2   2.0000      -1.127414       -30.6785
   3   2.0000      -0.800416       -21.7804
   4   2.0000      -0.611148       -16.6302
   5   2.0000      -0.542922       -14.7737
   6   2.0000      -0.527253       -14.3473
   7   2.0000      -0.432068       -11.7572
   8   2.0000      -0.366931        -9.9847
   9   0.0000       0.114801         3.1239
  10   0.0000       0.155019         4.2183
  11   0.0000       0.201927         5.4947
  12   0.0000       0.209178         5.6920
  13   0.0000       0.229000         6.2314

MULLIKEN ATOMIC CHARGES
-----------------------
   0 C :   -0.149439
   1 O :   -0.491785
   2 H :    0.318059
   3 H :    0.123510
   4 H :    0.092903
   5 H :    0.106752
Sum of atomic charges:    0.0000000

LOEWDIN ATOMIC CHARGES
----------------------
   0 C :   -0.369536
   1 O :   -0.091675
   2 H :    0.171916
   3 H :    0.100207
   4 H :    0.100438
   5 H :    0.088650

  Mayer bond orders larger than 0.1
B(  0-C ,  1-O ) :   0.9973 B(  0-C ,  3-H ) :   0.9732 B(  0-C ,  4-H ) :   0.9796
B(  0-C ,  5-H ) :   0.9803 B(  1-O ,  2-H ) :   0.8936

Dispersion correction           -0.000247209
FINAL SINGLE POINT ENERGY      -115.731760806189

DIPOLE MOMENT
-------------
                                X             Y             Z
Electronic contribution:      0.61666      -1.07249      -1.27686
Nuclear contribution   :     -0.67533       0.90868       1.92744
                        -----------------------------------------
Total Dipole Moment    :     -0.05867      -0.16382       0.65058
                        -----------------------------------------
Magnitude (a.u.)       :      0.67345
Magnitude (Debye)      :      1.71176

Rotational constants in cm-1:     4.420969     0.822817     0.790875
Rotational constants in MHz : 132537.309767 24667.432940 23709.841661

                             ****ORCA TERMINATED NORMALLY****
TOTAL RUN TIME: 0 days 0 hours 0 minutes 40 seconds 610 msec
