                         Program Version 4.1.2  - RELEASE  -
|  1> #Run DFT-D3 single point of the dimer
|  2> ! wB97X-D3 def2-TZVP TIGHTSCF CHELPG PMODEL PAL8
|  3>
|  4> %base "6-63_DFT_AB"
|  5>
|  6> %scf
|  7> MaxIter 1000
|  8> end
|  9>
| 10> * xyz 0 1
| 11>   C                      -6.106169            -7.139025            5.478536
| 12>   O                      -7.250673            -6.358448            5.904261
| 13>   H                      -7.580413            -5.854131            5.158850
| 14>   H                      -5.225424            -6.537199            5.228452
| 15>   H                      -5.853161            -7.888103            6.266709
| 16>   H                      -6.381485            -7.683977            4.536477
| 17>   C                      -6.277586            -3.248723            6.221000
| 18>   O                      -5.633899            -2.013613            6.589394
| 19>   H                      -6.186890            -1.459036            7.078224
| 20>   H                      -6.480526            -3.868023            7.135556
| 21>   H                      -7.232240            -3.037605            5.720551
| 22>   H                      -5.778841            -3.922882            5.452595
| 23> *
| 24>
| 25> #Run DFT-D3 single point of the molecule with dimer basis set
| 26> $new_job
| 27> %base "6-63_DFT_A"
| 28> ! wB97X-D3 def2-TZVP TIGHTSCF CHELPG PMODEL
| 29>
| 30> %scf
| 31> MaxIter 1000
| 32> end
| 33>
| 34> * xyz 0 1
| 35>   C                      -6.106169            -7.139025            5.478536
| 36>   O                      -7.250673            -6.358448            5.904261
| 37>   H                      -7.580413            -5.854131            5.158850
| 38>   H                      -5.225424            -6.537199            5.228452
| 39>   H                      -5.853161            -7.888103            6.266709
| 40>   H                      -6.381485            -7.683977            4.536477
| 41>   C                    : -6.277586            -3.248723            6.221000
| 42>   O                    : -5.633899            -2.013613            6.589394
| 43>   H                    : -6.186890            -1.459036            7.078224
| 44>   H                    : -6.480526            -3.868023            7.135556
| 45>   H                    : -7.232240            -3.037605            5.720551
| 46>   H                    : -5.778841            -3.922882            5.452595
| 47> *
| 48>
| 49> #Run DFT-D3 single point of the particle with dimer basis set
| 50> $new_job
| 51> %base "6-63_DFT_B"
| 52> ! wB97X-D3 def2-TZVP TIGHTSCF CHELPG PMODEL
| 53>
| 54> %scf
| 55> MaxIter 1000
| 56> end
| 57>
| 58> * xyz 0 1
| 59>   C                    : -6.106169            -7.139025            5.478536
| 60>   O                    : -7.250673            -6.358448            5.904261
| 61>   H                    : -7.580413            -5.854131            5.158850
| 62>   H                    : -5.225424            -6.537199            5.228452
| 63>   H                    : -5.853161            -7.888103            6.266709
| 64>   H                    : -6.381485            -7.683977            4.536477
| 65>   C                      -6.277586            -3.248723            6.221000
| 66>   O                      -5.633899            -2.013613            6.589394
| 67>   H                      -6.186890            -1.459036            7.078224
| 68>   H                      -6.480526            -3.868023            7.135556
| 69>   H                      -7.232240            -3.037605            5.720551
| 70>   H                      -5.778841            -3.922882            5.452595
| 71> *
| 72>
| 73>                          ****END OF INPUT****
 Total Charge           Charge          ....    0
 Multiplicity           Mult            ....    1
 Number of Electrons    NEL             ....   36
Dispersion correction           -0.001939946
FINAL SINGLE POINT ENERGY      -231.464352213766
Dispersion correction           -0.000261243
FINAL SINGLE POINT ENERGY      -115.735279334758

CARTESIAN COORDINATES (ANGSTROEM)
---------------------------------
  C     -6.106169   -7.139025    5.478536
  O     -7.250673   -6.358448    5.904261
  H     -7.580413   -5.854131    5.158850
  H     -5.225424   -6.537199    5.228452
  H     -5.853161   -7.888103    6.266709
  H     -6.381485   -7.683977    4.536477
  C     -6.277586   -3.248723    6.221000
  O     -5.633899   -2.013613    6.589394
  H     -6.186890   -1.459036    7.078224
  H     -6.480526   -3.868023    7.135556
  H     -7.232240   -3.037605    5.720551
  H     -5.778841   -3.922882    5.452595

 Multiplicity           Mult            ....    1
 Number of Electrons    NEL             ....   18
 Basis Dimension        Dim             ....  172

ORBITAL ENERGIES
----------------

  NO   OCC          E(Eh)            E(eV)
   0   2.0000     -19.226796      -523.1877
   1   2.0000     -10.325678      -280.9760
   2   2.0000      -1.133859       -30.8539
   3   2.0000      -0.797365       -21.6974
   4   2.0000      -0.611023       -16.6268
   5   2.0000      -0.538482       -14.6528
   6   2.0000      -0.524600       -14.2751
   7   2.0000      -0.423519       -11.5245
   8   2.0000      -0.375684       -10.2229
   9   0.0000       0.081544         2.2189
  10   0.0000       0.120294         3.2734
  11   0.0000       0.145476         3.9586
  12   0.0000       0.173283         4.7153
  13   0.0000       0.178657         4.8615

MULLIKEN ATOMIC CHARGES
-----------------------
   0 C :   -0.000667
   1 O :   -0.000046
   2 H :   -0.000133
   3 H :   -0.000341
   4 H :    0.000011
   5 H :   -0.000042
   6 C :   -0.175926
   7 O :   -0.478036
   8 H :    0.312166
   9 H :    0.106410
  10 H :    0.106827
  11 H :    0.129776
Sum of atomic charges:   -0.0000000

LOEWDIN ATOMIC CHARGES
----------------------
   0 C :   -0.003005
   1 O :   -0.002732
   2 H :   -0.001838
   3 H :   -0.001656
   4 H :   -0.000030
   5 H :   -0.000022
   6 C :   -0.373278
   7 O :   -0.078516
   8 H :    0.142139
   9 H :    0.101758
  10 H :    0.096393
  11 H :    0.120787

  Mayer bond orders larger than 0.1
B(  6-C ,  7-O ) :   0.9904 B(  6-C ,  9-H ) :   0.9754 B(  6-C , 10-H ) :   0.9761
B(  6-C , 11-H ) :   0.9668 B(  7-O ,  8-H ) :   0.9026

Dispersion correction           -0.000274703
FINAL SINGLE POINT ENERGY      -115.727742141391

DIPOLE MOMENT
-------------
                                X             Y             Z
Electronic contribution:      1.01644       1.57788       0.42168
Nuclear contribution   :     -1.66705      -1.72539      -0.27533
                        -----------------------------------------
Total Dipole Moment    :     -0.65061      -0.14751       0.14635
                        -----------------------------------------
Magnitude (a.u.)       :      0.68298
Magnitude (Debye)      :      1.73601

Rotational constants in cm-1:     4.389253     0.784803     0.766069
Rotational constants in MHz : 131586.505529 23527.789013 22966.160999

                             ****ORCA TERMINATED NORMALLY****
TOTAL RUN TIME: 0 days 0 hours 0 minutes 54 seconds 816 msec
