                         Program Version 4.1.2  - RELEASE  -
|  1> #Run DFT-D3 single point of the dimer
|  2> ! wB97X-D3 def2-TZVP TIGHTSCF CHELPG PMODEL PAL8
|  3>
|  4> %base "6-83_DFT_AB"
|  5>
|  6> %scf
|  7> MaxIter 1000
|  8> end
|  9>
| 10> * xyz 0 1
| 11>   C                      -4.592135            -8.778354            -4.672863
| 12>   O                      -4.996036            -7.685713            -3.782804
| 13>   H                      -4.696775            -7.821721            -2.928204
| 14>   H                      -3.534098            -9.010149            -4.638917
| 15>   H                      -5.112055            -9.688766            -4.343416
| 16>   H                      -4.938609            -8.647915            -5.698391
| 17>   C                      -3.724706            -3.539969            -0.684343
| 18>   O                      -4.811907            -3.867002            -1.552285
| 19>   H                      -5.140295            -3.032049            -1.928228
| 20>   H                      -3.151461            -4.402956            -0.364138
| 21>   H                      -3.067801            -2.758398            -1.100880
| 22>   H                      -4.061478            -3.141803            0.297262
| 23> *
| 24>
| 25> #Run DFT-D3 single point of the molecule with dimer basis set
| 26> $new_job
| 27> %base "6-83_DFT_A"
| 28> ! wB97X-D3 def2-TZVP TIGHTSCF CHELPG PMODEL
| 29>
| 30> %scf
| 31> MaxIter 1000
| 32> end
| 33>
| 34> * xyz 0 1
| 35>   C                      -4.592135            -8.778354            -4.672863
| 36>   O                      -4.996036            -7.685713            -3.782804
| 37>   H                      -4.696775            -7.821721            -2.928204
| 38>   H                      -3.534098            -9.010149            -4.638917
| 39>   H                      -5.112055            -9.688766            -4.343416
| 40>   H                      -4.938609            -8.647915            -5.698391
| 41>   C                    : -3.724706            -3.539969            -0.684343
| 42>   O                    : -4.811907            -3.867002            -1.552285
| 43>   H                    : -5.140295            -3.032049            -1.928228
| 44>   H                    : -3.151461            -4.402956            -0.364138
| 45>   H                    : -3.067801            -2.758398            -1.100880
| 46>   H                    : -4.061478            -3.141803            0.297262
| 47> *
| 48>
| 49> #Run DFT-D3 single point of the particle with dimer basis set
| 50> $new_job
| 51> %base "6-83_DFT_B"
| 52> ! wB97X-D3 def2-TZVP TIGHTSCF CHELPG PMODEL
| 53>
| 54> %scf
| 55> MaxIter 1000
| 56> end
| 57>
| 58> * xyz 0 1
| 59>   C                    : -4.592135            -8.778354            -4.672863
| 60>   O                    : -4.996036            -7.685713            -3.782804
| 61>   H                    : -4.696775            -7.821721            -2.928204
| 62>   H                    : -3.534098            -9.010149            -4.638917
| 63>   H                    : -5.112055            -9.688766            -4.343416
| 64>   H                    : -4.938609            -8.647915            -5.698391
| 65>   C                      -3.724706            -3.539969            -0.684343
| 66>   O                      -4.811907            -3.867002            -1.552285
| 67>   H                      -5.140295            -3.032049            -1.928228
| 68>   H                      -3.151461            -4.402956            -0.364138
| 69>   H                      -3.067801            -2.758398            -1.100880
| 70>   H                      -4.061478            -3.141803            0.297262
| 71> *
| 72>
| 73>                          ****END OF INPUT****
 Total Charge           Charge          ....    0
 Multiplicity           Mult            ....    1
 Number of Electrons    NEL             ....   36
Dispersion correction           -0.000701862
FINAL SINGLE POINT ENERGY      -231.463792952361
Dispersion correction           -0.000267042
FINAL SINGLE POINT ENERGY      -115.730370727136

CARTESIAN COORDINATES (ANGSTROEM)
---------------------------------
  C     -4.592135   -8.778354   -4.672863
  O     -4.996036   -7.685713   -3.782804
  H     -4.696775   -7.821721   -2.928204
  H     -3.534098   -9.010149   -4.638917
  H     -5.112055   -9.688766   -4.343416
  H     -4.938609   -8.647915   -5.698391
  C     -3.724706   -3.539969   -0.684343
  O     -4.811907   -3.867002   -1.552285
  H     -5.140295   -3.032049   -1.928228
  H     -3.151461   -4.402956   -0.364138
  H     -3.067801   -2.758398   -1.100880
  H     -4.061478   -3.141803    0.297262

 Multiplicity           Mult            ....    1
 Number of Electrons    NEL             ....   18
 Basis Dimension        Dim             ....  172

ORBITAL ENERGIES
----------------

  NO   OCC          E(Eh)            E(eV)
   0   2.0000     -19.234286      -523.3915
   1   2.0000     -10.316726      -280.7324
   2   2.0000      -1.130788       -30.7703
   3   2.0000      -0.795559       -21.6483
   4   2.0000      -0.608346       -16.5539
   5   2.0000      -0.537671       -14.6308
   6   2.0000      -0.524281       -14.2664
   7   2.0000      -0.438176       -11.9234
   8   2.0000      -0.372279       -10.1302
   9   0.0000       0.092819         2.5257
  10   0.0000       0.113102         3.0777
  11   0.0000       0.150364         4.0916
  12   0.0000       0.169299         4.6069
  13   0.0000       0.202100         5.4994

MULLIKEN ATOMIC CHARGES
-----------------------
   0 C :   -0.000009
   1 O :   -0.000091
   2 H :   -0.000363
   3 H :   -0.000002
   4 H :    0.000000
   5 H :    0.000003
   6 C :   -0.174627
   7 O :   -0.472130
   8 H :    0.317876
   9 H :    0.125281
  10 H :    0.108548
  11 H :    0.095514
Sum of atomic charges:   -0.0000000

LOEWDIN ATOMIC CHARGES
----------------------
   0 C :   -0.000006
   1 O :   -0.000101
   2 H :   -0.000206
   3 H :   -0.000000
   4 H :   -0.000000
   5 H :   -0.000000
   6 C :   -0.383737
   7 O :   -0.092136
   8 H :    0.177287
   9 H :    0.106158
  10 H :    0.097181
  11 H :    0.095562

  Mayer bond orders larger than 0.1
B(  6-C ,  7-O ) :   1.0020 B(  6-C ,  9-H ) :   0.9735 B(  6-C , 10-H ) :   0.9777
B(  6-C , 11-H ) :   0.9734 B(  7-O ,  8-H ) :   0.8963

Dispersion correction           -0.000259091
FINAL SINGLE POINT ENERGY      -115.733885107912

DIPOLE MOMENT
-------------
                                X             Y             Z
Electronic contribution:     -1.36677      -0.63694      -1.20965
Nuclear contribution   :      1.60109       1.28631       1.32596
                        -----------------------------------------
Total Dipole Moment    :      0.23432       0.64937       0.11631
                        -----------------------------------------
Magnitude (a.u.)       :      0.70008
Magnitude (Debye)      :      1.77947

Rotational constants in cm-1:     4.336251     0.810221     0.776064
Rotational constants in MHz : 129997.531286 24289.812512 23265.820702

                             ****ORCA TERMINATED NORMALLY****
TOTAL RUN TIME: 0 days 0 hours 1 minutes 2 seconds 705 msec
