                         Program Version 4.1.2  - RELEASE  -
|  1> #Run DFT-D3 single point of the dimer
|  2> ! wB97X-D3 def2-TZVP TIGHTSCF CHELPG PMODEL PAL8
|  3>
|  4> %base "6-119_DFT_AB"
|  5>
|  6> %scf
|  7> MaxIter 1000
|  8> end
|  9>
| 10> * xyz 0 1
| 11>   C                      -7.903951            10.391294            -0.645344
| 12>   O                      -6.630779            9.995265             -1.139586
| 13>   H                      -6.397841            9.364542             -0.501918
| 14>   H                      -7.977249            11.437374            -0.268366
| 15>   H                      -8.700423            10.319650            -1.505425
| 16>   H                      -8.252996            9.818288             0.190959
| 17>   C                      -6.544571            9.089834             -5.773615
| 18>   O                      -5.919031            10.156145            -5.142529
| 19>   H                      -6.002642            9.975476             -4.176577
| 20>   H                      -7.467468            9.348802             -6.263411
| 21>   H                      -5.838317            8.621592             -6.419914
| 22>   H                      -6.835641            8.307691             -5.054093
| 23> *
| 24>
| 25> #Run DFT-D3 single point of the molecule with dimer basis set
| 26> $new_job
| 27> %base "6-119_DFT_A"
| 28> ! wB97X-D3 def2-TZVP TIGHTSCF CHELPG PMODEL
| 29>
| 30> %scf
| 31> MaxIter 1000
| 32> end
| 33>
| 34> * xyz 0 1
| 35>   C                      -7.903951            10.391294            -0.645344
| 36>   O                      -6.630779            9.995265             -1.139586
| 37>   H                      -6.397841            9.364542             -0.501918
| 38>   H                      -7.977249            11.437374            -0.268366
| 39>   H                      -8.700423            10.319650            -1.505425
| 40>   H                      -8.252996            9.818288             0.190959
| 41>   C                    : -6.544571            9.089834             -5.773615
| 42>   O                    : -5.919031            10.156145            -5.142529
| 43>   H                    : -6.002642            9.975476             -4.176577
| 44>   H                    : -7.467468            9.348802             -6.263411
| 45>   H                    : -5.838317            8.621592             -6.419914
| 46>   H                    : -6.835641            8.307691             -5.054093
| 47> *
| 48>
| 49> #Run DFT-D3 single point of the particle with dimer basis set
| 50> $new_job
| 51> %base "6-119_DFT_B"
| 52> ! wB97X-D3 def2-TZVP TIGHTSCF CHELPG PMODEL
| 53>
| 54> %scf
| 55> MaxIter 1000
| 56> end
| 57>
| 58> * xyz 0 1
| 59>   C                    : -7.903951            10.391294            -0.645344
| 60>   O                    : -6.630779            9.995265             -1.139586
| 61>   H                    : -6.397841            9.364542             -0.501918
| 62>   H                    : -7.977249            11.437374            -0.268366
| 63>   H                    : -8.700423            10.319650            -1.505425
| 64>   H                    : -8.252996            9.818288             0.190959
| 65>   C                      -6.544571            9.089834             -5.773615
| 66>   O                      -5.919031            10.156145            -5.142529
| 67>   H                      -6.002642            9.975476             -4.176577
| 68>   H                      -7.467468            9.348802             -6.263411
| 69>   H                      -5.838317            8.621592             -6.419914
| 70>   H                      -6.835641            8.307691             -5.054093
| 71> *
| 72>
| 73>                          ****END OF INPUT****
 Total Charge           Charge          ....    0
 Multiplicity           Mult            ....    1
 Number of Electrons    NEL             ....   36
Dispersion correction           -0.001009471
FINAL SINGLE POINT ENERGY      -231.462347710578
Dispersion correction           -0.000260444
FINAL SINGLE POINT ENERGY      -115.727301023768

CARTESIAN COORDINATES (ANGSTROEM)
---------------------------------
  C     -7.903951   10.391294   -0.645344
  O     -6.630779    9.995265   -1.139586
  H     -6.397841    9.364542   -0.501918
  H     -7.977249   11.437374   -0.268366
  H     -8.700423   10.319650   -1.505425
  H     -8.252996    9.818288    0.190959
  C     -6.544571    9.089834   -5.773615
  O     -5.919031   10.156145   -5.142529
  H     -6.002642    9.975476   -4.176577
  H     -7.467468    9.348802   -6.263411
  H     -5.838317    8.621592   -6.419914
  H     -6.835641    8.307691   -5.054093

 Multiplicity           Mult            ....    1
 Number of Electrons    NEL             ....   18
 Basis Dimension        Dim             ....  172

ORBITAL ENERGIES
----------------

  NO   OCC          E(Eh)            E(eV)
   0   2.0000     -19.231434      -523.3139
   1   2.0000     -10.305749      -280.4337
   2   2.0000      -1.140977       -31.0476
   3   2.0000      -0.793386       -21.5891
   4   2.0000      -0.614695       -16.7267
   5   2.0000      -0.552586       -15.0366
   6   2.0000      -0.525683       -14.3046
   7   2.0000      -0.428826       -11.6690
   8   2.0000      -0.374112       -10.1801
   9   0.0000       0.070527         1.9191
  10   0.0000       0.115404         3.1403
  11   0.0000       0.153421         4.1748
  12   0.0000       0.165765         4.5107
  13   0.0000       0.196234         5.3398

MULLIKEN ATOMIC CHARGES
-----------------------
   0 C :   -0.000216
   1 O :   -0.000136
   2 H :   -0.000011
   3 H :    0.000011
   4 H :   -0.000107
   5 H :   -0.000011
   6 C :   -0.164671
   7 O :   -0.468959
   8 H :    0.321125
   9 H :    0.105081
  10 H :    0.112130
  11 H :    0.095766
Sum of atomic charges:   -0.0000000

LOEWDIN ATOMIC CHARGES
----------------------
   0 C :   -0.000271
   1 O :   -0.000771
   2 H :   -0.000050
   3 H :   -0.000002
   4 H :   -0.000080
   5 H :   -0.000008
   6 C :   -0.404973
   7 O :   -0.070374
   8 H :    0.189283
   9 H :    0.093891
  10 H :    0.096011
  11 H :    0.097344

  Mayer bond orders larger than 0.1
B(  6-C ,  7-O ) :   1.0120 B(  6-C ,  9-H ) :   0.9699 B(  6-C , 10-H ) :   0.9783
B(  6-C , 11-H ) :   0.9917 B(  7-O ,  8-H ) :   0.8978

Dispersion correction           -0.000228061
FINAL SINGLE POINT ENERGY      -115.731890243518

DIPOLE MOMENT
-------------
                                X             Y             Z
Electronic contribution:      0.85097       1.54188       0.60418
Nuclear contribution   :     -1.13944      -2.07683      -0.21027
                        -----------------------------------------
Total Dipole Moment    :     -0.28848      -0.53495       0.39392
                        -----------------------------------------
Magnitude (a.u.)       :      0.72427
Magnitude (Debye)      :      1.84094

Rotational constants in cm-1:     4.319071     0.858739     0.829785
Rotational constants in MHz : 129482.488194 25744.344235 24876.321393

                             ****ORCA TERMINATED NORMALLY****
TOTAL RUN TIME: 0 days 0 hours 0 minutes 58 seconds 53 msec
