                         Program Version 4.1.2  - RELEASE  -
|  1> #Run DFT-D3 single point of the dimer
|  2> ! wB97X-D3 def2-TZVP TIGHTSCF CHELPG PMODEL PAL8
|  3>
|  4> %base "13-31_DFT_AB"
|  5>
|  6> %scf
|  7> MaxIter 1000
|  8> end
|  9>
| 10> * xyz 0 1
| 11>   C                      0.693580             10.738664            9.003647
| 12>   O                      -0.631449            10.218537            8.833525
| 13>   H                      -0.875626            10.477739            7.931465
| 14>   H                      0.926423             11.509323            8.158757
| 15>   H                      0.794173             11.306749            9.896924
| 16>   H                      1.519966             9.978133             8.991568
| 17>   C                      -2.669499            7.020750             9.637858
| 18>   O                      -1.999993            6.537438             10.806009
| 19>   H                      -1.723550            7.340090             11.326019
| 20>   H                      -3.078650            6.164774             9.039499
| 21>   H                      -3.561585            7.594151             9.931221
| 22>   H                      -2.019952            7.725249             9.114997
| 23> *
| 24>
| 25> #Run DFT-D3 single point of the molecule with dimer basis set
| 26> $new_job
| 27> %base "13-31_DFT_A"
| 28> ! wB97X-D3 def2-TZVP TIGHTSCF CHELPG PMODEL
| 29>
| 30> %scf
| 31> MaxIter 1000
| 32> end
| 33>
| 34> * xyz 0 1
| 35>   C                      0.693580             10.738664            9.003647
| 36>   O                      -0.631449            10.218537            8.833525
| 37>   H                      -0.875626            10.477739            7.931465
| 38>   H                      0.926423             11.509323            8.158757
| 39>   H                      0.794173             11.306749            9.896924
| 40>   H                      1.519966             9.978133             8.991568
| 41>   C                    : -2.669499            7.020750             9.637858
| 42>   O                    : -1.999993            6.537438             10.806009
| 43>   H                    : -1.723550            7.340090             11.326019
| 44>   H                    : -3.078650            6.164774             9.039499
| 45>   H                    : -3.561585            7.594151             9.931221
| 46>   H                    : -2.019952            7.725249             9.114997
| 47> *
| 48>
| 49> #Run DFT-D3 single point of the particle with dimer basis set
| 50> $new_job
| 51> %base "13-31_DFT_B"
| 52> ! wB97X-D3 def2-TZVP TIGHTSCF CHELPG PMODEL
| 53>
| 54> %scf
| 55> MaxIter 1000
| 56> end
| 57>
| 58> * xyz 0 1
| 59>   C                    : 0.693580             10.738664            9.003647
| 60>   O                    : -0.631449            10.218537            8.833525
| 61>   H                    : -0.875626            10.477739            7.931465
| 62>   H                    : 0.926423             11.509323            8.158757
| 63>   H                    : 0.794173             11.306749            9.896924
| 64>   H                    : 1.519966             9.978133             8.991568
| 65>   C                      -2.669499            7.020750             9.637858
| 66>   O                      -1.999993            6.537438             10.806009
| 67>   H                      -1.723550            7.340090             11.326019
| 68>   H                      -3.078650            6.164774             9.039499
| 69>   H                      -3.561585            7.594151             9.931221
| 70>   H                      -2.019952            7.725249             9.114997
| 71> *
| 72>
| 73>                          ****END OF INPUT****
 Total Charge           Charge          ....    0
 Multiplicity           Mult            ....    1
 Number of Electrons    NEL             ....   36
Dispersion correction           -0.001171248
FINAL SINGLE POINT ENERGY      -231.464962396217
Dispersion correction           -0.000268285
FINAL SINGLE POINT ENERGY      -115.730062966159

CARTESIAN COORDINATES (ANGSTROEM)
---------------------------------
  C      0.693580   10.738664    9.003647
  O     -0.631449   10.218537    8.833525
  H     -0.875626   10.477739    7.931465
  H      0.926423   11.509323    8.158757
  H      0.794173   11.306749    9.896924
  H      1.519966    9.978133    8.991568
  C     -2.669499    7.020750    9.637858
  O     -1.999993    6.537438   10.806009
  H     -1.723550    7.340090   11.326019
  H     -3.078650    6.164774    9.039499
  H     -3.561585    7.594151    9.931221
  H     -2.019952    7.725249    9.114997

 Multiplicity           Mult            ....    1
 Number of Electrons    NEL             ....   18
 Basis Dimension        Dim             ....  172

ORBITAL ENERGIES
----------------

  NO   OCC          E(Eh)            E(eV)
   0   2.0000     -19.231610      -523.3187
   1   2.0000     -10.317614      -280.7566
   2   2.0000      -1.124906       -30.6102
   3   2.0000      -0.789045       -21.4710
   4   2.0000      -0.603867       -16.4321
   5   2.0000      -0.541699       -14.7404
   6   2.0000      -0.519118       -14.1259
   7   2.0000      -0.435525       -11.8512
   8   2.0000      -0.369856       -10.0643
   9   0.0000       0.077149         2.0993
  10   0.0000       0.112938         3.0732
  11   0.0000       0.144689         3.9372
  12   0.0000       0.169935         4.6242
  13   0.0000       0.188600         5.1321

MULLIKEN ATOMIC CHARGES
-----------------------
   0 C :    0.000201
   1 O :    0.000046
   2 H :   -0.000245
   3 H :    0.000004
   4 H :   -0.000020
   5 H :   -0.000018
   6 C :   -0.172271
   7 O :   -0.478841
   8 H :    0.315802
   9 H :    0.125562
  10 H :    0.103353
  11 H :    0.106426
Sum of atomic charges:   -0.0000000

LOEWDIN ATOMIC CHARGES
----------------------
   0 C :   -0.000183
   1 O :   -0.001864
   2 H :   -0.000486
   3 H :   -0.000002
   4 H :   -0.000007
   5 H :   -0.000011
   6 C :   -0.381871
   7 O :   -0.108761
   8 H :    0.187951
   9 H :    0.116015
  10 H :    0.094721
  11 H :    0.094500

  Mayer bond orders larger than 0.1
B(  6-C ,  7-O ) :   0.9916 B(  6-C ,  9-H ) :   0.9692 B(  6-C , 10-H ) :   0.9771
B(  6-C , 11-H ) :   0.9767 B(  7-O ,  8-H ) :   0.8946

Dispersion correction           -0.000235708
FINAL SINGLE POINT ENERGY      -115.732555789582

DIPOLE MOMENT
-------------
                                X             Y             Z
Electronic contribution:      0.89299      -0.81914       1.33383
Nuclear contribution   :     -1.00836       1.50962      -1.47505
                        -----------------------------------------
Total Dipole Moment    :     -0.11537       0.69048      -0.14122
                        -----------------------------------------
Magnitude (a.u.)       :      0.71416
Magnitude (Debye)      :      1.81524

Rotational constants in cm-1:     4.114206     0.822520     0.782573
Rotational constants in MHz : 123340.792184 24658.525348 23460.951098

                             ****ORCA TERMINATED NORMALLY****
TOTAL RUN TIME: 0 days 0 hours 1 minutes 10 seconds 12 msec
