                         Program Version 4.1.2  - RELEASE  -
|  1> #Run DFT-D3 single point of the dimer
|  2> ! wB97X-D3 def2-TZVP TIGHTSCF CHELPG PMODEL PAL8
|  3>
|  4> %base "16-45_DFT_AB"
|  5>
|  6> %scf
|  7> MaxIter 1000
|  8> end
|  9>
| 10> * xyz 0 1
| 11>   C                      3.918612             -5.045741            2.896027
| 12>   O                      4.275113             -3.748419            2.773380
| 13>   H                      5.177996             -3.619790            2.820687
| 14>   H                      3.911424             -5.560728            1.980114
| 15>   H                      4.669848             -5.508734            3.468600
| 16>   H                      2.869578             -5.280809            3.312576
| 17>   C                      2.189674             -1.010247            4.700833
| 18>   O                      1.194320             -0.027531            4.920133
| 19>   H                      0.505740             -0.402246            5.447141
| 20>   H                      2.137842             -1.454078            3.693112
| 21>   H                      3.265044             -0.626373            4.644516
| 22>   H                      2.152488             -1.850272            5.418308
| 23> *
| 24>
| 25> #Run DFT-D3 single point of the molecule with dimer basis set
| 26> $new_job
| 27> %base "16-45_DFT_A"
| 28> ! wB97X-D3 def2-TZVP TIGHTSCF CHELPG PMODEL
| 29>
| 30> %scf
| 31> MaxIter 1000
| 32> end
| 33>
| 34> * xyz 0 1
| 35>   C                      3.918612             -5.045741            2.896027
| 36>   O                      4.275113             -3.748419            2.773380
| 37>   H                      5.177996             -3.619790            2.820687
| 38>   H                      3.911424             -5.560728            1.980114
| 39>   H                      4.669848             -5.508734            3.468600
| 40>   H                      2.869578             -5.280809            3.312576
| 41>   C                    : 2.189674             -1.010247            4.700833
| 42>   O                    : 1.194320             -0.027531            4.920133
| 43>   H                    : 0.505740             -0.402246            5.447141
| 44>   H                    : 2.137842             -1.454078            3.693112
| 45>   H                    : 3.265044             -0.626373            4.644516
| 46>   H                    : 2.152488             -1.850272            5.418308
| 47> *
| 48>
| 49> #Run DFT-D3 single point of the particle with dimer basis set
| 50> $new_job
| 51> %base "16-45_DFT_B"
| 52> ! wB97X-D3 def2-TZVP TIGHTSCF CHELPG PMODEL
| 53>
| 54> %scf
| 55> MaxIter 1000
| 56> end
| 57>
| 58> * xyz 0 1
| 59>   C                    : 3.918612             -5.045741            2.896027
| 60>   O                    : 4.275113             -3.748419            2.773380
| 61>   H                    : 5.177996             -3.619790            2.820687
| 62>   H                    : 3.911424             -5.560728            1.980114
| 63>   H                    : 4.669848             -5.508734            3.468600
| 64>   H                    : 2.869578             -5.280809            3.312576
| 65>   C                      2.189674             -1.010247            4.700833
| 66>   O                      1.194320             -0.027531            4.920133
| 67>   H                      0.505740             -0.402246            5.447141
| 68>   H                      2.137842             -1.454078            3.693112
| 69>   H                      3.265044             -0.626373            4.644516
| 70>   H                      2.152488             -1.850272            5.418308
| 71> *
| 72>
| 73>                          ****END OF INPUT****
 Total Charge           Charge          ....    0
 Multiplicity           Mult            ....    1
 Number of Electrons    NEL             ....   36
Dispersion correction           -0.001132261
FINAL SINGLE POINT ENERGY      -231.454140511980
Dispersion correction           -0.000218031
FINAL SINGLE POINT ENERGY      -115.722167469481

CARTESIAN COORDINATES (ANGSTROEM)
---------------------------------
  C      3.918612   -5.045741    2.896027
  O      4.275113   -3.748419    2.773380
  H      5.177996   -3.619790    2.820687
  H      3.911424   -5.560728    1.980114
  H      4.669848   -5.508734    3.468600
  H      2.869578   -5.280809    3.312576
  C      2.189674   -1.010247    4.700833
  O      1.194320   -0.027531    4.920133
  H      0.505740   -0.402246    5.447141
  H      2.137842   -1.454078    3.693112
  H      3.265044   -0.626373    4.644516
  H      2.152488   -1.850272    5.418308

 Multiplicity           Mult            ....    1
 Number of Electrons    NEL             ....   18
 Basis Dimension        Dim             ....  172

ORBITAL ENERGIES
----------------

  NO   OCC          E(Eh)            E(eV)
   0   2.0000     -19.233374      -523.3667
   1   2.0000     -10.321382      -280.8591
   2   2.0000      -1.140599       -31.0373
   3   2.0000      -0.794860       -21.6292
   4   2.0000      -0.616541       -16.7769
   5   2.0000      -0.537772       -14.6335
   6   2.0000      -0.522028       -14.2051
   7   2.0000      -0.435904       -11.8615
   8   2.0000      -0.371488       -10.1087
   9   0.0000       0.080129         2.1804
  10   0.0000       0.116301         3.1647
  11   0.0000       0.140148         3.8136
  12   0.0000       0.164379         4.4730
  13   0.0000       0.189679         5.1614

MULLIKEN ATOMIC CHARGES
-----------------------
   0 C :   -0.000192
   1 O :    0.000081
   2 H :   -0.000013
   3 H :    0.000002
   4 H :   -0.000004
   5 H :   -0.000132
   6 C :   -0.177772
   7 O :   -0.464771
   8 H :    0.317830
   9 H :    0.104173
  10 H :    0.112924
  11 H :    0.107874
Sum of atomic charges:   -0.0000000

LOEWDIN ATOMIC CHARGES
----------------------
   0 C :   -0.000361
   1 O :   -0.000573
   2 H :   -0.000044
   3 H :   -0.000005
   4 H :   -0.000006
   5 H :   -0.000089
   6 C :   -0.400030
   7 O :   -0.067497
   8 H :    0.161537
   9 H :    0.096147
  10 H :    0.113320
  11 H :    0.097601

  Mayer bond orders larger than 0.1
B(  6-C ,  7-O ) :   1.0134 B(  6-C ,  9-H ) :   0.9750 B(  6-C , 10-H ) :   0.9719
B(  6-C , 11-H ) :   0.9799 B(  7-O ,  8-H ) :   0.8994

Dispersion correction           -0.000273006
FINAL SINGLE POINT ENERGY      -115.730682379559

DIPOLE MOMENT
-------------
                                X             Y             Z
Electronic contribution:     -1.35166       1.43601       0.33807
Nuclear contribution   :      1.28592      -2.07344      -0.08164
                        -----------------------------------------
Total Dipole Moment    :     -0.06574      -0.63743       0.25643
                        -----------------------------------------
Magnitude (a.u.)       :      0.69021
Magnitude (Debye)      :      1.75437

Rotational constants in cm-1:     4.373359     0.815142     0.777960
Rotational constants in MHz : 131110.002770 24437.356700 23322.650423

                             ****ORCA TERMINATED NORMALLY****
TOTAL RUN TIME: 0 days 0 hours 1 minutes 6 seconds 584 msec
