                         Program Version 4.1.2  - RELEASE  -
|  1> #Run DFT-D3 single point of the dimer
|  2> ! wB97X-D3 def2-TZVP TIGHTSCF CHELPG PMODEL PAL8
|  3>
|  4> %base "4-171_DFT_AB"
|  5>
|  6> %scf
|  7> MaxIter 1000
|  8> end
|  9>
| 10> * xyz 0 1
| 11>   C                      0.569891             -5.382715            -7.010546
| 12>   O                      0.773501             -4.376366            -7.990577
| 13>   H                      0.921267             -3.482390            -7.603652
| 14>   H                      -0.365843            -5.204678            -6.471750
| 15>   H                      0.436550             -6.385259            -7.416811
| 16>   H                      1.339440             -5.489965            -6.216515
| 17>   C                      1.894563             -0.448606            -6.696315
| 18>   O                      1.036595             -1.215132            -5.832134
| 19>   H                      0.100914             -1.153265            -6.088149
| 20>   H                      1.823900             -0.652552            -7.801693
| 21>   H                      1.867213             0.673488             -6.495648
| 22>   H                      2.991278             -0.743414            -6.465432
| 23> *
| 24>
| 25> #Run DFT-D3 single point of the molecule with dimer basis set
| 26> $new_job
| 27> %base "4-171_DFT_A"
| 28> ! wB97X-D3 def2-TZVP TIGHTSCF CHELPG PMODEL
| 29>
| 30> %scf
| 31> MaxIter 1000
| 32> end
| 33>
| 34> * xyz 0 1
| 35>   C                      0.569891             -5.382715            -7.010546
| 36>   O                      0.773501             -4.376366            -7.990577
| 37>   H                      0.921267             -3.482390            -7.603652
| 38>   H                      -0.365843            -5.204678            -6.471750
| 39>   H                      0.436550             -6.385259            -7.416811
| 40>   H                      1.339440             -5.489965            -6.216515
| 41>   C                    : 1.894563             -0.448606            -6.696315
| 42>   O                    : 1.036595             -1.215132            -5.832134
| 43>   H                    : 0.100914             -1.153265            -6.088149
| 44>   H                    : 1.823900             -0.652552            -7.801693
| 45>   H                    : 1.867213             0.673488             -6.495648
| 46>   H                    : 2.991278             -0.743414            -6.465432
| 47> *
| 48>
| 49> #Run DFT-D3 single point of the particle with dimer basis set
| 50> $new_job
| 51> %base "4-171_DFT_B"
| 52> ! wB97X-D3 def2-TZVP TIGHTSCF CHELPG PMODEL
| 53>
| 54> %scf
| 55> MaxIter 1000
| 56> end
| 57>
| 58> * xyz 0 1
| 59>   C                    : 0.569891             -5.382715            -7.010546
| 60>   O                    : 0.773501             -4.376366            -7.990577
| 61>   H                    : 0.921267             -3.482390            -7.603652
| 62>   H                    : -0.365843            -5.204678            -6.471750
| 63>   H                    : 0.436550             -6.385259            -7.416811
| 64>   H                    : 1.339440             -5.489965            -6.216515
| 65>   C                      1.894563             -0.448606            -6.696315
| 66>   O                      1.036595             -1.215132            -5.832134
| 67>   H                      0.100914             -1.153265            -6.088149
| 68>   H                      1.823900             -0.652552            -7.801693
| 69>   H                      1.867213             0.673488             -6.495648
| 70>   H                      2.991278             -0.743414            -6.465432
| 71> *
| 72>
| 73>                          ****END OF INPUT****
 Total Charge           Charge          ....    0
 Multiplicity           Mult            ....    1
 Number of Electrons    NEL             ....   36
Dispersion correction           -0.001479927
FINAL SINGLE POINT ENERGY      -231.465866949545
Dispersion correction           -0.000277115
FINAL SINGLE POINT ENERGY      -115.732580222508

CARTESIAN COORDINATES (ANGSTROEM)
---------------------------------
  C      0.569891   -5.382715   -7.010546
  O      0.773501   -4.376366   -7.990577
  H      0.921267   -3.482390   -7.603652
  H     -0.365843   -5.204678   -6.471750
  H      0.436550   -6.385259   -7.416811
  H      1.339440   -5.489965   -6.216515
  C      1.894563   -0.448606   -6.696315
  O      1.036595   -1.215132   -5.832134
  H      0.100914   -1.153265   -6.088149
  H      1.823900   -0.652552   -7.801693
  H      1.867213    0.673488   -6.495648
  H      2.991278   -0.743414   -6.465432

 Multiplicity           Mult            ....    1
 Number of Electrons    NEL             ....   18
 Basis Dimension        Dim             ....  172

ORBITAL ENERGIES
----------------

  NO   OCC          E(Eh)            E(eV)
   0   2.0000     -19.236616      -523.4549
   1   2.0000     -10.330859      -281.1170
   2   2.0000      -1.126995       -30.6671
   3   2.0000      -0.788911       -21.4673
   4   2.0000      -0.606330       -16.4991
   5   2.0000      -0.533809       -14.5257
   6   2.0000      -0.515143       -14.0177
   7   2.0000      -0.425001       -11.5649
   8   2.0000      -0.378501       -10.2995
   9   0.0000       0.088780         2.4158
  10   0.0000       0.120838         3.2882
  11   0.0000       0.140672         3.8279
  12   0.0000       0.177570         4.8319
  13   0.0000       0.189945         5.1687

MULLIKEN ATOMIC CHARGES
-----------------------
   0 C :    0.000239
   1 O :    0.001054
   2 H :   -0.007067
   3 H :   -0.000275
   4 H :   -0.000098
   5 H :   -0.000190
   6 C :   -0.191087
   7 O :   -0.475450
   8 H :    0.319535
   9 H :    0.116273
  10 H :    0.116595
  11 H :    0.120470
Sum of atomic charges:    0.0000000

LOEWDIN ATOMIC CHARGES
----------------------
   0 C :   -0.000837
   1 O :   -0.000285
   2 H :   -0.006258
   3 H :   -0.000086
   4 H :   -0.000024
   5 H :   -0.000088
   6 C :   -0.395652
   7 O :   -0.093369
   8 H :    0.173217
   9 H :    0.100194
  10 H :    0.103115
  11 H :    0.120071

  Mayer bond orders larger than 0.1
B(  6-C ,  7-O ) :   0.9943 B(  6-C ,  9-H ) :   0.9658 B(  6-C , 10-H ) :   0.9685
B(  6-C , 11-H ) :   0.9737 B(  7-O ,  8-H ) :   0.8922

Dispersion correction           -0.000310530
FINAL SINGLE POINT ENERGY      -115.730177509941

DIPOLE MOMENT
-------------
                                X             Y             Z
Electronic contribution:     -1.19435      -1.02129       1.15964
Nuclear contribution   :      0.94970       1.36397      -1.66670
                        -----------------------------------------
Total Dipole Moment    :     -0.24465       0.34268      -0.50706
                        -----------------------------------------
Magnitude (a.u.)       :      0.65909
Magnitude (Debye)      :      1.67526

Rotational constants in cm-1:     4.151997     0.779544     0.760070
Rotational constants in MHz : 124473.726689 23370.155186 22786.330209

                             ****ORCA TERMINATED NORMALLY****
TOTAL RUN TIME: 0 days 0 hours 1 minutes 34 seconds 243 msec
