                         Program Version 4.1.2  - RELEASE  -
|  1> #Run DFT-D3 single point of the dimer
|  2> ! wB97X-D3 def2-TZVP TIGHTSCF CHELPG PMODEL PAL8
|  3>
|  4> %base "17-92_DFT_AB"
|  5>
|  6> %scf
|  7> MaxIter 1000
|  8> end
|  9>
| 10> * xyz 0 1
| 11>   C                      6.352193             4.195746             -4.190666
| 12>   O                      5.100575             4.500113             -4.616961
| 13>   H                      4.495087             4.304367             -3.860152
| 14>   H                      7.093230             4.700914             -4.815245
| 15>   H                      6.551793             4.589563             -3.174605
| 16>   H                      6.623159             3.143777             -4.209572
| 17>   C                      9.366187             0.624596             -5.339413
| 18>   O                      10.301075            0.533873             -6.427278
| 19>   H                      10.001555            1.286976             -6.961508
| 20>   H                      8.946661             -0.335658            -5.017299
| 21>   H                      9.898062             0.986266             -4.445433
| 22>   H                      8.551581             1.369687             -5.505726
| 23> *
| 24>
| 25> #Run DFT-D3 single point of the molecule with dimer basis set
| 26> $new_job
| 27> %base "17-92_DFT_A"
| 28> ! wB97X-D3 def2-TZVP TIGHTSCF CHELPG PMODEL
| 29>
| 30> %scf
| 31> MaxIter 1000
| 32> end
| 33>
| 34> * xyz 0 1
| 35>   C                      6.352193             4.195746             -4.190666
| 36>   O                      5.100575             4.500113             -4.616961
| 37>   H                      4.495087             4.304367             -3.860152
| 38>   H                      7.093230             4.700914             -4.815245
| 39>   H                      6.551793             4.589563             -3.174605
| 40>   H                      6.623159             3.143777             -4.209572
| 41>   C                    : 9.366187             0.624596             -5.339413
| 42>   O                    : 10.301075            0.533873             -6.427278
| 43>   H                    : 10.001555            1.286976             -6.961508
| 44>   H                    : 8.946661             -0.335658            -5.017299
| 45>   H                    : 9.898062             0.986266             -4.445433
| 46>   H                    : 8.551581             1.369687             -5.505726
| 47> *
| 48>
| 49> #Run DFT-D3 single point of the particle with dimer basis set
| 50> $new_job
| 51> %base "17-92_DFT_B"
| 52> ! wB97X-D3 def2-TZVP TIGHTSCF CHELPG PMODEL
| 53>
| 54> %scf
| 55> MaxIter 1000
| 56> end
| 57>
| 58> * xyz 0 1
| 59>   C                    : 6.352193             4.195746             -4.190666
| 60>   O                    : 5.100575             4.500113             -4.616961
| 61>   H                    : 4.495087             4.304367             -3.860152
| 62>   H                    : 7.093230             4.700914             -4.815245
| 63>   H                    : 6.551793             4.589563             -3.174605
| 64>   H                    : 6.623159             3.143777             -4.209572
| 65>   C                      9.366187             0.624596             -5.339413
| 66>   O                      10.301075            0.533873             -6.427278
| 67>   H                      10.001555            1.286976             -6.961508
| 68>   H                      8.946661             -0.335658            -5.017299
| 69>   H                      9.898062             0.986266             -4.445433
| 70>   H                      8.551581             1.369687             -5.505726
| 71> *
| 72>
| 73>                          ****END OF INPUT****
 Total Charge           Charge          ....    0
 Multiplicity           Mult            ....    1
 Number of Electrons    NEL             ....   36
Dispersion correction           -0.000921015
FINAL SINGLE POINT ENERGY      -231.464631881868
Dispersion correction           -0.000226117
FINAL SINGLE POINT ENERGY      -115.733139076899

CARTESIAN COORDINATES (ANGSTROEM)
---------------------------------
  C      6.352193    4.195746   -4.190666
  O      5.100575    4.500113   -4.616961
  H      4.495087    4.304367   -3.860152
  H      7.093230    4.700914   -4.815245
  H      6.551793    4.589563   -3.174605
  H      6.623159    3.143777   -4.209572
  C      9.366187    0.624596   -5.339413
  O     10.301075    0.533873   -6.427278
  H     10.001555    1.286976   -6.961508
  H      8.946661   -0.335658   -5.017299
  H      9.898062    0.986266   -4.445433
  H      8.551581    1.369687   -5.505726

 Multiplicity           Mult            ....    1
 Number of Electrons    NEL             ....   18
 Basis Dimension        Dim             ....  172

ORBITAL ENERGIES
----------------

  NO   OCC          E(Eh)            E(eV)
   0   2.0000     -19.235644      -523.4285
   1   2.0000     -10.318644      -280.7846
   2   2.0000      -1.133933       -30.8559
   3   2.0000      -0.791258       -21.5312
   4   2.0000      -0.606659       -16.5080
   5   2.0000      -0.532227       -14.4826
   6   2.0000      -0.525281       -14.2936
   7   2.0000      -0.446740       -12.1564
   8   2.0000      -0.372848       -10.1457
   9   0.0000       0.079561         2.1650
  10   0.0000       0.111592         3.0366
  11   0.0000       0.142804         3.8859
  12   0.0000       0.168328         4.5804
  13   0.0000       0.182544         4.9673

MULLIKEN ATOMIC CHARGES
-----------------------
   0 C :    0.000310
   1 O :   -0.000005
   2 H :   -0.000002
   3 H :   -0.000083
   4 H :   -0.000028
   5 H :   -0.000603
   6 C :   -0.187005
   7 O :   -0.457697
   8 H :    0.318121
   9 H :    0.113842
  10 H :    0.107598
  11 H :    0.105552
Sum of atomic charges:   -0.0000000

LOEWDIN ATOMIC CHARGES
----------------------
   0 C :   -0.000561
   1 O :   -0.000006
   2 H :   -0.000000
   3 H :   -0.000058
   4 H :   -0.000003
   5 H :   -0.001206
   6 C :   -0.383677
   7 O :   -0.095751
   8 H :    0.179415
   9 H :    0.101565
  10 H :    0.099152
  11 H :    0.101130

  Mayer bond orders larger than 0.1
B(  6-C ,  7-O ) :   1.0166 B(  6-C ,  9-H ) :   0.9724 B(  6-C , 10-H ) :   0.9779
B(  6-C , 11-H ) :   0.9844 B(  7-O ,  8-H ) :   0.9017

Dispersion correction           -0.000253057
FINAL SINGLE POINT ENERGY      -115.731031522692

DIPOLE MOMENT
-------------
                                X             Y             Z
Electronic contribution:      1.25034      -0.32507      -1.46493
Nuclear contribution   :     -1.79967       0.83233       1.56126
                        -----------------------------------------
Total Dipole Moment    :     -0.54933       0.50726       0.09633
                        -----------------------------------------
Magnitude (a.u.)       :      0.75390
Magnitude (Debye)      :      1.91625

Rotational constants in cm-1:     4.213465     0.814410     0.775574
Rotational constants in MHz : 126316.491951 24415.393893 23251.118498

                             ****ORCA TERMINATED NORMALLY****
TOTAL RUN TIME: 0 days 0 hours 1 minutes 6 seconds 310 msec
