                         Program Version 4.1.2  - RELEASE  -
|  1> #Run DFT-D3 single point of the dimer
|  2> ! wB97X-D3 def2-TZVP TIGHTSCF CHELPG PMODEL PAL8
|  3>
|  4> %base "6-121_DFT_AB"
|  5>
|  6> %scf
|  7> MaxIter 1000
|  8> end
|  9>
| 10> * xyz 0 1
| 11>   C                      -7.903951            10.391294            -0.645344
| 12>   O                      -6.630779            9.995265             -1.139586
| 13>   H                      -6.397841            9.364542             -0.501918
| 14>   H                      -7.977249            11.437374            -0.268366
| 15>   H                      -8.700423            10.319650            -1.505425
| 16>   H                      -8.252996            9.818288             0.190959
| 17>   C                      -6.012224            8.070531             2.004875
| 18>   O                      -6.589310            7.979812             0.750287
| 19>   H                      -7.365943            7.467191             0.869601
| 20>   H                      -6.562652            8.706073             2.776293
| 21>   H                      -5.782534            7.055373             2.420694
| 22>   H                      -5.120311            8.707094             1.929749
| 23> *
| 24>
| 25> #Run DFT-D3 single point of the molecule with dimer basis set
| 26> $new_job
| 27> %base "6-121_DFT_A"
| 28> ! wB97X-D3 def2-TZVP TIGHTSCF CHELPG PMODEL
| 29>
| 30> %scf
| 31> MaxIter 1000
| 32> end
| 33>
| 34> * xyz 0 1
| 35>   C                      -7.903951            10.391294            -0.645344
| 36>   O                      -6.630779            9.995265             -1.139586
| 37>   H                      -6.397841            9.364542             -0.501918
| 38>   H                      -7.977249            11.437374            -0.268366
| 39>   H                      -8.700423            10.319650            -1.505425
| 40>   H                      -8.252996            9.818288             0.190959
| 41>   C                    : -6.012224            8.070531             2.004875
| 42>   O                    : -6.589310            7.979812             0.750287
| 43>   H                    : -7.365943            7.467191             0.869601
| 44>   H                    : -6.562652            8.706073             2.776293
| 45>   H                    : -5.782534            7.055373             2.420694
| 46>   H                    : -5.120311            8.707094             1.929749
| 47> *
| 48>
| 49> #Run DFT-D3 single point of the particle with dimer basis set
| 50> $new_job
| 51> %base "6-121_DFT_B"
| 52> ! wB97X-D3 def2-TZVP TIGHTSCF CHELPG PMODEL
| 53>
| 54> %scf
| 55> MaxIter 1000
| 56> end
| 57>
| 58> * xyz 0 1
| 59>   C                    : -7.903951            10.391294            -0.645344
| 60>   O                    : -6.630779            9.995265             -1.139586
| 61>   H                    : -6.397841            9.364542             -0.501918
| 62>   H                    : -7.977249            11.437374            -0.268366
| 63>   H                    : -8.700423            10.319650            -1.505425
| 64>   H                    : -8.252996            9.818288             0.190959
| 65>   C                      -6.012224            8.070531             2.004875
| 66>   O                      -6.589310            7.979812             0.750287
| 67>   H                      -7.365943            7.467191             0.869601
| 68>   H                      -6.562652            8.706073             2.776293
| 69>   H                      -5.782534            7.055373             2.420694
| 70>   H                      -5.120311            8.707094             1.929749
| 71> *
| 72>
| 73>                          ****END OF INPUT****
 Total Charge           Charge          ....    0
 Multiplicity           Mult            ....    1
 Number of Electrons    NEL             ....   36
Dispersion correction           -0.002071716
FINAL SINGLE POINT ENERGY      -231.466411095118
Dispersion correction           -0.000260444
FINAL SINGLE POINT ENERGY      -115.727544431007

CARTESIAN COORDINATES (ANGSTROEM)
---------------------------------
  C     -7.903951   10.391294   -0.645344
  O     -6.630779    9.995265   -1.139586
  H     -6.397841    9.364542   -0.501918
  H     -7.977249   11.437374   -0.268366
  H     -8.700423   10.319650   -1.505425
  H     -8.252996    9.818288    0.190959
  C     -6.012224    8.070531    2.004875
  O     -6.589310    7.979812    0.750287
  H     -7.365943    7.467191    0.869601
  H     -6.562652    8.706073    2.776293
  H     -5.782534    7.055373    2.420694
  H     -5.120311    8.707094    1.929749

 Multiplicity           Mult            ....    1
 Number of Electrons    NEL             ....   18
 Basis Dimension        Dim             ....  172

ORBITAL ENERGIES
----------------

  NO   OCC          E(Eh)            E(eV)
   0   2.0000     -19.234886      -523.4079
   1   2.0000     -10.319471      -280.8071
   2   2.0000      -1.155590       -31.4452
   3   2.0000      -0.792399       -21.5623
   4   2.0000      -0.617789       -16.8109
   5   2.0000      -0.551854       -15.0167
   6   2.0000      -0.524079       -14.2609
   7   2.0000      -0.432411       -11.7665
   8   2.0000      -0.375430       -10.2160
   9   0.0000       0.097637         2.6568
  10   0.0000       0.131432         3.5764
  11   0.0000       0.151423         4.1204
  12   0.0000       0.179418         4.8822
  13   0.0000       0.195379         5.3165

MULLIKEN ATOMIC CHARGES
-----------------------
   0 C :    0.012456
   1 O :   -0.000857
   2 H :   -0.005443
   3 H :   -0.001059
   4 H :   -0.000476
   5 H :   -0.019420
   6 C :   -0.164776
   7 O :   -0.443497
   8 H :    0.311765
   9 H :    0.092081
  10 H :    0.101124
  11 H :    0.118103
Sum of atomic charges:    0.0000000

LOEWDIN ATOMIC CHARGES
----------------------
   0 C :   -0.013015
   1 O :   -0.007023
   2 H :   -0.043406
   3 H :   -0.000173
   4 H :   -0.000155
   5 H :   -0.009971
   6 C :   -0.419437
   7 O :    0.020755
   8 H :    0.161051
   9 H :    0.099469
  10 H :    0.101043
  11 H :    0.110863

  Mayer bond orders larger than 0.1
B(  6-C ,  7-O ) :   1.0020 B(  6-C ,  9-H ) :   0.9656 B(  6-C , 10-H ) :   0.9731
B(  6-C , 11-H ) :   0.9785 B(  7-O ,  8-H ) :   0.9012

Dispersion correction           -0.000243450
FINAL SINGLE POINT ENERGY      -115.731984121247

DIPOLE MOMENT
-------------
                                X             Y             Z
Electronic contribution:     -0.69073      -0.16723      -1.80166
Nuclear contribution   :      0.43564      -0.11461       2.32254
                        -----------------------------------------
Total Dipole Moment    :     -0.25509      -0.28184       0.52088
                        -----------------------------------------
Magnitude (a.u.)       :      0.64484
Magnitude (Debye)      :      1.63905

Rotational constants in cm-1:     4.220078     0.852324     0.824351
Rotational constants in MHz : 126514.743914 25552.026989 24713.433317

                             ****ORCA TERMINATED NORMALLY****
TOTAL RUN TIME: 0 days 0 hours 1 minutes 6 seconds 109 msec
