                         Program Version 4.1.2  - RELEASE  -
|  1> #Run DFT-D3 single point of the dimer
|  2> ! wB97X-D3 def2-TZVP TIGHTSCF CHELPG PMODEL PAL8
|  3>
|  4> %base "20-131_DFT_AB"
|  5>
|  6> %scf
|  7> MaxIter 1000
|  8> end
|  9>
| 10> * xyz 0 1
| 11>   C                      2.644582             -4.496149            4.921701
| 12>   O                      1.571882             -5.465876            5.016327
| 13>   H                      0.734321             -5.043278            5.354497
| 14>   H                      3.257729             -4.554362            5.857195
| 15>   H                      3.420873             -4.747145            4.172869
| 16>   H                      2.283139             -3.498105            4.678804
| 17>   C                      1.707652             -9.586707            1.253464
| 18>   O                      2.113823             -8.697729            2.235801
| 19>   H                      2.186513             -9.141480            3.106202
| 20>   H                      0.630820             -9.935662            1.490338
| 21>   H                      1.712268             -9.153807            0.292293
| 22>   H                      2.335662             -10.485198           1.058917
| 23> *
| 24>
| 25> #Run DFT-D3 single point of the molecule with dimer basis set
| 26> $new_job
| 27> %base "20-131_DFT_A"
| 28> ! wB97X-D3 def2-TZVP TIGHTSCF CHELPG PMODEL
| 29>
| 30> %scf
| 31> MaxIter 1000
| 32> end
| 33>
| 34> * xyz 0 1
| 35>   C                      2.644582             -4.496149            4.921701
| 36>   O                      1.571882             -5.465876            5.016327
| 37>   H                      0.734321             -5.043278            5.354497
| 38>   H                      3.257729             -4.554362            5.857195
| 39>   H                      3.420873             -4.747145            4.172869
| 40>   H                      2.283139             -3.498105            4.678804
| 41>   C                    : 1.707652             -9.586707            1.253464
| 42>   O                    : 2.113823             -8.697729            2.235801
| 43>   H                    : 2.186513             -9.141480            3.106202
| 44>   H                    : 0.630820             -9.935662            1.490338
| 45>   H                    : 1.712268             -9.153807            0.292293
| 46>   H                    : 2.335662             -10.485198           1.058917
| 47> *
| 48>
| 49> #Run DFT-D3 single point of the particle with dimer basis set
| 50> $new_job
| 51> %base "20-131_DFT_B"
| 52> ! wB97X-D3 def2-TZVP TIGHTSCF CHELPG PMODEL
| 53>
| 54> %scf
| 55> MaxIter 1000
| 56> end
| 57>
| 58> * xyz 0 1
| 59>   C                    : 2.644582             -4.496149            4.921701
| 60>   O                    : 1.571882             -5.465876            5.016327
| 61>   H                    : 0.734321             -5.043278            5.354497
| 62>   H                    : 3.257729             -4.554362            5.857195
| 63>   H                    : 3.420873             -4.747145            4.172869
| 64>   H                    : 2.283139             -3.498105            4.678804
| 65>   C                      1.707652             -9.586707            1.253464
| 66>   O                      2.113823             -8.697729            2.235801
| 67>   H                      2.186513             -9.141480            3.106202
| 68>   H                      0.630820             -9.935662            1.490338
| 69>   H                      1.712268             -9.153807            0.292293
| 70>   H                      2.335662             -10.485198           1.058917
| 71> *
| 72>
| 73>                          ****END OF INPUT****
 Total Charge           Charge          ....    0
 Multiplicity           Mult            ....    1
 Number of Electrons    NEL             ....   36
Dispersion correction           -0.000749201
FINAL SINGLE POINT ENERGY      -231.460068405991
Dispersion correction           -0.000278783
FINAL SINGLE POINT ENERGY      -115.729806319654

CARTESIAN COORDINATES (ANGSTROEM)
---------------------------------
  C      2.644582   -4.496149    4.921701
  O      1.571882   -5.465876    5.016327
  H      0.734321   -5.043278    5.354497
  H      3.257729   -4.554362    5.857195
  H      3.420873   -4.747145    4.172869
  H      2.283139   -3.498105    4.678804
  C      1.707652   -9.586707    1.253464
  O      2.113823   -8.697729    2.235801
  H      2.186513   -9.141480    3.106202
  H      0.630820   -9.935662    1.490338
  H      1.712268   -9.153807    0.292293
  H      2.335662  -10.485198    1.058917

 Multiplicity           Mult            ....    1
 Number of Electrons    NEL             ....   18
 Basis Dimension        Dim             ....  172

ORBITAL ENERGIES
----------------

  NO   OCC          E(Eh)            E(eV)
   0   2.0000     -19.234591      -523.3998
   1   2.0000     -10.315027      -280.6862
   2   2.0000      -1.141348       -31.0577
   3   2.0000      -0.794627       -21.6229
   4   2.0000      -0.613762       -16.7013
   5   2.0000      -0.544753       -14.8235
   6   2.0000      -0.528183       -14.3726
   7   2.0000      -0.426292       -11.6000
   8   2.0000      -0.371467       -10.1081
   9   0.0000       0.091282         2.4839
  10   0.0000       0.114222         3.1081
  11   0.0000       0.150107         4.0846
  12   0.0000       0.168116         4.5747
  13   0.0000       0.198700         5.4069

MULLIKEN ATOMIC CHARGES
-----------------------
   0 C :   -0.000137
   1 O :   -0.000079
   2 H :   -0.000006
   3 H :    0.000004
   4 H :   -0.000146
   5 H :    0.000007
   6 C :   -0.156016
   7 O :   -0.471897
   8 H :    0.321784
   9 H :    0.088090
  10 H :    0.124587
  11 H :    0.093810
Sum of atomic charges:    0.0000000

LOEWDIN ATOMIC CHARGES
----------------------
   0 C :   -0.000098
   1 O :   -0.000116
   2 H :   -0.000012
   3 H :   -0.000001
   4 H :   -0.000058
   5 H :   -0.000000
   6 C :   -0.416908
   7 O :   -0.062945
   8 H :    0.183864
   9 H :    0.102215
  10 H :    0.098962
  11 H :    0.095098

  Mayer bond orders larger than 0.1
B(  6-C ,  7-O ) :   1.0097 B(  6-C ,  9-H ) :   0.9834 B(  6-C , 10-H ) :   0.9714
B(  6-C , 11-H ) :   0.9670 B(  7-O ,  8-H ) :   0.8896

Dispersion correction           -0.000260034
FINAL SINGLE POINT ENERGY      -115.730539530507

DIPOLE MOMENT
-------------
                                X             Y             Z
Electronic contribution:      0.65377       1.36441       1.22532
Nuclear contribution   :     -0.72966      -1.96188      -1.06793
                        -----------------------------------------
Total Dipole Moment    :     -0.07589      -0.59747       0.15738
                        -----------------------------------------
Magnitude (a.u.)       :      0.62249
Magnitude (Debye)      :      1.58225

Rotational constants in cm-1:     4.327105     0.836725     0.815939
Rotational constants in MHz : 129723.332368 25084.383020 24461.221334

                             ****ORCA TERMINATED NORMALLY****
TOTAL RUN TIME: 0 days 0 hours 0 minutes 49 seconds 15 msec
