                         Program Version 4.1.2  - RELEASE  -
|  1> #Run DFT-D3 single point of the dimer
|  2> ! wB97X-D3 def2-TZVP TIGHTSCF CHELPG PMODEL PAL8
|  3>
|  4> %base "12-173_DFT_AB"
|  5>
|  6> %scf
|  7> MaxIter 1000
|  8> end
|  9>
| 10> * xyz 0 1
| 11>   C                      -10.092198           1.797232             0.824097
| 12>   O                      -10.796722           0.683600             0.287942
| 13>   H                      -10.885956           0.057400             0.973825
| 14>   H                      -9.886230            2.485197             -0.050887
| 15>   H                      -10.738840           2.315202             1.475545
| 16>   H                      -9.107419            1.603357             1.278801
| 17>   C                      -11.080017           -0.871185            3.257404
| 18>   O                      -10.361286           -1.402677            2.164674
| 19>   H                      -9.749079            -2.027279            2.644126
| 20>   H                      -10.470056           -0.077454            3.599917
| 21>   H                      -12.139159           -0.623412            2.937376
| 22>   H                      -11.228174           -1.632528            4.075493
| 23> *
| 24>
| 25> #Run DFT-D3 single point of the molecule with dimer basis set
| 26> $new_job
| 27> %base "12-173_DFT_A"
| 28> ! wB97X-D3 def2-TZVP TIGHTSCF CHELPG PMODEL
| 29>
| 30> %scf
| 31> MaxIter 1000
| 32> end
| 33>
| 34> * xyz 0 1
| 35>   C                      -10.092198           1.797232             0.824097
| 36>   O                      -10.796722           0.683600             0.287942
| 37>   H                      -10.885956           0.057400             0.973825
| 38>   H                      -9.886230            2.485197             -0.050887
| 39>   H                      -10.738840           2.315202             1.475545
| 40>   H                      -9.107419            1.603357             1.278801
| 41>   C                    : -11.080017           -0.871185            3.257404
| 42>   O                    : -10.361286           -1.402677            2.164674
| 43>   H                    : -9.749079            -2.027279            2.644126
| 44>   H                    : -10.470056           -0.077454            3.599917
| 45>   H                    : -12.139159           -0.623412            2.937376
| 46>   H                    : -11.228174           -1.632528            4.075493
| 47> *
| 48>
| 49> #Run DFT-D3 single point of the particle with dimer basis set
| 50> $new_job
| 51> %base "12-173_DFT_B"
| 52> ! wB97X-D3 def2-TZVP TIGHTSCF CHELPG PMODEL
| 53>
| 54> %scf
| 55> MaxIter 1000
| 56> end
| 57>
| 58> * xyz 0 1
| 59>   C                    : -10.092198           1.797232             0.824097
| 60>   O                    : -10.796722           0.683600             0.287942
| 61>   H                    : -10.885956           0.057400             0.973825
| 62>   H                    : -9.886230            2.485197             -0.050887
| 63>   H                    : -10.738840           2.315202             1.475545
| 64>   H                    : -9.107419            1.603357             1.278801
| 65>   C                      -11.080017           -0.871185            3.257404
| 66>   O                      -10.361286           -1.402677            2.164674
| 67>   H                      -9.749079            -2.027279            2.644126
| 68>   H                      -10.470056           -0.077454            3.599917
| 69>   H                      -12.139159           -0.623412            2.937376
| 70>   H                      -11.228174           -1.632528            4.075493
| 71> *
| 72>
| 73>                          ****END OF INPUT****
 Total Charge           Charge          ....    0
 Multiplicity           Mult            ....    1
 Number of Electrons    NEL             ....   36
Dispersion correction           -0.002092016
FINAL SINGLE POINT ENERGY      -231.464455510009
Dispersion correction           -0.000243387
FINAL SINGLE POINT ENERGY      -115.733676808745

CARTESIAN COORDINATES (ANGSTROEM)
---------------------------------
  C    -10.092198    1.797232    0.824097
  O    -10.796722    0.683600    0.287942
  H    -10.885956    0.057400    0.973825
  H     -9.886230    2.485197   -0.050887
  H    -10.738840    2.315202    1.475545
  H     -9.107419    1.603357    1.278801
  C    -11.080017   -0.871185    3.257404
  O    -10.361286   -1.402677    2.164674
  H     -9.749079   -2.027279    2.644126
  H    -10.470056   -0.077454    3.599917
  H    -12.139159   -0.623412    2.937376
  H    -11.228174   -1.632528    4.075493

 Multiplicity           Mult            ....    1
 Number of Electrons    NEL             ....   18
 Basis Dimension        Dim             ....  172

ORBITAL ENERGIES
----------------

  NO   OCC          E(Eh)            E(eV)
   0   2.0000     -19.232630      -523.3465
   1   2.0000     -10.316602      -280.7290
   2   2.0000      -1.135472       -30.8978
   3   2.0000      -0.784027       -21.3345
   4   2.0000      -0.603850       -16.4316
   5   2.0000      -0.558885       -15.2080
   6   2.0000      -0.513866       -13.9830
   7   2.0000      -0.433215       -11.7884
   8   2.0000      -0.372835       -10.1454
   9   0.0000       0.092724         2.5232
  10   0.0000       0.120774         3.2864
  11   0.0000       0.155413         4.2290
  12   0.0000       0.179281         4.8785
  13   0.0000       0.185064         5.0359

MULLIKEN ATOMIC CHARGES
-----------------------
   0 C :    0.002630
   1 O :    0.000672
   2 H :   -0.004560
   3 H :    0.000032
   4 H :   -0.000674
   5 H :   -0.002501
   6 C :   -0.187250
   7 O :   -0.460388
   8 H :    0.312652
   9 H :    0.117237
  10 H :    0.115266
  11 H :    0.106884
Sum of atomic charges:    0.0000000

LOEWDIN ATOMIC CHARGES
----------------------
   0 C :   -0.004355
   1 O :   -0.005174
   2 H :   -0.031540
   3 H :   -0.000025
   4 H :   -0.000300
   5 H :   -0.000945
   6 C :   -0.392311
   7 O :   -0.067502
   8 H :    0.193488
   9 H :    0.091781
  10 H :    0.116139
  11 H :    0.100744

  Mayer bond orders larger than 0.1
B(  6-C ,  7-O ) :   0.9819 B(  6-C ,  9-H ) :   0.9790 B(  6-C , 10-H ) :   0.9743
B(  6-C , 11-H ) :   0.9765 B(  7-O ,  8-H ) :   0.8978

Dispersion correction           -0.000212839
FINAL SINGLE POINT ENERGY      -115.727184414292

DIPOLE MOMENT
-------------
                                X             Y             Z
Electronic contribution:      0.83685      -0.46956      -1.51415
Nuclear contribution   :     -0.74012       0.27400       2.22574
                        -----------------------------------------
Total Dipole Moment    :      0.09673      -0.19557       0.71159
                        -----------------------------------------
Magnitude (a.u.)       :      0.74429
Magnitude (Debye)      :      1.89184

Rotational constants in cm-1:     4.009214     0.847513     0.814939
Rotational constants in MHz : 120193.223114 25407.810335 24431.265078

                             ****ORCA TERMINATED NORMALLY****
TOTAL RUN TIME: 0 days 0 hours 1 minutes 16 seconds 111 msec
