                         Program Version 4.1.2  - RELEASE  -
|  1> #Run DFT-D3 single point of the dimer
|  2> ! wB97X-D3 def2-TZVP TIGHTSCF CHELPG PMODEL PAL8
|  3>
|  4> %base "3-58_DFT_AB"
|  5>
|  6> %scf
|  7> MaxIter 1000
|  8> end
|  9>
| 10> * xyz 0 1
| 11>   C                      -1.585375            -0.526504            1.034932
| 12>   O                      -1.659778            -0.611331            2.447003
| 13>   H                      -2.532319            -0.358363            2.745018
| 14>   H                      -0.888317            0.258825             0.604334
| 15>   H                      -1.291051            -1.503012            0.632394
| 16>   H                      -2.593034            -0.391837            0.618044
| 17>   C                      -0.671174            -5.214124            -0.869858
| 18>   O                      -1.115675            -3.858978            -0.718865
| 19>   H                      -0.623826            -3.269613            -1.312421
| 20>   H                      -0.459745            -5.446240            -1.955176
| 21>   H                      0.149292             -5.512162            -0.208505
| 22>   H                      -1.482645            -5.896220            -0.501619
| 23> *
| 24>
| 25> #Run DFT-D3 single point of the molecule with dimer basis set
| 26> $new_job
| 27> %base "3-58_DFT_A"
| 28> ! wB97X-D3 def2-TZVP TIGHTSCF CHELPG PMODEL
| 29>
| 30> %scf
| 31> MaxIter 1000
| 32> end
| 33>
| 34> * xyz 0 1
| 35>   C                      -1.585375            -0.526504            1.034932
| 36>   O                      -1.659778            -0.611331            2.447003
| 37>   H                      -2.532319            -0.358363            2.745018
| 38>   H                      -0.888317            0.258825             0.604334
| 39>   H                      -1.291051            -1.503012            0.632394
| 40>   H                      -2.593034            -0.391837            0.618044
| 41>   C                    : -0.671174            -5.214124            -0.869858
| 42>   O                    : -1.115675            -3.858978            -0.718865
| 43>   H                    : -0.623826            -3.269613            -1.312421
| 44>   H                    : -0.459745            -5.446240            -1.955176
| 45>   H                    : 0.149292             -5.512162            -0.208505
| 46>   H                    : -1.482645            -5.896220            -0.501619
| 47> *
| 48>
| 49> #Run DFT-D3 single point of the particle with dimer basis set
| 50> $new_job
| 51> %base "3-58_DFT_B"
| 52> ! wB97X-D3 def2-TZVP TIGHTSCF CHELPG PMODEL
| 53>
| 54> %scf
| 55> MaxIter 1000
| 56> end
| 57>
| 58> * xyz 0 1
| 59>   C                    : -1.585375            -0.526504            1.034932
| 60>   O                    : -1.659778            -0.611331            2.447003
| 61>   H                    : -2.532319            -0.358363            2.745018
| 62>   H                    : -0.888317            0.258825             0.604334
| 63>   H                    : -1.291051            -1.503012            0.632394
| 64>   H                    : -2.593034            -0.391837            0.618044
| 65>   C                      -0.671174            -5.214124            -0.869858
| 66>   O                      -1.115675            -3.858978            -0.718865
| 67>   H                      -0.623826            -3.269613            -1.312421
| 68>   H                      -0.459745            -5.446240            -1.955176
| 69>   H                      0.149292             -5.512162            -0.208505
| 70>   H                      -1.482645            -5.896220            -0.501619
| 71> *
| 72>
| 73>                          ****END OF INPUT****
 Total Charge           Charge          ....    0
 Multiplicity           Mult            ....    1
 Number of Electrons    NEL             ....   36
Dispersion correction           -0.001206775
FINAL SINGLE POINT ENERGY      -231.466639747896
Dispersion correction           -0.000262640
FINAL SINGLE POINT ENERGY      -115.732680292941

CARTESIAN COORDINATES (ANGSTROEM)
---------------------------------
  C     -1.585375   -0.526504    1.034932
  O     -1.659778   -0.611331    2.447003
  H     -2.532319   -0.358363    2.745018
  H     -0.888317    0.258825    0.604334
  H     -1.291051   -1.503012    0.632394
  H     -2.593034   -0.391837    0.618044
  C     -0.671174   -5.214124   -0.869858
  O     -1.115675   -3.858978   -0.718865
  H     -0.623826   -3.269613   -1.312421
  H     -0.459745   -5.446240   -1.955176
  H      0.149292   -5.512162   -0.208505
  H     -1.482645   -5.896220   -0.501619

 Multiplicity           Mult            ....    1
 Number of Electrons    NEL             ....   18
 Basis Dimension        Dim             ....  172

ORBITAL ENERGIES
----------------

  NO   OCC          E(Eh)            E(eV)
   0   2.0000     -19.232567      -523.3448
   1   2.0000     -10.322405      -280.8869
   2   2.0000      -1.127545       -30.6820
   3   2.0000      -0.792962       -21.5776
   4   2.0000      -0.604508       -16.4495
   5   2.0000      -0.542055       -14.7501
   6   2.0000      -0.519355       -14.1324
   7   2.0000      -0.429144       -11.6776
   8   2.0000      -0.374651       -10.1948
   9   0.0000       0.093576         2.5463
  10   0.0000       0.118558         3.2261
  11   0.0000       0.147826         4.0226
  12   0.0000       0.177293         4.8244
  13   0.0000       0.193364         5.2617

MULLIKEN ATOMIC CHARGES
-----------------------
   0 C :    0.004719
   1 O :   -0.000042
   2 H :   -0.000008
   3 H :   -0.000100
   4 H :   -0.012758
   5 H :   -0.000345
   6 C :   -0.170745
   7 O :   -0.472140
   8 H :    0.319499
   9 H :    0.104262
  10 H :    0.107482
  11 H :    0.120176
Sum of atomic charges:    0.0000000

LOEWDIN ATOMIC CHARGES
----------------------
   0 C :   -0.002247
   1 O :   -0.000018
   2 H :   -0.000001
   3 H :   -0.000013
   4 H :   -0.008084
   5 H :   -0.000076
   6 C :   -0.382152
   7 O :   -0.091089
   8 H :    0.173446
   9 H :    0.102872
  10 H :    0.094325
  11 H :    0.113038

  Mayer bond orders larger than 0.1
B(  6-C ,  7-O ) :   1.0052 B(  6-C ,  9-H ) :   0.9756 B(  6-C , 10-H ) :   0.9683
B(  6-C , 11-H ) :   0.9755 B(  7-O ,  8-H ) :   0.8932

Dispersion correction           -0.000275064
FINAL SINGLE POINT ENERGY      -115.733113024928

DIPOLE MOMENT
-------------
                                X             Y             Z
Electronic contribution:     -0.56402       1.73685       0.25068
Nuclear contribution   :      1.04908      -1.92900      -0.69023
                        -----------------------------------------
Total Dipole Moment    :      0.48506      -0.19216      -0.43956
                        -----------------------------------------
Magnitude (a.u.)       :      0.68222
Magnitude (Debye)      :      1.73406

Rotational constants in cm-1:     4.213849     0.803552     0.771029
Rotational constants in MHz : 126328.000597 24089.880542 23114.861015

                             ****ORCA TERMINATED NORMALLY****
TOTAL RUN TIME: 0 days 0 hours 6 minutes 2 seconds 348 msec
