                         Program Version 4.1.2  - RELEASE  -
|  1> #Run DFT-D3 single point of the dimer
|  2> ! wB97X-D3 def2-TZVP TIGHTSCF CHELPG PMODEL PAL8
|  3>
|  4> %base "16-141_DFT_AB"
|  5>
|  6> %scf
|  7> MaxIter 1000
|  8> end
|  9>
| 10> * xyz 0 1
| 11>   C                      -3.172253            6.115077             -9.430730
| 12>   O                      -2.258837            5.717845             -8.440253
| 13>   H                      -1.895937            4.816713             -8.604891
| 14>   H                      -3.875050            5.249466             -9.500495
| 15>   H                      -3.779067            6.980646             -9.198653
| 16>   H                      -2.772807            6.321334             -10.463396
| 17>   C                      0.274920             3.925468             -3.263197
| 18>   O                      0.237037             4.835659             -4.358688
| 19>   H                      -0.711993            4.816995             -4.566247
| 20>   H                      1.183004             3.952553             -2.643056
| 21>   H                      -0.466177            4.226683             -2.456109
| 22>   H                      -0.052460            2.866320             -3.460820
| 23> *
| 24>
| 25> #Run DFT-D3 single point of the molecule with dimer basis set
| 26> $new_job
| 27> %base "16-141_DFT_A"
| 28> ! wB97X-D3 def2-TZVP TIGHTSCF CHELPG PMODEL
| 29>
| 30> %scf
| 31> MaxIter 1000
| 32> end
| 33>
| 34> * xyz 0 1
| 35>   C                      -3.172253            6.115077             -9.430730
| 36>   O                      -2.258837            5.717845             -8.440253
| 37>   H                      -1.895937            4.816713             -8.604891
| 38>   H                      -3.875050            5.249466             -9.500495
| 39>   H                      -3.779067            6.980646             -9.198653
| 40>   H                      -2.772807            6.321334             -10.463396
| 41>   C                    : 0.274920             3.925468             -3.263197
| 42>   O                    : 0.237037             4.835659             -4.358688
| 43>   H                    : -0.711993            4.816995             -4.566247
| 44>   H                    : 1.183004             3.952553             -2.643056
| 45>   H                    : -0.466177            4.226683             -2.456109
| 46>   H                    : -0.052460            2.866320             -3.460820
| 47> *
| 48>
| 49> #Run DFT-D3 single point of the particle with dimer basis set
| 50> $new_job
| 51> %base "16-141_DFT_B"
| 52> ! wB97X-D3 def2-TZVP TIGHTSCF CHELPG PMODEL
| 53>
| 54> %scf
| 55> MaxIter 1000
| 56> end
| 57>
| 58> * xyz 0 1
| 59>   C                    : -3.172253            6.115077             -9.430730
| 60>   O                    : -2.258837            5.717845             -8.440253
| 61>   H                    : -1.895937            4.816713             -8.604891
| 62>   H                    : -3.875050            5.249466             -9.500495
| 63>   H                    : -3.779067            6.980646             -9.198653
| 64>   H                    : -2.772807            6.321334             -10.463396
| 65>   C                      0.274920             3.925468             -3.263197
| 66>   O                      0.237037             4.835659             -4.358688
| 67>   H                      -0.711993            4.816995             -4.566247
| 68>   H                      1.183004             3.952553             -2.643056
| 69>   H                      -0.466177            4.226683             -2.456109
| 70>   H                      -0.052460            2.866320             -3.460820
| 71> *
| 72>
| 73>                          ****END OF INPUT****
 Total Charge           Charge          ....    0
 Multiplicity           Mult            ....    1
 Number of Electrons    NEL             ....   36
Dispersion correction           -0.000637971
FINAL SINGLE POINT ENERGY      -231.457136637409
Dispersion correction           -0.000257956
FINAL SINGLE POINT ENERGY      -115.729431522075

CARTESIAN COORDINATES (ANGSTROEM)
---------------------------------
  C     -3.172253    6.115077   -9.430730
  O     -2.258837    5.717845   -8.440253
  H     -1.895937    4.816713   -8.604891
  H     -3.875050    5.249466   -9.500495
  H     -3.779067    6.980646   -9.198653
  H     -2.772807    6.321334  -10.463396
  C      0.274920    3.925468   -3.263197
  O      0.237037    4.835659   -4.358688
  H     -0.711993    4.816995   -4.566247
  H      1.183004    3.952553   -2.643056
  H     -0.466177    4.226683   -2.456109
  H     -0.052460    2.866320   -3.460820

 Multiplicity           Mult            ....    1
 Number of Electrons    NEL             ....   18
 Basis Dimension        Dim             ....  172

ORBITAL ENERGIES
----------------

  NO   OCC          E(Eh)            E(eV)
   0   2.0000     -19.240581      -523.5628
   1   2.0000     -10.323492      -280.9165
   2   2.0000      -1.139595       -31.0100
   3   2.0000      -0.789913       -21.4946
   4   2.0000      -0.609885       -16.5958
   5   2.0000      -0.537425       -14.6241
   6   2.0000      -0.521837       -14.1999
   7   2.0000      -0.440804       -11.9949
   8   2.0000      -0.374480       -10.1901
   9   0.0000       0.084718         2.3053
  10   0.0000       0.110116         2.9964
  11   0.0000       0.143687         3.9099
  12   0.0000       0.167791         4.5658
  13   0.0000       0.195890         5.3304

MULLIKEN ATOMIC CHARGES
-----------------------
   0 C :    0.000004
   1 O :   -0.000003
   2 H :   -0.000070
   3 H :   -0.000000
   4 H :    0.000000
   5 H :   -0.000000
   6 C :   -0.205363
   7 O :   -0.450646
   8 H :    0.319861
   9 H :    0.129069
  10 H :    0.100069
  11 H :    0.107079
Sum of atomic charges:   -0.0000000

LOEWDIN ATOMIC CHARGES
----------------------
   0 C :   -0.000001
   1 O :   -0.000014
   2 H :   -0.000046
   3 H :   -0.000000
   4 H :   -0.000000
   5 H :   -0.000000
   6 C :   -0.408174
   7 O :   -0.082831
   8 H :    0.182641
   9 H :    0.109419
  10 H :    0.099954
  11 H :    0.099053

  Mayer bond orders larger than 0.1
B(  6-C ,  7-O ) :   1.0064 B(  6-C ,  9-H ) :   0.9708 B(  6-C , 10-H ) :   0.9796
B(  6-C , 11-H ) :   0.9649 B(  7-O ,  8-H ) :   0.8980

Dispersion correction           -0.000256175
FINAL SINGLE POINT ENERGY      -115.727297297602

DIPOLE MOMENT
-------------
                                X             Y             Z
Electronic contribution:      0.29971       1.23530      -1.67404
Nuclear contribution   :     -0.86969      -1.56705       1.98439
                        -----------------------------------------
Total Dipole Moment    :     -0.56998      -0.33175       0.31036
                        -----------------------------------------
Magnitude (a.u.)       :      0.72887
Magnitude (Debye)      :      1.85265

Rotational constants in cm-1:     4.239298     0.809669     0.777428
Rotational constants in MHz : 127090.961718 24273.264258 23306.690664

                             ****ORCA TERMINATED NORMALLY****
TOTAL RUN TIME: 0 days 0 hours 0 minutes 50 seconds 362 msec
