                         Program Version 4.1.2  - RELEASE  -
|  1> #Run DFT-D3 single point of the dimer
|  2> ! wB97X-D3 def2-TZVP TIGHTSCF CHELPG PMODEL PAL8
|  3>
|  4> %base "13-159_DFT_AB"
|  5>
|  6> %scf
|  7> MaxIter 1000
|  8> end
|  9>
| 10> * xyz 0 1
| 11>   C                      5.358170             -4.553323            8.289341
| 12>   O                      4.758662             -5.702051            7.788265
| 13>   H                      5.369109             -6.434928            7.839393
| 14>   H                      4.957496             -3.566630            7.869189
| 15>   H                      5.109407             -4.431742            9.340299
| 16>   H                      6.408784             -4.531158            8.178149
| 17>   C                      3.340212             -5.103759            4.722729
| 18>   O                      4.198028             -6.160828            5.112848
| 19>   H                      3.740715             -6.406466            5.979021
| 20>   H                      3.726197             -4.540154            3.788894
| 21>   H                      2.411893             -5.543951            4.462794
| 22>   H                      3.177969             -4.407597            5.559392
| 23> *
| 24>
| 25> #Run DFT-D3 single point of the molecule with dimer basis set
| 26> $new_job
| 27> %base "13-159_DFT_A"
| 28> ! wB97X-D3 def2-TZVP TIGHTSCF CHELPG PMODEL
| 29>
| 30> %scf
| 31> MaxIter 1000
| 32> end
| 33>
| 34> * xyz 0 1
| 35>   C                      5.358170             -4.553323            8.289341
| 36>   O                      4.758662             -5.702051            7.788265
| 37>   H                      5.369109             -6.434928            7.839393
| 38>   H                      4.957496             -3.566630            7.869189
| 39>   H                      5.109407             -4.431742            9.340299
| 40>   H                      6.408784             -4.531158            8.178149
| 41>   C                    : 3.340212             -5.103759            4.722729
| 42>   O                    : 4.198028             -6.160828            5.112848
| 43>   H                    : 3.740715             -6.406466            5.979021
| 44>   H                    : 3.726197             -4.540154            3.788894
| 45>   H                    : 2.411893             -5.543951            4.462794
| 46>   H                    : 3.177969             -4.407597            5.559392
| 47> *
| 48>
| 49> #Run DFT-D3 single point of the particle with dimer basis set
| 50> $new_job
| 51> %base "13-159_DFT_B"
| 52> ! wB97X-D3 def2-TZVP TIGHTSCF CHELPG PMODEL
| 53>
| 54> %scf
| 55> MaxIter 1000
| 56> end
| 57>
| 58> * xyz 0 1
| 59>   C                    : 5.358170             -4.553323            8.289341
| 60>   O                    : 4.758662             -5.702051            7.788265
| 61>   H                    : 5.369109             -6.434928            7.839393
| 62>   H                    : 4.957496             -3.566630            7.869189
| 63>   H                    : 5.109407             -4.431742            9.340299
| 64>   H                    : 6.408784             -4.531158            8.178149
| 65>   C                      3.340212             -5.103759            4.722729
| 66>   O                      4.198028             -6.160828            5.112848
| 67>   H                      3.740715             -6.406466            5.979021
| 68>   H                      3.726197             -4.540154            3.788894
| 69>   H                      2.411893             -5.543951            4.462794
| 70>   H                      3.177969             -4.407597            5.559392
| 71> *
| 72>
| 73>                          ****END OF INPUT****
 Total Charge           Charge          ....    0
 Multiplicity           Mult            ....    1
 Number of Electrons    NEL             ....   36
Dispersion correction           -0.001869036
FINAL SINGLE POINT ENERGY      -231.461842590404
Dispersion correction           -0.000245187
FINAL SINGLE POINT ENERGY      -115.731550252778

CARTESIAN COORDINATES (ANGSTROEM)
---------------------------------
  C      5.358170   -4.553323    8.289341
  O      4.758662   -5.702051    7.788265
  H      5.369109   -6.434928    7.839393
  H      4.957496   -3.566630    7.869189
  H      5.109407   -4.431742    9.340299
  H      6.408784   -4.531158    8.178149
  C      3.340212   -5.103759    4.722729
  O      4.198028   -6.160828    5.112848
  H      3.740715   -6.406466    5.979021
  H      3.726197   -4.540154    3.788894
  H      2.411893   -5.543951    4.462794
  H      3.177969   -4.407597    5.559392

 Multiplicity           Mult            ....    1
 Number of Electrons    NEL             ....   18
 Basis Dimension        Dim             ....  172

ORBITAL ENERGIES
----------------

  NO   OCC          E(Eh)            E(eV)
   0   2.0000     -19.237410      -523.4765
   1   2.0000     -10.317263      -280.7470
   2   2.0000      -1.134448       -30.8699
   3   2.0000      -0.784417       -21.3451
   4   2.0000      -0.604451       -16.4480
   5   2.0000      -0.547951       -14.9105
   6   2.0000      -0.520890       -14.1741
   7   2.0000      -0.439483       -11.9589
   8   2.0000      -0.372516       -10.1367
   9   0.0000       0.078054         2.1240
  10   0.0000       0.123468         3.3597
  11   0.0000       0.143600         3.9075
  12   0.0000       0.181148         4.9293
  13   0.0000       0.191351         5.2069

MULLIKEN ATOMIC CHARGES
-----------------------
   0 C :   -0.003676
   1 O :   -0.005390
   2 H :   -0.001786
   3 H :   -0.000029
   4 H :   -0.000030
   5 H :    0.000339
   6 C :   -0.188400
   7 O :   -0.455012
   8 H :    0.319016
   9 H :    0.115864
  10 H :    0.111977
  11 H :    0.107126
Sum of atomic charges:    0.0000000

LOEWDIN ATOMIC CHARGES
----------------------
   0 C :   -0.003692
   1 O :   -0.017979
   2 H :   -0.003578
   3 H :   -0.000484
   4 H :   -0.000097
   5 H :   -0.000106
   6 C :   -0.398306
   7 O :   -0.084705
   8 H :    0.207604
   9 H :    0.119201
  10 H :    0.086950
  11 H :    0.095192

  Mayer bond orders larger than 0.1
B(  6-C ,  7-O ) :   0.9940 B(  6-C ,  9-H ) :   0.9690 B(  6-C , 10-H ) :   0.9857
B(  6-C , 11-H ) :   0.9748 B(  7-O ,  8-H ) :   0.8940

Dispersion correction           -0.000211904
FINAL SINGLE POINT ENERGY      -115.727776771258

DIPOLE MOMENT
-------------
                                X             Y             Z
Electronic contribution:      1.23455      -1.32865       0.33528
Nuclear contribution   :     -1.85024       1.57688       0.00892
                        -----------------------------------------
Total Dipole Moment    :     -0.61569       0.24823       0.34419
                        -----------------------------------------
Magnitude (a.u.)       :      0.74777
Magnitude (Debye)      :      1.90069

Rotational constants in cm-1:     4.037408     0.845458     0.800302
Rotational constants in MHz : 121038.434571 25346.188879 23992.463966

                             ****ORCA TERMINATED NORMALLY****
TOTAL RUN TIME: 0 days 0 hours 1 minutes 10 seconds 381 msec
