                         Program Version 4.1.2  - RELEASE  -
|  1> #Run DFT-D3 single point of the dimer
|  2> ! wB97X-D3 def2-TZVP TIGHTSCF CHELPG PMODEL PAL8
|  3>
|  4> %base "1-22_DFT_AB"
|  5>
|  6> %scf
|  7> MaxIter 1000
|  8> end
|  9>
| 10> * xyz 0 1
| 11>   C                      -2.881200            5.269052             1.066537
| 12>   O                      -2.445104            4.075524             0.341486
| 13>   H                      -2.756895            4.205874             -0.534556
| 14>   H                      -3.832270            5.165989             1.402556
| 15>   H                      -2.191036            5.618454             1.900053
| 16>   H                      -2.957396            6.094008             0.292697
| 17>   C                      -1.678072            3.140757             3.480192
| 18>   O                      -3.000675            3.465647             3.827159
| 19>   H                      -3.099264            3.477182             4.782687
| 20>   H                      -1.256777            2.459914             4.286220
| 21>   H                      -1.801124            2.478070             2.563600
| 22>   H                      -1.023869            4.026297             3.345611
| 23> *
| 24>
| 25> #Run DFT-D3 single point of the molecule with dimer basis set
| 26> $new_job
| 27> %base "1-22_DFT_A"
| 28> ! wB97X-D3 def2-TZVP TIGHTSCF CHELPG PMODEL
| 29>
| 30> %scf
| 31> MaxIter 1000
| 32> end
| 33>
| 34> * xyz 0 1
| 35>   C                      -2.881200            5.269052             1.066537
| 36>   O                      -2.445104            4.075524             0.341486
| 37>   H                      -2.756895            4.205874             -0.534556
| 38>   H                      -3.832270            5.165989             1.402556
| 39>   H                      -2.191036            5.618454             1.900053
| 40>   H                      -2.957396            6.094008             0.292697
| 41>   C                    : -1.678072            3.140757             3.480192
| 42>   O                    : -3.000675            3.465647             3.827159
| 43>   H                    : -3.099264            3.477182             4.782687
| 44>   H                    : -1.256777            2.459914             4.286220
| 45>   H                    : -1.801124            2.478070             2.563600
| 46>   H                    : -1.023869            4.026297             3.345611
| 47> *
| 48>
| 49> #Run DFT-D3 single point of the particle with dimer basis set
| 50> $new_job
| 51> %base "1-22_DFT_B"
| 52> ! wB97X-D3 def2-TZVP TIGHTSCF CHELPG PMODEL
| 53>
| 54> %scf
| 55> MaxIter 1000
| 56> end
| 57>
| 58> * xyz 0 1
| 59>   C                    : -2.881200            5.269052             1.066537
| 60>   O                    : -2.445104            4.075524             0.341486
| 61>   H                    : -2.756895            4.205874             -0.534556
| 62>   H                    : -3.832270            5.165989             1.402556
| 63>   H                    : -2.191036            5.618454             1.900053
| 64>   H                    : -2.957396            6.094008             0.292697
| 65>   C                      -1.678072            3.140757             3.480192
| 66>   O                      -3.000675            3.465647             3.827159
| 67>   H                      -3.099264            3.477182             4.782687
| 68>   H                      -1.256777            2.459914             4.286220
| 69>   H                      -1.801124            2.478070             2.563600
| 70>   H                      -1.023869            4.026297             3.345611
| 71> *
| 72>
| 73>                          ****END OF INPUT****
 Total Charge           Charge          ....    0
 Multiplicity           Mult            ....    1
 Number of Electrons    NEL             ....   36
Dispersion correction           -0.002223613
FINAL SINGLE POINT ENERGY      -231.458349715612
Dispersion correction           -0.000244874
FINAL SINGLE POINT ENERGY      -115.724735023454

CARTESIAN COORDINATES (ANGSTROEM)
---------------------------------
  C     -2.881200    5.269052    1.066537
  O     -2.445104    4.075524    0.341486
  H     -2.756895    4.205874   -0.534556
  H     -3.832270    5.165989    1.402556
  H     -2.191036    5.618454    1.900053
  H     -2.957396    6.094008    0.292697
  C     -1.678072    3.140757    3.480192
  O     -3.000675    3.465647    3.827159
  H     -3.099264    3.477182    4.782687
  H     -1.256777    2.459914    4.286220
  H     -1.801124    2.478070    2.563600
  H     -1.023869    4.026297    3.345611

 Multiplicity           Mult            ....    1
 Number of Electrons    NEL             ....   18
 Basis Dimension        Dim             ....  172

ORBITAL ENERGIES
----------------

  NO   OCC          E(Eh)            E(eV)
   0   2.0000     -19.227990      -523.2202
   1   2.0000     -10.322696      -280.8948
   2   2.0000      -1.137547       -30.9542
   3   2.0000      -0.786984       -21.4149
   4   2.0000      -0.609920       -16.5968
   5   2.0000      -0.546844       -14.8804
   6   2.0000      -0.518944       -14.1212
   7   2.0000      -0.423307       -11.5188
   8   2.0000      -0.373973       -10.1763
   9   0.0000       0.093527         2.5450
  10   0.0000       0.121262         3.2997
  11   0.0000       0.153346         4.1728
  12   0.0000       0.168393         4.5822
  13   0.0000       0.187147         5.0925

MULLIKEN ATOMIC CHARGES
-----------------------
   0 C :    0.010378
   1 O :   -0.000702
   2 H :   -0.000091
   3 H :   -0.006010
   4 H :   -0.001328
   5 H :    0.000054
   6 C :   -0.182507
   7 O :   -0.471824
   8 H :    0.313720
   9 H :    0.110809
  10 H :    0.120078
  11 H :    0.107423
Sum of atomic charges:    0.0000000

LOEWDIN ATOMIC CHARGES
----------------------
   0 C :   -0.010898
   1 O :   -0.002285
   2 H :   -0.000109
   3 H :   -0.002521
   4 H :   -0.003494
   5 H :   -0.000042
   6 C :   -0.399099
   7 O :   -0.068340
   8 H :    0.166814
   9 H :    0.102603
  10 H :    0.117882
  11 H :    0.099489

  Mayer bond orders larger than 0.1
B(  6-C ,  7-O ) :   0.9993 B(  6-C ,  9-H ) :   0.9789 B(  6-C , 10-H ) :   0.9775
B(  6-C , 11-H ) :   0.9636 B(  7-O ,  8-H ) :   0.8992

Dispersion correction           -0.000247977
FINAL SINGLE POINT ENERGY      -115.731919221050

DIPOLE MOMENT
-------------
                                X             Y             Z
Electronic contribution:     -1.64866       0.56707       0.28331
Nuclear contribution   :      2.08426      -0.70601       0.21909
                        -----------------------------------------
Total Dipole Moment    :      0.43560      -0.13893       0.50240
                        -----------------------------------------
Magnitude (a.u.)       :      0.67931
Magnitude (Debye)      :      1.72666

Rotational constants in cm-1:     4.015428     0.836897     0.813484
Rotational constants in MHz : 120379.507291 25089.529767 24387.640883

                             ****ORCA TERMINATED NORMALLY****
TOTAL RUN TIME: 0 days 0 hours 4 minutes 47 seconds 442 msec
