                         Program Version 4.1.2  - RELEASE  -
|  1> #Run DFT-D3 single point of the dimer
|  2> ! wB97X-D3 def2-TZVP TIGHTSCF CHELPG PMODEL PAL8
|  3>
|  4> %base "7-113_DFT_AB"
|  5>
|  6> %scf
|  7> MaxIter 1000
|  8> end
|  9>
| 10> * xyz 0 1
| 11>   C                      0.729532             5.280987             0.792221
| 12>   O                      0.011848             4.968392             -0.373084
| 13>   H                      -0.194236            5.859441             -0.599549
| 14>   H                      1.347677             4.466694             1.117791
| 15>   H                      1.488634             6.100130             0.576506
| 16>   H                      -0.035568            5.478909             1.575330
| 17>   C                      -2.506066            5.774475             4.374404
| 18>   O                      -1.795232            6.409334             3.349870
| 19>   H                      -1.717533            7.281400             3.695143
| 20>   H                      -1.797365            5.646557             5.250925
| 21>   H                      -3.437806            6.248494             4.651501
| 22>   H                      -2.836232            4.790620             4.104061
| 23> *
| 24>
| 25> #Run DFT-D3 single point of the molecule with dimer basis set
| 26> $new_job
| 27> %base "7-113_DFT_A"
| 28> ! wB97X-D3 def2-TZVP TIGHTSCF CHELPG PMODEL
| 29>
| 30> %scf
| 31> MaxIter 1000
| 32> end
| 33>
| 34> * xyz 0 1
| 35>   C                      0.729532             5.280987             0.792221
| 36>   O                      0.011848             4.968392             -0.373084
| 37>   H                      -0.194236            5.859441             -0.599549
| 38>   H                      1.347677             4.466694             1.117791
| 39>   H                      1.488634             6.100130             0.576506
| 40>   H                      -0.035568            5.478909             1.575330
| 41>   C                    : -2.506066            5.774475             4.374404
| 42>   O                    : -1.795232            6.409334             3.349870
| 43>   H                    : -1.717533            7.281400             3.695143
| 44>   H                    : -1.797365            5.646557             5.250925
| 45>   H                    : -3.437806            6.248494             4.651501
| 46>   H                    : -2.836232            4.790620             4.104061
| 47> *
| 48>
| 49> #Run DFT-D3 single point of the particle with dimer basis set
| 50> $new_job
| 51> %base "7-113_DFT_B"
| 52> ! wB97X-D3 def2-TZVP TIGHTSCF CHELPG PMODEL
| 53>
| 54> %scf
| 55> MaxIter 1000
| 56> end
| 57>
| 58> * xyz 0 1
| 59>   C                    : 0.729532             5.280987             0.792221
| 60>   O                    : 0.011848             4.968392             -0.373084
| 61>   H                    : -0.194236            5.859441             -0.599549
| 62>   H                    : 1.347677             4.466694             1.117791
| 63>   H                    : 1.488634             6.100130             0.576506
| 64>   H                    : -0.035568            5.478909             1.575330
| 65>   C                      -2.506066            5.774475             4.374404
| 66>   O                      -1.795232            6.409334             3.349870
| 67>   H                      -1.717533            7.281400             3.695143
| 68>   H                      -1.797365            5.646557             5.250925
| 69>   H                      -3.437806            6.248494             4.651501
| 70>   H                      -2.836232            4.790620             4.104061
| 71> *
| 72>
| 73>                          ****END OF INPUT****
 Total Charge           Charge          ....    0
 Multiplicity           Mult            ....    1
 Number of Electrons    NEL             ....   36
Dispersion correction           -0.001121508
FINAL SINGLE POINT ENERGY      -231.460433300945
Dispersion correction           -0.000201953
FINAL SINGLE POINT ENERGY      -115.727001632913

CARTESIAN COORDINATES (ANGSTROEM)
---------------------------------
  C      0.729532    5.280987    0.792221
  O      0.011848    4.968392   -0.373084
  H     -0.194236    5.859441   -0.599549
  H      1.347677    4.466694    1.117791
  H      1.488634    6.100130    0.576506
  H     -0.035568    5.478909    1.575330
  C     -2.506066    5.774475    4.374404
  O     -1.795232    6.409334    3.349870
  H     -1.717533    7.281400    3.695143
  H     -1.797365    5.646557    5.250925
  H     -3.437806    6.248494    4.651501
  H     -2.836232    4.790620    4.104061

 Multiplicity           Mult            ....    1
 Number of Electrons    NEL             ....   18
 Basis Dimension        Dim             ....  172

ORBITAL ENERGIES
----------------

  NO   OCC          E(Eh)            E(eV)
   0   2.0000     -19.232148      -523.3333
   1   2.0000     -10.312942      -280.6294
   2   2.0000      -1.150645       -31.3106
   3   2.0000      -0.795137       -21.6368
   4   2.0000      -0.612686       -16.6720
   5   2.0000      -0.549570       -14.9546
   6   2.0000      -0.530705       -14.4412
   7   2.0000      -0.436438       -11.8761
   8   2.0000      -0.375484       -10.2174
   9   0.0000       0.100484         2.7343
  10   0.0000       0.120783         3.2867
  11   0.0000       0.156202         4.2505
  12   0.0000       0.179850         4.8940
  13   0.0000       0.198354         5.3975

MULLIKEN ATOMIC CHARGES
-----------------------
   0 C :    0.001263
   1 O :   -0.000011
   2 H :   -0.000139
   3 H :    0.000009
   4 H :   -0.000026
   5 H :   -0.008098
   6 C :   -0.164518
   7 O :   -0.449370
   8 H :    0.311470
   9 H :    0.096031
  10 H :    0.100990
  11 H :    0.112400
Sum of atomic charges:   -0.0000000

LOEWDIN ATOMIC CHARGES
----------------------
   0 C :   -0.002760
   1 O :   -0.000022
   2 H :   -0.000041
   3 H :   -0.000016
   4 H :   -0.000019
   5 H :   -0.009453
   6 C :   -0.401656
   7 O :   -0.045879
   8 H :    0.162757
   9 H :    0.102770
  10 H :    0.092600
  11 H :    0.101718

  Mayer bond orders larger than 0.1
B(  6-C ,  7-O ) :   0.9990 B(  6-C ,  9-H ) :   0.9834 B(  6-C , 10-H ) :   0.9673
B(  6-C , 11-H ) :   0.9770 B(  7-O ,  8-H ) :   0.9040

Dispersion correction           -0.000219790
FINAL SINGLE POINT ENERGY      -115.731783809461

DIPOLE MOMENT
-------------
                                X             Y             Z
Electronic contribution:      0.87926       0.76276      -1.49546
Nuclear contribution   :     -1.13379      -0.47246       2.07938
                        -----------------------------------------
Total Dipole Moment    :     -0.25454       0.29030       0.58392
                        -----------------------------------------
Magnitude (a.u.)       :      0.70002
Magnitude (Debye)      :      1.77931

Rotational constants in cm-1:     4.304827     0.843837     0.825249
Rotational constants in MHz : 129055.455152 25297.591081 24740.356275

                             ****ORCA TERMINATED NORMALLY****
TOTAL RUN TIME: 0 days 0 hours 1 minutes 11 seconds 246 msec
