                         Program Version 4.1.2  - RELEASE  -
|  1> #Run DFT-D3 single point of the dimer
|  2> ! wB97X-D3 def2-TZVP TIGHTSCF CHELPG PMODEL PAL8
|  3>
|  4> %base "19-197_DFT_AB"
|  5>
|  6> %scf
|  7> MaxIter 1000
|  8> end
|  9>
| 10> * xyz 0 1
| 11>   C                      -10.168091           -2.949114            0.261102
| 12>   O                      -11.295517           -3.753772            0.500126
| 13>   H                      -11.227967           -3.909861            1.425621
| 14>   H                      -9.228378            -3.566037            0.185476
| 15>   H                      -10.289831           -2.384274            -0.661147
| 16>   H                      -9.949857            -2.171870            0.997315
| 17>   C                      -8.825300            -5.163330            4.244927
| 18>   O                      -9.722351            -4.688179            3.283910
| 19>   H                      -10.008389           -5.516770            2.782620
| 20>   H                      -8.744327            -4.444332            4.987679
| 21>   H                      -9.137745            -6.055484            4.742008
| 22>   H                      -7.834679            -5.260936            3.862330
| 23> *
| 24>
| 25> #Run DFT-D3 single point of the molecule with dimer basis set
| 26> $new_job
| 27> %base "19-197_DFT_A"
| 28> ! wB97X-D3 def2-TZVP TIGHTSCF CHELPG PMODEL
| 29>
| 30> %scf
| 31> MaxIter 1000
| 32> end
| 33>
| 34> * xyz 0 1
| 35>   C                      -10.168091           -2.949114            0.261102
| 36>   O                      -11.295517           -3.753772            0.500126
| 37>   H                      -11.227967           -3.909861            1.425621
| 38>   H                      -9.228378            -3.566037            0.185476
| 39>   H                      -10.289831           -2.384274            -0.661147
| 40>   H                      -9.949857            -2.171870            0.997315
| 41>   C                    : -8.825300            -5.163330            4.244927
| 42>   O                    : -9.722351            -4.688179            3.283910
| 43>   H                    : -10.008389           -5.516770            2.782620
| 44>   H                    : -8.744327            -4.444332            4.987679
| 45>   H                    : -9.137745            -6.055484            4.742008
| 46>   H                    : -7.834679            -5.260936            3.862330
| 47> *
| 48>
| 49> #Run DFT-D3 single point of the particle with dimer basis set
| 50> $new_job
| 51> %base "19-197_DFT_B"
| 52> ! wB97X-D3 def2-TZVP TIGHTSCF CHELPG PMODEL
| 53>
| 54> %scf
| 55> MaxIter 1000
| 56> end
| 57>
| 58> * xyz 0 1
| 59>   C                    : -10.168091           -2.949114            0.261102
| 60>   O                    : -11.295517           -3.753772            0.500126
| 61>   H                    : -11.227967           -3.909861            1.425621
| 62>   H                    : -9.228378            -3.566037            0.185476
| 63>   H                    : -10.289831           -2.384274            -0.661147
| 64>   H                    : -9.949857            -2.171870            0.997315
| 65>   C                      -8.825300            -5.163330            4.244927
| 66>   O                      -9.722351            -4.688179            3.283910
| 67>   H                      -10.008389           -5.516770            2.782620
| 68>   H                      -8.744327            -4.444332            4.987679
| 69>   H                      -9.137745            -6.055484            4.742008
| 70>   H                      -7.834679            -5.260936            3.862330
| 71> *
| 72>
| 73>                          ****END OF INPUT****
 Total Charge           Charge          ....    0
 Multiplicity           Mult            ....    1
 Number of Electrons    NEL             ....   36
Dispersion correction           -0.001606006
FINAL SINGLE POINT ENERGY      -231.468809792832
Dispersion correction           -0.000237726
FINAL SINGLE POINT ENERGY      -115.733889104452

CARTESIAN COORDINATES (ANGSTROEM)
---------------------------------
  C    -10.168091   -2.949114    0.261102
  O    -11.295517   -3.753772    0.500126
  H    -11.227967   -3.909861    1.425621
  H     -9.228378   -3.566037    0.185476
  H    -10.289831   -2.384274   -0.661147
  H     -9.949857   -2.171870    0.997315
  C     -8.825300   -5.163330    4.244927
  O     -9.722351   -4.688179    3.283910
  H    -10.008389   -5.516770    2.782620
  H     -8.744327   -4.444332    4.987679
  H     -9.137745   -6.055484    4.742008
  H     -7.834679   -5.260936    3.862330

 Multiplicity           Mult            ....    1
 Number of Electrons    NEL             ....   18
 Basis Dimension        Dim             ....  172

ORBITAL ENERGIES
----------------

  NO   OCC          E(Eh)            E(eV)
   0   2.0000     -19.235702      -523.4301
   1   2.0000     -10.298270      -280.2302
   2   2.0000      -1.134882       -30.8817
   3   2.0000      -0.799630       -21.7590
   4   2.0000      -0.609079       -16.5739
   5   2.0000      -0.549505       -14.9528
   6   2.0000      -0.529981       -14.4215
   7   2.0000      -0.437244       -11.8980
   8   2.0000      -0.374053       -10.1785
   9   0.0000       0.092396         2.5142
  10   0.0000       0.123872         3.3707
  11   0.0000       0.154860         4.2139
  12   0.0000       0.189080         5.1451
  13   0.0000       0.200785         5.4636

MULLIKEN ATOMIC CHARGES
-----------------------
   0 C :    0.003156
   1 O :   -0.000022
   2 H :   -0.004612
   3 H :   -0.003860
   4 H :   -0.000404
   5 H :   -0.002233
   6 C :   -0.159565
   7 O :   -0.460167
   8 H :    0.317143
   9 H :    0.113911
  10 H :    0.099536
  11 H :    0.097115
Sum of atomic charges:    0.0000000

LOEWDIN ATOMIC CHARGES
----------------------
   0 C :   -0.006387
   1 O :   -0.000787
   2 H :   -0.008644
   3 H :   -0.001695
   4 H :   -0.000090
   5 H :   -0.000990
   6 C :   -0.392871
   7 O :   -0.069871
   8 H :    0.202603
   9 H :    0.096176
  10 H :    0.091787
  11 H :    0.090770

  Mayer bond orders larger than 0.1
B(  6-C ,  7-O ) :   1.0070 B(  6-C ,  9-H ) :   0.9807 B(  6-C , 10-H ) :   0.9786
B(  6-C , 11-H ) :   0.9780 B(  7-O ,  8-H ) :   0.8934

Dispersion correction           -0.000223473
FINAL SINGLE POINT ENERGY      -115.730513319362

DIPOLE MOMENT
-------------
                                X             Y             Z
Electronic contribution:     -1.15665       0.71454      -1.19369
Nuclear contribution   :      1.32675      -1.39844       1.29766
                        -----------------------------------------
Total Dipole Moment    :      0.17009      -0.68390       0.10397
                        -----------------------------------------
Magnitude (a.u.)       :      0.71237
Magnitude (Debye)      :      1.81069

Rotational constants in cm-1:     4.438288     0.853633     0.822131
Rotational constants in MHz : 133056.531156 25591.266507 24646.861964

                             ****ORCA TERMINATED NORMALLY****
TOTAL RUN TIME: 0 days 0 hours 1 minutes 38 seconds 519 msec
