                         Program Version 4.1.2  - RELEASE  -
|  1> #Run DFT-D3 single point of the dimer
|  2> ! wB97X-D3 def2-TZVP TIGHTSCF CHELPG PMODEL PAL8
|  3>
|  4> %base "18-52_DFT_AB"
|  5>
|  6> %scf
|  7> MaxIter 1000
|  8> end
|  9>
| 10> * xyz 0 1
| 11>   C                      1.360282             -4.777872            -0.154041
| 12>   O                      0.112124             -4.454516            0.466890
| 13>   H                      0.255263             -3.645348            0.929075
| 14>   H                      1.579164             -4.006664            -0.829384
| 15>   H                      2.089112             -4.804114            0.602860
| 16>   H                      1.466500             -5.741228            -0.685839
| 17>   C                      -0.641337            -1.278704            2.735910
| 18>   O                      -0.235503            -1.995124            1.558616
| 19>   H                      -0.216393            -1.287634            0.896333
| 20>   H                      -1.715056            -1.169015            2.646839
| 21>   H                      -0.486806            -1.780883            3.720906
| 22>   H                      -0.073791            -0.337690            2.824643
| 23> *
| 24>
| 25> #Run DFT-D3 single point of the molecule with dimer basis set
| 26> $new_job
| 27> %base "18-52_DFT_A"
| 28> ! wB97X-D3 def2-TZVP TIGHTSCF CHELPG PMODEL
| 29>
| 30> %scf
| 31> MaxIter 1000
| 32> end
| 33>
| 34> * xyz 0 1
| 35>   C                      1.360282             -4.777872            -0.154041
| 36>   O                      0.112124             -4.454516            0.466890
| 37>   H                      0.255263             -3.645348            0.929075
| 38>   H                      1.579164             -4.006664            -0.829384
| 39>   H                      2.089112             -4.804114            0.602860
| 40>   H                      1.466500             -5.741228            -0.685839
| 41>   C                    : -0.641337            -1.278704            2.735910
| 42>   O                    : -0.235503            -1.995124            1.558616
| 43>   H                    : -0.216393            -1.287634            0.896333
| 44>   H                    : -1.715056            -1.169015            2.646839
| 45>   H                    : -0.486806            -1.780883            3.720906
| 46>   H                    : -0.073791            -0.337690            2.824643
| 47> *
| 48>
| 49> #Run DFT-D3 single point of the particle with dimer basis set
| 50> $new_job
| 51> %base "18-52_DFT_B"
| 52> ! wB97X-D3 def2-TZVP TIGHTSCF CHELPG PMODEL
| 53>
| 54> %scf
| 55> MaxIter 1000
| 56> end
| 57>
| 58> * xyz 0 1
| 59>   C                    : 1.360282             -4.777872            -0.154041
| 60>   O                    : 0.112124             -4.454516            0.466890
| 61>   H                    : 0.255263             -3.645348            0.929075
| 62>   H                    : 1.579164             -4.006664            -0.829384
| 63>   H                    : 2.089112             -4.804114            0.602860
| 64>   H                    : 1.466500             -5.741228            -0.685839
| 65>   C                      -0.641337            -1.278704            2.735910
| 66>   O                      -0.235503            -1.995124            1.558616
| 67>   H                      -0.216393            -1.287634            0.896333
| 68>   H                      -1.715056            -1.169015            2.646839
| 69>   H                      -0.486806            -1.780883            3.720906
| 70>   H                      -0.073791            -0.337690            2.824643
| 71> *
| 72>
| 73>                          ****END OF INPUT****
 Total Charge           Charge          ....    0
 Multiplicity           Mult            ....    1
 Number of Electrons    NEL             ....   36
Dispersion correction           -0.001454232
FINAL SINGLE POINT ENERGY      -231.465287110532
Dispersion correction           -0.000217386
FINAL SINGLE POINT ENERGY      -115.728826510015

CARTESIAN COORDINATES (ANGSTROEM)
---------------------------------
  C      1.360282   -4.777872   -0.154041
  O      0.112124   -4.454516    0.466890
  H      0.255263   -3.645348    0.929075
  H      1.579164   -4.006664   -0.829384
  H      2.089112   -4.804114    0.602860
  H      1.466500   -5.741228   -0.685839
  C     -0.641337   -1.278704    2.735910
  O     -0.235503   -1.995124    1.558616
  H     -0.216393   -1.287634    0.896333
  H     -1.715056   -1.169015    2.646839
  H     -0.486806   -1.780883    3.720906
  H     -0.073791   -0.337690    2.824643

 Multiplicity           Mult            ....    1
 Number of Electrons    NEL             ....   18
 Basis Dimension        Dim             ....  172

ORBITAL ENERGIES
----------------

  NO   OCC          E(Eh)            E(eV)
   0   2.0000     -19.232536      -523.3439
   1   2.0000     -10.317584      -280.7557
   2   2.0000      -1.132289       -30.8112
   3   2.0000      -0.791705       -21.5434
   4   2.0000      -0.599982       -16.3263
   5   2.0000      -0.549500       -14.9527
   6   2.0000      -0.526507       -14.3270
   7   2.0000      -0.432465       -11.7680
   8   2.0000      -0.374903       -10.2016
   9   0.0000       0.099248         2.7007
  10   0.0000       0.121924         3.3177
  11   0.0000       0.151732         4.1289
  12   0.0000       0.190983         5.1969
  13   0.0000       0.201944         5.4952

MULLIKEN ATOMIC CHARGES
-----------------------
   0 C :    0.001486
   1 O :    0.003483
   2 H :   -0.017370
   3 H :   -0.000694
   4 H :   -0.000621
   5 H :   -0.000109
   6 C :   -0.178929
   7 O :   -0.459781
   8 H :    0.315848
   9 H :    0.111359
  10 H :    0.119838
  11 H :    0.105490
Sum of atomic charges:   -0.0000000

LOEWDIN ATOMIC CHARGES
----------------------
   0 C :   -0.002230
   1 O :   -0.009625
   2 H :   -0.052918
   3 H :   -0.000227
   4 H :   -0.000174
   5 H :   -0.000035
   6 C :   -0.374863
   7 O :   -0.045441
   8 H :    0.178358
   9 H :    0.096359
  10 H :    0.111388
  11 H :    0.099410

  Mayer bond orders larger than 0.1
B(  6-C ,  7-O ) :   0.9834 B(  6-C ,  9-H ) :   0.9811 B(  6-C , 10-H ) :   0.9726
B(  6-C , 11-H ) :   0.9756 B(  7-O ,  8-H ) :   0.8967

Dispersion correction           -0.000232225
FINAL SINGLE POINT ENERGY      -115.730516609092

DIPOLE MOMENT
-------------
                                X             Y             Z
Electronic contribution:      0.54832      -1.05052      -1.41105
Nuclear contribution   :     -0.69735       1.77939       1.49653
                        -----------------------------------------
Total Dipole Moment    :     -0.14903       0.72887       0.08548
                        -----------------------------------------
Magnitude (a.u.)       :      0.74884
Magnitude (Debye)      :      1.90341

Rotational constants in cm-1:     4.230044     0.810884     0.786519
Rotational constants in MHz : 126813.539351 24309.683936 23579.235472

                             ****ORCA TERMINATED NORMALLY****
TOTAL RUN TIME: 0 days 0 hours 0 minutes 57 seconds 816 msec
