                         Program Version 4.1.2  - RELEASE  -
|  1> #Run DFT-D3 single point of the dimer
|  2> ! wB97X-D3 def2-TZVP TIGHTSCF CHELPG PMODEL PAL8
|  3>
|  4> %base "10-47_DFT_AB"
|  5>
|  6> %scf
|  7> MaxIter 1000
|  8> end
|  9>
| 10> * xyz 0 1
| 11>   C                      6.640702             1.118679             1.001048
| 12>   O                      7.266035             -0.143782            1.123999
| 13>   H                      7.994274             -0.063849            0.473445
| 14>   H                      5.730766             1.058960             0.469523
| 15>   H                      6.333335             1.429739             2.003741
| 16>   H                      7.222567             1.942048             0.618447
| 17>   C                      3.420418             5.845011             0.660086
| 18>   O                      2.429957             6.029736             -0.337725
| 19>   H                      1.566711             5.596374             -0.098511
| 20>   H                      4.368750             5.492269             0.227254
| 21>   H                      3.701800             6.816077             1.027696
| 22>   H                      2.997500             5.226315             1.460489
| 23> *
| 24>
| 25> #Run DFT-D3 single point of the molecule with dimer basis set
| 26> $new_job
| 27> %base "10-47_DFT_A"
| 28> ! wB97X-D3 def2-TZVP TIGHTSCF CHELPG PMODEL
| 29>
| 30> %scf
| 31> MaxIter 1000
| 32> end
| 33>
| 34> * xyz 0 1
| 35>   C                      6.640702             1.118679             1.001048
| 36>   O                      7.266035             -0.143782            1.123999
| 37>   H                      7.994274             -0.063849            0.473445
| 38>   H                      5.730766             1.058960             0.469523
| 39>   H                      6.333335             1.429739             2.003741
| 40>   H                      7.222567             1.942048             0.618447
| 41>   C                    : 3.420418             5.845011             0.660086
| 42>   O                    : 2.429957             6.029736             -0.337725
| 43>   H                    : 1.566711             5.596374             -0.098511
| 44>   H                    : 4.368750             5.492269             0.227254
| 45>   H                    : 3.701800             6.816077             1.027696
| 46>   H                    : 2.997500             5.226315             1.460489
| 47> *
| 48>
| 49> #Run DFT-D3 single point of the particle with dimer basis set
| 50> $new_job
| 51> %base "10-47_DFT_B"
| 52> ! wB97X-D3 def2-TZVP TIGHTSCF CHELPG PMODEL
| 53>
| 54> %scf
| 55> MaxIter 1000
| 56> end
| 57>
| 58> * xyz 0 1
| 59>   C                    : 6.640702             1.118679             1.001048
| 60>   O                    : 7.266035             -0.143782            1.123999
| 61>   H                    : 7.994274             -0.063849            0.473445
| 62>   H                    : 5.730766             1.058960             0.469523
| 63>   H                    : 6.333335             1.429739             2.003741
| 64>   H                    : 7.222567             1.942048             0.618447
| 65>   C                      3.420418             5.845011             0.660086
| 66>   O                      2.429957             6.029736             -0.337725
| 67>   H                      1.566711             5.596374             -0.098511
| 68>   H                      4.368750             5.492269             0.227254
| 69>   H                      3.701800             6.816077             1.027696
| 70>   H                      2.997500             5.226315             1.460489
| 71> *
| 72>
| 73>                          ****END OF INPUT****
 Total Charge           Charge          ....    0
 Multiplicity           Mult            ....    1
 Number of Electrons    NEL             ....   36
Dispersion correction           -0.000612307
FINAL SINGLE POINT ENERGY      -231.462084422506
Dispersion correction           -0.000239590
FINAL SINGLE POINT ENERGY      -115.731214052710

CARTESIAN COORDINATES (ANGSTROEM)
---------------------------------
  C      6.640702    1.118679    1.001048
  O      7.266035   -0.143782    1.123999
  H      7.994274   -0.063849    0.473445
  H      5.730766    1.058960    0.469523
  H      6.333335    1.429739    2.003741
  H      7.222567    1.942048    0.618447
  C      3.420418    5.845011    0.660086
  O      2.429957    6.029736   -0.337725
  H      1.566711    5.596374   -0.098511
  H      4.368750    5.492269    0.227254
  H      3.701800    6.816077    1.027696
  H      2.997500    5.226315    1.460489

 Multiplicity           Mult            ....    1
 Number of Electrons    NEL             ....   18
 Basis Dimension        Dim             ....  172

ORBITAL ENERGIES
----------------

  NO   OCC          E(Eh)            E(eV)
   0   2.0000     -19.227729      -523.2131
   1   2.0000     -10.312126      -280.6072
   2   2.0000      -1.124271       -30.5930
   3   2.0000      -0.793956       -21.6046
   4   2.0000      -0.604730       -16.4555
   5   2.0000      -0.540295       -14.7022
   6   2.0000      -0.530204       -14.4276
   7   2.0000      -0.428313       -11.6550
   8   2.0000      -0.366159        -9.9637
   9   0.0000       0.085542         2.3277
  10   0.0000       0.108441         2.9508
  11   0.0000       0.146527         3.9872
  12   0.0000       0.171680         4.6717
  13   0.0000       0.189728         5.1628

MULLIKEN ATOMIC CHARGES
-----------------------
   0 C :    0.000002
   1 O :   -0.000001
   2 H :   -0.000000
   3 H :   -0.000021
   4 H :   -0.000017
   5 H :   -0.000028
   6 C :   -0.146995
   7 O :   -0.489100
   8 H :    0.321298
   9 H :    0.106525
  10 H :    0.103864
  11 H :    0.104474
Sum of atomic charges:    0.0000000

LOEWDIN ATOMIC CHARGES
----------------------
   0 C :   -0.000045
   1 O :   -0.000001
   2 H :   -0.000000
   3 H :   -0.000009
   4 H :   -0.000006
   5 H :   -0.000016
   6 C :   -0.379692
   7 O :   -0.103463
   8 H :    0.187263
   9 H :    0.102313
  10 H :    0.094611
  11 H :    0.099045

  Mayer bond orders larger than 0.1
B(  6-C ,  7-O ) :   1.0088 B(  6-C ,  9-H ) :   0.9743 B(  6-C , 10-H ) :   0.9796
B(  6-C , 11-H ) :   0.9865 B(  7-O ,  8-H ) :   0.8915

Dispersion correction           -0.000248258
FINAL SINGLE POINT ENERGY      -115.730711649924

DIPOLE MOMENT
-------------
                                X             Y             Z
Electronic contribution:     -1.14718       0.20606      -1.27361
Nuclear contribution   :      0.99046      -0.54887       1.84309
                        -----------------------------------------
Total Dipole Moment    :     -0.15672      -0.34281       0.56949
                        -----------------------------------------
Magnitude (a.u.)       :      0.68293
Magnitude (Debye)      :      1.73587

Rotational constants in cm-1:     4.261798     0.833810     0.790086
Rotational constants in MHz : 127765.493796 24996.997847 23686.191341

                             ****ORCA TERMINATED NORMALLY****
TOTAL RUN TIME: 0 days 0 hours 1 minutes 3 seconds 988 msec
