                         Program Version 4.1.2  - RELEASE  -
|  1> #Run DFT-D3 single point of the dimer
|  2> ! wB97X-D3 def2-TZVP TIGHTSCF CHELPG PMODEL PAL8
|  3>
|  4> %base "21-142_DFT_AB"
|  5>
|  6> %scf
|  7> MaxIter 1000
|  8> end
|  9>
| 10> * xyz 0 1
| 11>   C                      -2.546638            1.902959             -2.605679
| 12>   O                      -2.598122            0.758630             -3.458367
| 13>   H                      -3.379653            0.987957             -4.003683
| 14>   H                      -2.358352            2.803489             -3.201803
| 15>   H                      -3.498359            2.075437             -2.061589
| 16>   H                      -1.772985            1.821890             -1.845222
| 17>   C                      0.091192             -1.749890            -4.539063
| 18>   O                      -0.502179            -0.515485            -4.763093
| 19>   H                      -0.965131            -0.273473            -3.970408
| 20>   H                      -0.308437            -2.259169            -3.681666
| 21>   H                      0.147476             -2.344741            -5.426290
| 22>   H                      1.158647             -1.549646            -4.267280
| 23> *
| 24>
| 25> #Run DFT-D3 single point of the molecule with dimer basis set
| 26> $new_job
| 27> %base "21-142_DFT_A"
| 28> ! wB97X-D3 def2-TZVP TIGHTSCF CHELPG PMODEL
| 29>
| 30> %scf
| 31> MaxIter 1000
| 32> end
| 33>
| 34> * xyz 0 1
| 35>   C                      -2.546638            1.902959             -2.605679
| 36>   O                      -2.598122            0.758630             -3.458367
| 37>   H                      -3.379653            0.987957             -4.003683
| 38>   H                      -2.358352            2.803489             -3.201803
| 39>   H                      -3.498359            2.075437             -2.061589
| 40>   H                      -1.772985            1.821890             -1.845222
| 41>   C                    : 0.091192             -1.749890            -4.539063
| 42>   O                    : -0.502179            -0.515485            -4.763093
| 43>   H                    : -0.965131            -0.273473            -3.970408
| 44>   H                    : -0.308437            -2.259169            -3.681666
| 45>   H                    : 0.147476             -2.344741            -5.426290
| 46>   H                    : 1.158647             -1.549646            -4.267280
| 47> *
| 48>
| 49> #Run DFT-D3 single point of the particle with dimer basis set
| 50> $new_job
| 51> %base "21-142_DFT_B"
| 52> ! wB97X-D3 def2-TZVP TIGHTSCF CHELPG PMODEL
| 53>
| 54> %scf
| 55> MaxIter 1000
| 56> end
| 57>
| 58> * xyz 0 1
| 59>   C                    : -2.546638            1.902959             -2.605679
| 60>   O                    : -2.598122            0.758630             -3.458367
| 61>   H                    : -3.379653            0.987957             -4.003683
| 62>   H                    : -2.358352            2.803489             -3.201803
| 63>   H                    : -3.498359            2.075437             -2.061589
| 64>   H                    : -1.772985            1.821890             -1.845222
| 65>   C                      0.091192             -1.749890            -4.539063
| 66>   O                      -0.502179            -0.515485            -4.763093
| 67>   H                      -0.965131            -0.273473            -3.970408
| 68>   H                      -0.308437            -2.259169            -3.681666
| 69>   H                      0.147476             -2.344741            -5.426290
| 70>   H                      1.158647             -1.549646            -4.267280
| 71> *
| 72>
| 73>                          ****END OF INPUT****
 Total Charge           Charge          ....    0
 Multiplicity           Mult            ....    1
 Number of Electrons    NEL             ....   36
Dispersion correction           -0.001433399
FINAL SINGLE POINT ENERGY      -231.472206381738
Dispersion correction           -0.000228209
FINAL SINGLE POINT ENERGY      -115.734486394606

CARTESIAN COORDINATES (ANGSTROEM)
---------------------------------
  C     -2.546638    1.902959   -2.605679
  O     -2.598122    0.758630   -3.458367
  H     -3.379653    0.987957   -4.003683
  H     -2.358352    2.803489   -3.201803
  H     -3.498359    2.075437   -2.061589
  H     -1.772985    1.821890   -1.845222
  C      0.091192   -1.749890   -4.539063
  O     -0.502179   -0.515485   -4.763093
  H     -0.965131   -0.273473   -3.970408
  H     -0.308437   -2.259169   -3.681666
  H      0.147476   -2.344741   -5.426290
  H      1.158647   -1.549646   -4.267280

 Multiplicity           Mult            ....    1
 Number of Electrons    NEL             ....   18
 Basis Dimension        Dim             ....  172

ORBITAL ENERGIES
----------------

  NO   OCC          E(Eh)            E(eV)
   0   2.0000     -19.228544      -523.2353
   1   2.0000     -10.308808      -280.5169
   2   2.0000      -1.147178       -31.2163
   3   2.0000      -0.796834       -21.6830
   4   2.0000      -0.621176       -16.9031
   5   2.0000      -0.541442       -14.7334
   6   2.0000      -0.532542       -14.4912
   7   2.0000      -0.440534       -11.9875
   8   2.0000      -0.365987        -9.9590
   9   0.0000       0.074374         2.0238
  10   0.0000       0.127271         3.4632
  11   0.0000       0.156835         4.2677
  12   0.0000       0.169329         4.6077
  13   0.0000       0.193953         5.2777

MULLIKEN ATOMIC CHARGES
-----------------------
   0 C :   -0.000676
   1 O :   -0.002718
   2 H :   -0.000852
   3 H :    0.000006
   4 H :    0.000042
   5 H :   -0.000284
   6 C :   -0.165895
   7 O :   -0.457035
   8 H :    0.310791
   9 H :    0.104613
  10 H :    0.119518
  11 H :    0.092492
Sum of atomic charges:    0.0000000

LOEWDIN ATOMIC CHARGES
----------------------
   0 C :   -0.002688
   1 O :   -0.018825
   2 H :   -0.001413
   3 H :   -0.000062
   4 H :   -0.000048
   5 H :   -0.000300
   6 C :   -0.399946
   7 O :   -0.042538
   8 H :    0.173124
   9 H :    0.092736
  10 H :    0.099940
  11 H :    0.100021

  Mayer bond orders larger than 0.1
B(  6-C ,  7-O ) :   1.0057 B(  6-C ,  9-H ) :   0.9835 B(  6-C , 10-H ) :   0.9737
B(  6-C , 11-H ) :   0.9830 B(  7-O ,  8-H ) :   0.9026

Dispersion correction           -0.000224850
FINAL SINGLE POINT ENERGY      -115.732531319355

DIPOLE MOMENT
-------------
                                X             Y             Z
Electronic contribution:     -0.91361       1.50590      -0.48435
Nuclear contribution   :      0.83515      -1.83458       1.08254
                        -----------------------------------------
Total Dipole Moment    :     -0.07846      -0.32868       0.59819
                        -----------------------------------------
Magnitude (a.u.)       :      0.68704
Magnitude (Debye)      :      1.74631

Rotational constants in cm-1:     4.351365     0.864309     0.825892
Rotational constants in MHz : 130450.645367 25911.332428 24759.611699

                             ****ORCA TERMINATED NORMALLY****
TOTAL RUN TIME: 0 days 0 hours 1 minutes 6 seconds 324 msec
