                         Program Version 4.1.2  - RELEASE  -
|  1> #Run DFT-D3 single point of the dimer
|  2> ! wB97X-D3 def2-TZVP TIGHTSCF CHELPG PMODEL PAL8
|  3>
|  4> %base "1-35_DFT_AB"
|  5>
|  6> %scf
|  7> MaxIter 1000
|  8> end
|  9>
| 10> * xyz 0 1
| 11>   C                      -2.354992            4.220558             -11.114118
| 12>   O                      -3.266662            5.290288             -11.142796
| 13>   H                      -4.137291            4.981376             -11.457363
| 14>   H                      -1.583191            4.453698             -10.358504
| 15>   H                      -2.862234            3.277000             -10.825924
| 16>   H                      -1.849931            4.156217             -12.122973
| 17>   C                      -1.527041            -0.847425            -11.182250
| 18>   O                      -0.911996            -0.213570            -10.102933
| 19>   H                      -1.146121            0.702897             -10.048987
| 20>   H                      -1.105884            -0.660154            -12.145214
| 21>   H                      -1.571139            -1.950327            -11.070509
| 22>   H                      -2.558797            -0.586034            -11.158037
| 23> *
| 24>
| 25> #Run DFT-D3 single point of the molecule with dimer basis set
| 26> $new_job
| 27> %base "1-35_DFT_A"
| 28> ! wB97X-D3 def2-TZVP TIGHTSCF CHELPG PMODEL
| 29>
| 30> %scf
| 31> MaxIter 1000
| 32> end
| 33>
| 34> * xyz 0 1
| 35>   C                      -2.354992            4.220558             -11.114118
| 36>   O                      -3.266662            5.290288             -11.142796
| 37>   H                      -4.137291            4.981376             -11.457363
| 38>   H                      -1.583191            4.453698             -10.358504
| 39>   H                      -2.862234            3.277000             -10.825924
| 40>   H                      -1.849931            4.156217             -12.122973
| 41>   C                    : -1.527041            -0.847425            -11.182250
| 42>   O                    : -0.911996            -0.213570            -10.102933
| 43>   H                    : -1.146121            0.702897             -10.048987
| 44>   H                    : -1.105884            -0.660154            -12.145214
| 45>   H                    : -1.571139            -1.950327            -11.070509
| 46>   H                    : -2.558797            -0.586034            -11.158037
| 47> *
| 48>
| 49> #Run DFT-D3 single point of the particle with dimer basis set
| 50> $new_job
| 51> %base "1-35_DFT_B"
| 52> ! wB97X-D3 def2-TZVP TIGHTSCF CHELPG PMODEL
| 53>
| 54> %scf
| 55> MaxIter 1000
| 56> end
| 57>
| 58> * xyz 0 1
| 59>   C                    : -2.354992            4.220558             -11.114118
| 60>   O                    : -3.266662            5.290288             -11.142796
| 61>   H                    : -4.137291            4.981376             -11.457363
| 62>   H                    : -1.583191            4.453698             -10.358504
| 63>   H                    : -2.862234            3.277000             -10.825924
| 64>   H                    : -1.849931            4.156217             -12.122973
| 65>   C                      -1.527041            -0.847425            -11.182250
| 66>   O                      -0.911996            -0.213570            -10.102933
| 67>   H                      -1.146121            0.702897             -10.048987
| 68>   H                      -1.105884            -0.660154            -12.145214
| 69>   H                      -1.571139            -1.950327            -11.070509
| 70>   H                      -2.558797            -0.586034            -11.158037
| 71> *
| 72>
| 73>                          ****END OF INPUT****
 Total Charge           Charge          ....    0
 Multiplicity           Mult            ....    1
 Number of Electrons    NEL             ....   36
Dispersion correction           -0.000918507
FINAL SINGLE POINT ENERGY      -231.467262440376
Dispersion correction           -0.000244943
FINAL SINGLE POINT ENERGY      -115.734857608601

CARTESIAN COORDINATES (ANGSTROEM)
---------------------------------
  C     -2.354992    4.220558  -11.114118
  O     -3.266662    5.290288  -11.142796
  H     -4.137291    4.981376  -11.457363
  H     -1.583191    4.453698  -10.358504
  H     -2.862234    3.277000  -10.825924
  H     -1.849931    4.156217  -12.122973
  C     -1.527041   -0.847425  -11.182250
  O     -0.911996   -0.213570  -10.102933
  H     -1.146121    0.702897  -10.048987
  H     -1.105884   -0.660154  -12.145214
  H     -1.571139   -1.950327  -11.070509
  H     -2.558797   -0.586034  -11.158037

 Multiplicity           Mult            ....    1
 Number of Electrons    NEL             ....   18
 Basis Dimension        Dim             ....  172

ORBITAL ENERGIES
----------------

  NO   OCC          E(Eh)            E(eV)
   0   2.0000     -19.227045      -523.1945
   1   2.0000     -10.307102      -280.4705
   2   2.0000      -1.141666       -31.0663
   3   2.0000      -0.801473       -21.8092
   4   2.0000      -0.617175       -16.7942
   5   2.0000      -0.552164       -15.0252
   6   2.0000      -0.529649       -14.4125
   7   2.0000      -0.421125       -11.4594
   8   2.0000      -0.375673       -10.2226
   9   0.0000       0.071876         1.9558
  10   0.0000       0.118623         3.2279
  11   0.0000       0.150454         4.0941
  12   0.0000       0.168252         4.5784
  13   0.0000       0.192289         5.2324

MULLIKEN ATOMIC CHARGES
-----------------------
   0 C :   -0.000140
   1 O :   -0.000007
   2 H :   -0.000002
   3 H :    0.000034
   4 H :   -0.000456
   5 H :    0.000020
   6 C :   -0.154064
   7 O :   -0.481328
   8 H :    0.317246
   9 H :    0.100709
  10 H :    0.114961
  11 H :    0.103029
Sum of atomic charges:    0.0000000

LOEWDIN ATOMIC CHARGES
----------------------
   0 C :   -0.000502
   1 O :   -0.000010
   2 H :   -0.000001
   3 H :   -0.000028
   4 H :   -0.000403
   5 H :   -0.000007
   6 C :   -0.394764
   7 O :   -0.057922
   8 H :    0.161570
   9 H :    0.088055
  10 H :    0.112516
  11 H :    0.091498

  Mayer bond orders larger than 0.1
B(  6-C ,  7-O ) :   0.9977 B(  6-C ,  9-H ) :   0.9709 B(  6-C , 10-H ) :   0.9724
B(  6-C , 11-H ) :   0.9902 B(  7-O ,  8-H ) :   0.8986

Dispersion correction           -0.000238348
FINAL SINGLE POINT ENERGY      -115.732322531046

DIPOLE MOMENT
-------------
                                X             Y             Z
Electronic contribution:      0.94681       0.78849       1.37502
Nuclear contribution   :     -1.37231      -0.44853      -1.76338
                        -----------------------------------------
Total Dipole Moment    :     -0.42550       0.33996      -0.38836
                        -----------------------------------------
Magnitude (a.u.)       :      0.66892
Magnitude (Debye)      :      1.70025

Rotational constants in cm-1:     4.556643     0.839149     0.817085
Rotational constants in MHz : 136604.706448 25157.059794 24495.577847

                             ****ORCA TERMINATED NORMALLY****
TOTAL RUN TIME: 0 days 0 hours 6 minutes 13 seconds 658 msec
