                         Program Version 4.1.2  - RELEASE  -
|  1> #Run DFT-D3 single point of the dimer
|  2> ! wB97X-D3 def2-TZVP TIGHTSCF CHELPG PMODEL PAL8
|  3>
|  4> %base "19-50_DFT_AB"
|  5>
|  6> %scf
|  7> MaxIter 1000
|  8> end
|  9>
| 10> * xyz 0 1
| 11>   C                      -5.106868            5.364977             4.076705
| 12>   O                      -4.860362            6.614453             3.509791
| 13>   H                      -4.817998            6.497377             2.536860
| 14>   H                      -6.164157            5.347365             4.411321
| 15>   H                      -4.952286            4.468046             3.431176
| 16>   H                      -4.499261            5.272901             4.938925
| 17>   C                      -6.887373            3.246082             1.642868
| 18>   O                      -6.573383            2.769327             2.927779
| 19>   H                      -7.140905            3.251831             3.543406
| 20>   H                      -6.401635            2.690310             0.898574
| 21>   H                      -7.923389            3.193905             1.377150
| 22>   H                      -6.669870            4.306764             1.517213
| 23> *
| 24>
| 25> #Run DFT-D3 single point of the molecule with dimer basis set
| 26> $new_job
| 27> %base "19-50_DFT_A"
| 28> ! wB97X-D3 def2-TZVP TIGHTSCF CHELPG PMODEL
| 29>
| 30> %scf
| 31> MaxIter 1000
| 32> end
| 33>
| 34> * xyz 0 1
| 35>   C                      -5.106868            5.364977             4.076705
| 36>   O                      -4.860362            6.614453             3.509791
| 37>   H                      -4.817998            6.497377             2.536860
| 38>   H                      -6.164157            5.347365             4.411321
| 39>   H                      -4.952286            4.468046             3.431176
| 40>   H                      -4.499261            5.272901             4.938925
| 41>   C                    : -6.887373            3.246082             1.642868
| 42>   O                    : -6.573383            2.769327             2.927779
| 43>   H                    : -7.140905            3.251831             3.543406
| 44>   H                    : -6.401635            2.690310             0.898574
| 45>   H                    : -7.923389            3.193905             1.377150
| 46>   H                    : -6.669870            4.306764             1.517213
| 47> *
| 48>
| 49> #Run DFT-D3 single point of the particle with dimer basis set
| 50> $new_job
| 51> %base "19-50_DFT_B"
| 52> ! wB97X-D3 def2-TZVP TIGHTSCF CHELPG PMODEL
| 53>
| 54> %scf
| 55> MaxIter 1000
| 56> end
| 57>
| 58> * xyz 0 1
| 59>   C                    : -5.106868            5.364977             4.076705
| 60>   O                    : -4.860362            6.614453             3.509791
| 61>   H                    : -4.817998            6.497377             2.536860
| 62>   H                    : -6.164157            5.347365             4.411321
| 63>   H                    : -4.952286            4.468046             3.431176
| 64>   H                    : -4.499261            5.272901             4.938925
| 65>   C                      -6.887373            3.246082             1.642868
| 66>   O                      -6.573383            2.769327             2.927779
| 67>   H                      -7.140905            3.251831             3.543406
| 68>   H                      -6.401635            2.690310             0.898574
| 69>   H                      -7.923389            3.193905             1.377150
| 70>   H                      -6.669870            4.306764             1.517213
| 71> *
| 72>
| 73>                          ****END OF INPUT****
 Total Charge           Charge          ....    0
 Multiplicity           Mult            ....    1
 Number of Electrons    NEL             ....   36
Dispersion correction           -0.002095397
FINAL SINGLE POINT ENERGY      -231.468808005767
Dispersion correction           -0.000245977
FINAL SINGLE POINT ENERGY      -115.733255374670

CARTESIAN COORDINATES (ANGSTROEM)
---------------------------------
  C     -5.106868    5.364977    4.076705
  O     -4.860362    6.614453    3.509791
  H     -4.817998    6.497377    2.536860
  H     -6.164157    5.347365    4.411321
  H     -4.952286    4.468046    3.431176
  H     -4.499261    5.272901    4.938925
  C     -6.887373    3.246082    1.642868
  O     -6.573383    2.769327    2.927779
  H     -7.140905    3.251831    3.543406
  H     -6.401635    2.690310    0.898574
  H     -7.923389    3.193905    1.377150
  H     -6.669870    4.306764    1.517213

 Multiplicity           Mult            ....    1
 Number of Electrons    NEL             ....   18
 Basis Dimension        Dim             ....  172

ORBITAL ENERGIES
----------------

  NO   OCC          E(Eh)            E(eV)
   0   2.0000     -19.234931      -523.4091
   1   2.0000     -10.304117      -280.3893
   2   2.0000      -1.140031       -31.0218
   3   2.0000      -0.802572       -21.8391
   4   2.0000      -0.617655       -16.8072
   5   2.0000      -0.541702       -14.7405
   6   2.0000      -0.529942       -14.4205
   7   2.0000      -0.441983       -12.0270
   8   2.0000      -0.373940       -10.1754
   9   0.0000       0.083433         2.2703
  10   0.0000       0.134063         3.6480
  11   0.0000       0.147796         4.0217
  12   0.0000       0.180484         4.9112
  13   0.0000       0.198415         5.3991

MULLIKEN ATOMIC CHARGES
-----------------------
   0 C :   -0.009312
   1 O :   -0.000122
   2 H :   -0.000086
   3 H :   -0.002848
   4 H :    0.002565
   5 H :   -0.000750
   6 C :   -0.167446
   7 O :   -0.464005
   8 H :    0.318055
   9 H :    0.120583
  10 H :    0.105348
  11 H :    0.098018
Sum of atomic charges:    0.0000000

LOEWDIN ATOMIC CHARGES
----------------------
   0 C :   -0.013810
   1 O :   -0.000139
   2 H :   -0.000642
   3 H :   -0.003018
   4 H :   -0.013499
   5 H :   -0.000172
   6 C :   -0.385142
   7 O :   -0.047624
   8 H :    0.177616
   9 H :    0.099510
  10 H :    0.091395
  11 H :    0.095525

  Mayer bond orders larger than 0.1
B(  6-C ,  7-O ) :   1.0000 B(  6-C ,  9-H ) :   0.9784 B(  6-C , 10-H ) :   0.9766
B(  6-C , 11-H ) :   0.9769 B(  7-O ,  8-H ) :   0.8978

Dispersion correction           -0.000232535
FINAL SINGLE POINT ENERGY      -115.734385993245

DIPOLE MOMENT
-------------
                                X             Y             Z
Electronic contribution:      0.56985      -0.80018       1.63467
Nuclear contribution   :     -1.06659       1.26560      -1.77119
                        -----------------------------------------
Total Dipole Moment    :     -0.49674       0.46542      -0.13652
                        -----------------------------------------
Magnitude (a.u.)       :      0.69427
Magnitude (Debye)      :      1.76468

Rotational constants in cm-1:     4.532736     0.838872     0.804646
Rotational constants in MHz : 135888.021048 25148.742355 24122.685244

                             ****ORCA TERMINATED NORMALLY****
TOTAL RUN TIME: 0 days 0 hours 0 minutes 45 seconds 494 msec
