                         Program Version 4.1.2  - RELEASE  -
|  1> #Run DFT-D3 single point of the dimer
|  2> ! wB97X-D3 def2-TZVP TIGHTSCF CHELPG PMODEL PAL8
|  3>
|  4> %base "22-96_DFT_AB"
|  5>
|  6> %scf
|  7> MaxIter 1000
|  8> end
|  9>
| 10> * xyz 0 1
| 11>   C                      8.152796             8.556054             -5.321419
| 12>   O                      6.909219             9.044673             -4.812207
| 13>   H                      6.285718             8.702034             -5.470259
| 14>   H                      8.064256             8.349003             -6.365875
| 15>   H                      9.010342             9.257000             -5.240811
| 16>   H                      8.377186             7.606242             -4.788367
| 17>   C                      9.440187             5.696711             -8.566537
| 18>   O                      9.077170             6.990644             -8.217898
| 19>   H                      9.848764             7.280291             -7.636843
| 20>   H                      10.334017            5.632218             -9.068581
| 21>   H                      9.480572             5.028282             -7.687042
| 22>   H                      8.764432             5.226943             -9.308823
| 23> *
| 24>
| 25> #Run DFT-D3 single point of the molecule with dimer basis set
| 26> $new_job
| 27> %base "22-96_DFT_A"
| 28> ! wB97X-D3 def2-TZVP TIGHTSCF CHELPG PMODEL
| 29>
| 30> %scf
| 31> MaxIter 1000
| 32> end
| 33>
| 34> * xyz 0 1
| 35>   C                      8.152796             8.556054             -5.321419
| 36>   O                      6.909219             9.044673             -4.812207
| 37>   H                      6.285718             8.702034             -5.470259
| 38>   H                      8.064256             8.349003             -6.365875
| 39>   H                      9.010342             9.257000             -5.240811
| 40>   H                      8.377186             7.606242             -4.788367
| 41>   C                    : 9.440187             5.696711             -8.566537
| 42>   O                    : 9.077170             6.990644             -8.217898
| 43>   H                    : 9.848764             7.280291             -7.636843
| 44>   H                    : 10.334017            5.632218             -9.068581
| 45>   H                    : 9.480572             5.028282             -7.687042
| 46>   H                    : 8.764432             5.226943             -9.308823
| 47> *
| 48>
| 49> #Run DFT-D3 single point of the particle with dimer basis set
| 50> $new_job
| 51> %base "22-96_DFT_B"
| 52> ! wB97X-D3 def2-TZVP TIGHTSCF CHELPG PMODEL
| 53>
| 54> %scf
| 55> MaxIter 1000
| 56> end
| 57>
| 58> * xyz 0 1
| 59>   C                    : 8.152796             8.556054             -5.321419
| 60>   O                    : 6.909219             9.044673             -4.812207
| 61>   H                    : 6.285718             8.702034             -5.470259
| 62>   H                    : 8.064256             8.349003             -6.365875
| 63>   H                    : 9.010342             9.257000             -5.240811
| 64>   H                    : 8.377186             7.606242             -4.788367
| 65>   C                      9.440187             5.696711             -8.566537
| 66>   O                      9.077170             6.990644             -8.217898
| 67>   H                      9.848764             7.280291             -7.636843
| 68>   H                      10.334017            5.632218             -9.068581
| 69>   H                      9.480572             5.028282             -7.687042
| 70>   H                      8.764432             5.226943             -9.308823
| 71> *
| 72>
| 73>                          ****END OF INPUT****
 Total Charge           Charge          ....    0
 Multiplicity           Mult            ....    1
 Number of Electrons    NEL             ....   36
Dispersion correction           -0.001456775
FINAL SINGLE POINT ENERGY      -231.461836181519
Dispersion correction           -0.000234502
FINAL SINGLE POINT ENERGY      -115.731860702816

CARTESIAN COORDINATES (ANGSTROEM)
---------------------------------
  C      8.152796    8.556054   -5.321419
  O      6.909219    9.044673   -4.812207
  H      6.285718    8.702034   -5.470259
  H      8.064256    8.349003   -6.365875
  H      9.010342    9.257000   -5.240811
  H      8.377186    7.606242   -4.788367
  C      9.440187    5.696711   -8.566537
  O      9.077170    6.990644   -8.217898
  H      9.848764    7.280291   -7.636843
  H     10.334017    5.632218   -9.068581
  H      9.480572    5.028282   -7.687042
  H      8.764432    5.226943   -9.308823

 Multiplicity           Mult            ....    1
 Number of Electrons    NEL             ....   18
 Basis Dimension        Dim             ....  172

ORBITAL ENERGIES
----------------

  NO   OCC          E(Eh)            E(eV)
   0   2.0000     -19.238984      -523.5194
   1   2.0000     -10.305245      -280.4200
   2   2.0000      -1.141122       -31.0515
   3   2.0000      -0.794207       -21.6115
   4   2.0000      -0.611720       -16.6457
   5   2.0000      -0.551074       -14.9955
   6   2.0000      -0.528269       -14.3749
   7   2.0000      -0.432691       -11.7741
   8   2.0000      -0.375038       -10.2053
   9   0.0000       0.084421         2.2972
  10   0.0000       0.125133         3.4050
  11   0.0000       0.152152         4.1403
  12   0.0000       0.178846         4.8666
  13   0.0000       0.190440         5.1821

MULLIKEN ATOMIC CHARGES
-----------------------
   0 C :   -0.007375
   1 O :   -0.000041
   2 H :   -0.000136
   3 H :   -0.002852
   4 H :    0.000328
   5 H :    0.000440
   6 C :   -0.177562
   7 O :   -0.452110
   8 H :    0.321798
   9 H :    0.110108
  10 H :    0.094687
  11 H :    0.112715
Sum of atomic charges:   -0.0000000

LOEWDIN ATOMIC CHARGES
----------------------
   0 C :   -0.007990
   1 O :   -0.000043
   2 H :   -0.000030
   3 H :   -0.011133
   4 H :   -0.000191
   5 H :   -0.000510
   6 C :   -0.414983
   7 O :   -0.059470
   8 H :    0.206639
   9 H :    0.079546
  10 H :    0.095876
  11 H :    0.112289

  Mayer bond orders larger than 0.1
B(  6-C ,  7-O ) :   1.0073 B(  6-C ,  9-H ) :   0.9747 B(  6-C , 10-H ) :   0.9799
B(  6-C , 11-H ) :   0.9737 B(  7-O ,  8-H ) :   0.8894

Dispersion correction           -0.000220201
FINAL SINGLE POINT ENERGY      -115.728480866006

DIPOLE MOMENT
-------------
                                X             Y             Z
Electronic contribution:     -0.59591       1.78986       0.36360
Nuclear contribution   :      1.22427      -2.10276      -0.18770
                        -----------------------------------------
Total Dipole Moment    :      0.62836      -0.31290       0.17590
                        -----------------------------------------
Magnitude (a.u.)       :      0.72366
Magnitude (Debye)      :      1.83939

Rotational constants in cm-1:     4.357078     0.855639     0.820176
Rotational constants in MHz : 130621.922569 25651.405120 24588.245545

                             ****ORCA TERMINATED NORMALLY****
TOTAL RUN TIME: 0 days 0 hours 0 minutes 49 seconds 308 msec
