                         Program Version 4.1.2  - RELEASE  -
|  1> #Run DFT-D3 single point of the dimer
|  2> ! wB97X-D3 def2-TZVP TIGHTSCF CHELPG PMODEL PAL8
|  3>
|  4> %base "14-57_DFT_AB"
|  5>
|  6> %scf
|  7> MaxIter 1000
|  8> end
|  9>
| 10> * xyz 0 1
| 11>   C                      4.463888             10.329483            8.452455
| 12>   O                      5.053410             11.626280            8.445353
| 13>   H                      5.107064             11.999492            9.351809
| 14>   H                      3.465351             10.341592            8.955897
| 15>   H                      4.478914             10.000706            7.463618
| 16>   H                      5.187701             9.732460             8.978266
| 17>   C                      0.420741             10.623479            11.305474
| 18>   O                      0.797643             9.738341             10.295396
| 19>   H                      0.225182             9.836223             9.508148
| 20>   H                      0.955184             10.412358            12.187692
| 21>   H                      0.691266             11.632230            10.996081
| 22>   H                      -0.674842            10.649295            11.323613
| 23> *
| 24>
| 25> #Run DFT-D3 single point of the molecule with dimer basis set
| 26> $new_job
| 27> %base "14-57_DFT_A"
| 28> ! wB97X-D3 def2-TZVP TIGHTSCF CHELPG PMODEL
| 29>
| 30> %scf
| 31> MaxIter 1000
| 32> end
| 33>
| 34> * xyz 0 1
| 35>   C                      4.463888             10.329483            8.452455
| 36>   O                      5.053410             11.626280            8.445353
| 37>   H                      5.107064             11.999492            9.351809
| 38>   H                      3.465351             10.341592            8.955897
| 39>   H                      4.478914             10.000706            7.463618
| 40>   H                      5.187701             9.732460             8.978266
| 41>   C                    : 0.420741             10.623479            11.305474
| 42>   O                    : 0.797643             9.738341             10.295396
| 43>   H                    : 0.225182             9.836223             9.508148
| 44>   H                    : 0.955184             10.412358            12.187692
| 45>   H                    : 0.691266             11.632230            10.996081
| 46>   H                    : -0.674842            10.649295            11.323613
| 47> *
| 48>
| 49> #Run DFT-D3 single point of the particle with dimer basis set
| 50> $new_job
| 51> %base "14-57_DFT_B"
| 52> ! wB97X-D3 def2-TZVP TIGHTSCF CHELPG PMODEL
| 53>
| 54> %scf
| 55> MaxIter 1000
| 56> end
| 57>
| 58> * xyz 0 1
| 59>   C                    : 4.463888             10.329483            8.452455
| 60>   O                    : 5.053410             11.626280            8.445353
| 61>   H                    : 5.107064             11.999492            9.351809
| 62>   H                    : 3.465351             10.341592            8.955897
| 63>   H                    : 4.478914             10.000706            7.463618
| 64>   H                    : 5.187701             9.732460             8.978266
| 65>   C                      0.420741             10.623479            11.305474
| 66>   O                      0.797643             9.738341             10.295396
| 67>   H                      0.225182             9.836223             9.508148
| 68>   H                      0.955184             10.412358            12.187692
| 69>   H                      0.691266             11.632230            10.996081
| 70>   H                      -0.674842            10.649295            11.323613
| 71> *
| 72>
| 73>                          ****END OF INPUT****
 Total Charge           Charge          ....    0
 Multiplicity           Mult            ....    1
 Number of Electrons    NEL             ....   36
Dispersion correction           -0.001030725
FINAL SINGLE POINT ENERGY      -231.463243398477
Dispersion correction           -0.000225182
FINAL SINGLE POINT ENERGY      -115.730633300006

CARTESIAN COORDINATES (ANGSTROEM)
---------------------------------
  C      4.463888   10.329483    8.452455
  O      5.053410   11.626280    8.445353
  H      5.107064   11.999492    9.351809
  H      3.465351   10.341592    8.955897
  H      4.478914   10.000706    7.463618
  H      5.187701    9.732460    8.978266
  C      0.420741   10.623479   11.305474
  O      0.797643    9.738341   10.295396
  H      0.225182    9.836223    9.508148
  H      0.955184   10.412358   12.187692
  H      0.691266   11.632230   10.996081
  H     -0.674842   10.649295   11.323613

 Multiplicity           Mult            ....    1
 Number of Electrons    NEL             ....   18
 Basis Dimension        Dim             ....  172

ORBITAL ENERGIES
----------------

  NO   OCC          E(Eh)            E(eV)
   0   2.0000     -19.226211      -523.1718
   1   2.0000     -10.307466      -280.4804
   2   2.0000      -1.135768       -30.9058
   3   2.0000      -0.796539       -21.6749
   4   2.0000      -0.614155       -16.7120
   5   2.0000      -0.546217       -14.8633
   6   2.0000      -0.532954       -14.5024
   7   2.0000      -0.432789       -11.7768
   8   2.0000      -0.363992        -9.9047
   9   0.0000       0.092932         2.5288
  10   0.0000       0.115331         3.1383
  11   0.0000       0.157178         4.2770
  12   0.0000       0.174415         4.7461
  13   0.0000       0.195696         5.3251

MULLIKEN ATOMIC CHARGES
-----------------------
   0 C :    0.002383
   1 O :   -0.000005
   2 H :   -0.000017
   3 H :   -0.008077
   4 H :   -0.000063
   5 H :   -0.000161
   6 C :   -0.143109
   7 O :   -0.483441
   8 H :    0.316985
   9 H :    0.123917
  10 H :    0.091837
  11 H :    0.099750
Sum of atomic charges:   -0.0000000

LOEWDIN ATOMIC CHARGES
----------------------
   0 C :   -0.001228
   1 O :   -0.000025
   2 H :   -0.000004
   3 H :   -0.005644
   4 H :   -0.000007
   5 H :   -0.000014
   6 C :   -0.388117
   7 O :   -0.073863
   8 H :    0.179457
   9 H :    0.100465
  10 H :    0.091719
  11 H :    0.097262

  Mayer bond orders larger than 0.1
B(  6-C ,  7-O ) :   0.9871 B(  6-C ,  9-H ) :   0.9721 B(  6-C , 10-H ) :   0.9824
B(  6-C , 11-H ) :   0.9831 B(  7-O ,  8-H ) :   0.8930

Dispersion correction           -0.000212448
FINAL SINGLE POINT ENERGY      -115.730982753128

DIPOLE MOMENT
-------------
                                X             Y             Z
Electronic contribution:      0.58404      -1.26478      -0.99102
Nuclear contribution   :     -1.10193       1.68166       0.89638
                        -----------------------------------------
Total Dipole Moment    :     -0.51790       0.41688      -0.09464
                        -----------------------------------------
Magnitude (a.u.)       :      0.67154
Magnitude (Debye)      :      1.70691

Rotational constants in cm-1:     4.294604     0.865720     0.820883
Rotational constants in MHz : 128748.975070 25953.623141 24609.445094

                             ****ORCA TERMINATED NORMALLY****
TOTAL RUN TIME: 0 days 0 hours 0 minutes 57 seconds 98 msec
