                         Program Version 4.1.2  - RELEASE  -
|  1> #Run DFT-D3 single point of the dimer
|  2> ! wB97X-D3 def2-TZVP TIGHTSCF CHELPG PMODEL PAL8
|  3>
|  4> %base "5-48_DFT_AB"
|  5>
|  6> %scf
|  7> MaxIter 1000
|  8> end
|  9>
| 10> * xyz 0 1
| 11>   C                      -2.327879            -1.689422            -8.778547
| 12>   O                      -1.414397            -2.216028            -7.842568
| 13>   H                      -1.431879            -3.135477            -8.159358
| 14>   H                      -1.907718            -1.481460            -9.705796
| 15>   H                      -3.138934            -2.311804            -8.966968
| 16>   H                      -2.843604            -0.810400            -8.339234
| 17>   C                      -4.415804            -6.305064            -9.010949
| 18>   O                      -3.554945            -7.024887            -9.821782
| 19>   H                      -3.705395            -6.707970            -10.700897
| 20>   H                      -4.060751            -5.249625            -8.799378
| 21>   H                      -5.379806            -6.265267            -9.537826
| 22>   H                      -4.717809            -6.763836            -8.096143
| 23> *
| 24>
| 25> #Run DFT-D3 single point of the molecule with dimer basis set
| 26> $new_job
| 27> %base "5-48_DFT_A"
| 28> ! wB97X-D3 def2-TZVP TIGHTSCF CHELPG PMODEL
| 29>
| 30> %scf
| 31> MaxIter 1000
| 32> end
| 33>
| 34> * xyz 0 1
| 35>   C                      -2.327879            -1.689422            -8.778547
| 36>   O                      -1.414397            -2.216028            -7.842568
| 37>   H                      -1.431879            -3.135477            -8.159358
| 38>   H                      -1.907718            -1.481460            -9.705796
| 39>   H                      -3.138934            -2.311804            -8.966968
| 40>   H                      -2.843604            -0.810400            -8.339234
| 41>   C                    : -4.415804            -6.305064            -9.010949
| 42>   O                    : -3.554945            -7.024887            -9.821782
| 43>   H                    : -3.705395            -6.707970            -10.700897
| 44>   H                    : -4.060751            -5.249625            -8.799378
| 45>   H                    : -5.379806            -6.265267            -9.537826
| 46>   H                    : -4.717809            -6.763836            -8.096143
| 47> *
| 48>
| 49> #Run DFT-D3 single point of the particle with dimer basis set
| 50> $new_job
| 51> %base "5-48_DFT_B"
| 52> ! wB97X-D3 def2-TZVP TIGHTSCF CHELPG PMODEL
| 53>
| 54> %scf
| 55> MaxIter 1000
| 56> end
| 57>
| 58> * xyz 0 1
| 59>   C                    : -2.327879            -1.689422            -8.778547
| 60>   O                    : -1.414397            -2.216028            -7.842568
| 61>   H                    : -1.431879            -3.135477            -8.159358
| 62>   H                    : -1.907718            -1.481460            -9.705796
| 63>   H                    : -3.138934            -2.311804            -8.966968
| 64>   H                    : -2.843604            -0.810400            -8.339234
| 65>   C                      -4.415804            -6.305064            -9.010949
| 66>   O                      -3.554945            -7.024887            -9.821782
| 67>   H                      -3.705395            -6.707970            -10.700897
| 68>   H                      -4.060751            -5.249625            -8.799378
| 69>   H                      -5.379806            -6.265267            -9.537826
| 70>   H                      -4.717809            -6.763836            -8.096143
| 71> *
| 72>
| 73>                          ****END OF INPUT****
 Total Charge           Charge          ....    0
 Multiplicity           Mult            ....    1
 Number of Electrons    NEL             ....   36
Dispersion correction           -0.000877400
FINAL SINGLE POINT ENERGY      -231.457265881525
Dispersion correction           -0.000207047
FINAL SINGLE POINT ENERGY      -115.726564945215

CARTESIAN COORDINATES (ANGSTROEM)
---------------------------------
  C     -2.327879   -1.689422   -8.778547
  O     -1.414397   -2.216028   -7.842568
  H     -1.431879   -3.135477   -8.159358
  H     -1.907718   -1.481460   -9.705796
  H     -3.138934   -2.311804   -8.966968
  H     -2.843604   -0.810400   -8.339234
  C     -4.415804   -6.305064   -9.010949
  O     -3.554945   -7.024887   -9.821782
  H     -3.705395   -6.707970  -10.700897
  H     -4.060751   -5.249625   -8.799378
  H     -5.379806   -6.265267   -9.537826
  H     -4.717809   -6.763836   -8.096143

 Multiplicity           Mult            ....    1
 Number of Electrons    NEL             ....   18
 Basis Dimension        Dim             ....  172

ORBITAL ENERGIES
----------------

  NO   OCC          E(Eh)            E(eV)
   0   2.0000     -19.230551      -523.2899
   1   2.0000     -10.312527      -280.6181
   2   2.0000      -1.150969       -31.3195
   3   2.0000      -0.794724       -21.6255
   4   2.0000      -0.616674       -16.7806
   5   2.0000      -0.547111       -14.8876
   6   2.0000      -0.536634       -14.6026
   7   2.0000      -0.426431       -11.6038
   8   2.0000      -0.373755       -10.1704
   9   0.0000       0.084062         2.2874
  10   0.0000       0.117463         3.1963
  11   0.0000       0.153691         4.1821
  12   0.0000       0.167789         4.5658
  13   0.0000       0.185030         5.0349

MULLIKEN ATOMIC CHARGES
-----------------------
   0 C :   -0.000183
   1 O :   -0.000030
   2 H :    0.000211
   3 H :   -0.000026
   4 H :   -0.000061
   5 H :    0.000028
   6 C :   -0.167615
   7 O :   -0.458493
   8 H :    0.319553
   9 H :    0.092673
  10 H :    0.096432
  11 H :    0.117511
Sum of atomic charges:    0.0000000

LOEWDIN ATOMIC CHARGES
----------------------
   0 C :   -0.000416
   1 O :   -0.000009
   2 H :   -0.000165
   3 H :   -0.000004
   4 H :   -0.000934
   5 H :   -0.000001
   6 C :   -0.413297
   7 O :   -0.048709
   8 H :    0.167072
   9 H :    0.099623
  10 H :    0.096956
  11 H :    0.099884

  Mayer bond orders larger than 0.1
B(  6-C ,  7-O ) :   1.0080 B(  6-C ,  9-H ) :   0.9699 B(  6-C , 10-H ) :   0.9946
B(  6-C , 11-H ) :   0.9696 B(  7-O ,  8-H ) :   0.8994

Dispersion correction           -0.000226227
FINAL SINGLE POINT ENERGY      -115.730213609456

DIPOLE MOMENT
-------------
                                X             Y             Z
Electronic contribution:      1.32269      -1.09944      -0.87483
Nuclear contribution   :     -1.77106       1.53489       0.61952
                        -----------------------------------------
Total Dipole Moment    :     -0.44837       0.43545      -0.25531
                        -----------------------------------------
Magnitude (a.u.)       :      0.67516
Magnitude (Debye)      :      1.71611

Rotational constants in cm-1:     4.347528     0.850195     0.832476
Rotational constants in MHz : 130335.614451 25488.217206 24956.990992

                             ****ORCA TERMINATED NORMALLY****
TOTAL RUN TIME: 0 days 0 hours 0 minutes 48 seconds 434 msec
