                         Program Version 4.1.2  - RELEASE  -
|  1> #Run DFT-D3 single point of the dimer
|  2> ! wB97X-D3 def2-TZVP TIGHTSCF CHELPG PMODEL PAL8
|  3>
|  4> %base "18-57_DFT_AB"
|  5>
|  6> %scf
|  7> MaxIter 1000
|  8> end
|  9>
| 10> * xyz 0 1
| 11>   C                      1.360282             -4.777872            -0.154041
| 12>   O                      0.112124             -4.454516            0.466890
| 13>   H                      0.255263             -3.645348            0.929075
| 14>   H                      1.579164             -4.006664            -0.829384
| 15>   H                      2.089112             -4.804114            0.602860
| 16>   H                      1.466500             -5.741228            -0.685839
| 17>   C                      3.469008             -1.396693            3.312950
| 18>   O                      3.053525             -0.547470            4.334124
| 19>   H                      2.250818             -0.779523            4.803818
| 20>   H                      2.663102             -1.734516            2.755334
| 21>   H                      4.191269             -0.832370            2.641933
| 22>   H                      4.043062             -2.278263            3.746632
| 23> *
| 24>
| 25> #Run DFT-D3 single point of the molecule with dimer basis set
| 26> $new_job
| 27> %base "18-57_DFT_A"
| 28> ! wB97X-D3 def2-TZVP TIGHTSCF CHELPG PMODEL
| 29>
| 30> %scf
| 31> MaxIter 1000
| 32> end
| 33>
| 34> * xyz 0 1
| 35>   C                      1.360282             -4.777872            -0.154041
| 36>   O                      0.112124             -4.454516            0.466890
| 37>   H                      0.255263             -3.645348            0.929075
| 38>   H                      1.579164             -4.006664            -0.829384
| 39>   H                      2.089112             -4.804114            0.602860
| 40>   H                      1.466500             -5.741228            -0.685839
| 41>   C                    : 3.469008             -1.396693            3.312950
| 42>   O                    : 3.053525             -0.547470            4.334124
| 43>   H                    : 2.250818             -0.779523            4.803818
| 44>   H                    : 2.663102             -1.734516            2.755334
| 45>   H                    : 4.191269             -0.832370            2.641933
| 46>   H                    : 4.043062             -2.278263            3.746632
| 47> *
| 48>
| 49> #Run DFT-D3 single point of the particle with dimer basis set
| 50> $new_job
| 51> %base "18-57_DFT_B"
| 52> ! wB97X-D3 def2-TZVP TIGHTSCF CHELPG PMODEL
| 53>
| 54> %scf
| 55> MaxIter 1000
| 56> end
| 57>
| 58> * xyz 0 1
| 59>   C                    : 1.360282             -4.777872            -0.154041
| 60>   O                    : 0.112124             -4.454516            0.466890
| 61>   H                    : 0.255263             -3.645348            0.929075
| 62>   H                    : 1.579164             -4.006664            -0.829384
| 63>   H                    : 2.089112             -4.804114            0.602860
| 64>   H                    : 1.466500             -5.741228            -0.685839
| 65>   C                      3.469008             -1.396693            3.312950
| 66>   O                      3.053525             -0.547470            4.334124
| 67>   H                      2.250818             -0.779523            4.803818
| 68>   H                      2.663102             -1.734516            2.755334
| 69>   H                      4.191269             -0.832370            2.641933
| 70>   H                      4.043062             -2.278263            3.746632
| 71> *
| 72>
| 73>                          ****END OF INPUT****
 Total Charge           Charge          ....    0
 Multiplicity           Mult            ....    1
 Number of Electrons    NEL             ....   36
Dispersion correction           -0.000776131
FINAL SINGLE POINT ENERGY      -231.458980945791
Dispersion correction           -0.000217386
FINAL SINGLE POINT ENERGY      -115.728443686174

CARTESIAN COORDINATES (ANGSTROEM)
---------------------------------
  C      1.360282   -4.777872   -0.154041
  O      0.112124   -4.454516    0.466890
  H      0.255263   -3.645348    0.929075
  H      1.579164   -4.006664   -0.829384
  H      2.089112   -4.804114    0.602860
  H      1.466500   -5.741228   -0.685839
  C      3.469008   -1.396693    3.312950
  O      3.053525   -0.547470    4.334124
  H      2.250818   -0.779523    4.803818
  H      2.663102   -1.734516    2.755334
  H      4.191269   -0.832370    2.641933
  H      4.043062   -2.278263    3.746632

 Multiplicity           Mult            ....    1
 Number of Electrons    NEL             ....   18
 Basis Dimension        Dim             ....  172

ORBITAL ENERGIES
----------------

  NO   OCC          E(Eh)            E(eV)
   0   2.0000     -19.224277      -523.1192
   1   2.0000     -10.314682      -280.6768
   2   2.0000      -1.136596       -30.9284
   3   2.0000      -0.796617       -21.6770
   4   2.0000      -0.618287       -16.8244
   5   2.0000      -0.542022       -14.7492
   6   2.0000      -0.527709       -14.3597
   7   2.0000      -0.421013       -11.4563
   8   2.0000      -0.368736       -10.0338
   9   0.0000       0.080563         2.1922
  10   0.0000       0.117900         3.2082
  11   0.0000       0.148500         4.0409
  12   0.0000       0.161887         4.4052
  13   0.0000       0.185905         5.0587

MULLIKEN ATOMIC CHARGES
-----------------------
   0 C :    0.000092
   1 O :    0.000027
   2 H :   -0.000158
   3 H :   -0.000017
   4 H :   -0.000203
   5 H :   -0.000009
   6 C :   -0.138919
   7 O :   -0.493428
   8 H :    0.319138
   9 H :    0.108337
  10 H :    0.113486
  11 H :    0.091654
Sum of atomic charges:   -0.0000000

LOEWDIN ATOMIC CHARGES
----------------------
   0 C :   -0.000119
   1 O :   -0.000007
   2 H :   -0.000220
   3 H :   -0.000007
   4 H :   -0.000100
   5 H :   -0.000002
   6 C :   -0.396259
   7 O :   -0.066685
   8 H :    0.165731
   9 H :    0.080578
  10 H :    0.116641
  11 H :    0.100449

  Mayer bond orders larger than 0.1
B(  6-C ,  7-O ) :   0.9945 B(  6-C ,  9-H ) :   0.9804 B(  6-C , 10-H ) :   0.9699
B(  6-C , 11-H ) :   0.9764 B(  7-O ,  8-H ) :   0.8908

Dispersion correction           -0.000250589
FINAL SINGLE POINT ENERGY      -115.730557257623

DIPOLE MOMENT
-------------
                                X             Y             Z
Electronic contribution:     -0.58226       1.13163       1.22076
Nuclear contribution   :      0.17892      -1.61603      -1.33548
                        -----------------------------------------
Total Dipole Moment    :     -0.40335      -0.48440      -0.11472
                        -----------------------------------------
Magnitude (a.u.)       :      0.64070
Magnitude (Debye)      :      1.62852

Rotational constants in cm-1:     4.325735     0.841018     0.815786
Rotational constants in MHz : 129682.277068 25213.076332 24456.641089

                             ****ORCA TERMINATED NORMALLY****
TOTAL RUN TIME: 0 days 0 hours 0 minutes 51 seconds 680 msec
