                         Program Version 4.1.2  - RELEASE  -
|  1> #Run DFT-D3 single point of the dimer
|  2> ! wB97X-D3 def2-TZVP TIGHTSCF CHELPG PMODEL PAL8
|  3>
|  4> %base "7-62_DFT_AB"
|  5>
|  6> %scf
|  7> MaxIter 1000
|  8> end
|  9>
| 10> * xyz 0 1
| 11>   C                      -1.585404            3.392058             7.212129
| 12>   O                      -2.120105            3.744945             8.520689
| 13>   H                      -1.462705            3.477092             9.167592
| 14>   H                      -2.311762            3.531126             6.455074
| 15>   H                      -0.759444            4.075805             6.822156
| 16>   H                      -1.228848            2.336794             7.215379
| 17>   C                      0.644906             2.858696             10.102928
| 18>   O                      -0.385430            3.457382             10.842335
| 19>   H                      0.023696             3.705222             11.691541
| 20>   H                      0.848694             3.478940             9.148211
| 21>   H                      1.511680             2.660936             10.662323
| 22>   H                      0.346533             1.838836             9.787821
| 23> *
| 24>
| 25> #Run DFT-D3 single point of the molecule with dimer basis set
| 26> $new_job
| 27> %base "7-62_DFT_A"
| 28> ! wB97X-D3 def2-TZVP TIGHTSCF CHELPG PMODEL
| 29>
| 30> %scf
| 31> MaxIter 1000
| 32> end
| 33>
| 34> * xyz 0 1
| 35>   C                      -1.585404            3.392058             7.212129
| 36>   O                      -2.120105            3.744945             8.520689
| 37>   H                      -1.462705            3.477092             9.167592
| 38>   H                      -2.311762            3.531126             6.455074
| 39>   H                      -0.759444            4.075805             6.822156
| 40>   H                      -1.228848            2.336794             7.215379
| 41>   C                    : 0.644906             2.858696             10.102928
| 42>   O                    : -0.385430            3.457382             10.842335
| 43>   H                    : 0.023696             3.705222             11.691541
| 44>   H                    : 0.848694             3.478940             9.148211
| 45>   H                    : 1.511680             2.660936             10.662323
| 46>   H                    : 0.346533             1.838836             9.787821
| 47> *
| 48>
| 49> #Run DFT-D3 single point of the particle with dimer basis set
| 50> $new_job
| 51> %base "7-62_DFT_B"
| 52> ! wB97X-D3 def2-TZVP TIGHTSCF CHELPG PMODEL
| 53>
| 54> %scf
| 55> MaxIter 1000
| 56> end
| 57>
| 58> * xyz 0 1
| 59>   C                    : -1.585404            3.392058             7.212129
| 60>   O                    : -2.120105            3.744945             8.520689
| 61>   H                    : -1.462705            3.477092             9.167592
| 62>   H                    : -2.311762            3.531126             6.455074
| 63>   H                    : -0.759444            4.075805             6.822156
| 64>   H                    : -1.228848            2.336794             7.215379
| 65>   C                      0.644906             2.858696             10.102928
| 66>   O                      -0.385430            3.457382             10.842335
| 67>   H                      0.023696             3.705222             11.691541
| 68>   H                      0.848694             3.478940             9.148211
| 69>   H                      1.511680             2.660936             10.662323
| 70>   H                      0.346533             1.838836             9.787821
| 71> *
| 72>
| 73>                          ****END OF INPUT****
 Total Charge           Charge          ....    0
 Multiplicity           Mult            ....    1
 Number of Electrons    NEL             ....   36
Dispersion correction           -0.002128912
FINAL SINGLE POINT ENERGY      -231.465696715945
Dispersion correction           -0.000275674
FINAL SINGLE POINT ENERGY      -115.732162626522

CARTESIAN COORDINATES (ANGSTROEM)
---------------------------------
  C     -1.585404    3.392058    7.212129
  O     -2.120105    3.744945    8.520689
  H     -1.462705    3.477092    9.167592
  H     -2.311762    3.531126    6.455074
  H     -0.759444    4.075805    6.822156
  H     -1.228848    2.336794    7.215379
  C      0.644906    2.858696   10.102928
  O     -0.385430    3.457382   10.842335
  H      0.023696    3.705222   11.691541
  H      0.848694    3.478940    9.148211
  H      1.511680    2.660936   10.662323
  H      0.346533    1.838836    9.787821

 Multiplicity           Mult            ....    1
 Number of Electrons    NEL             ....   18
 Basis Dimension        Dim             ....  172

ORBITAL ENERGIES
----------------

  NO   OCC          E(Eh)            E(eV)
   0   2.0000     -19.233877      -523.3804
   1   2.0000     -10.314886      -280.6823
   2   2.0000      -1.140283       -31.0287
   3   2.0000      -0.790855       -21.5203
   4   2.0000      -0.618100       -16.8194
   5   2.0000      -0.535665       -14.5762
   6   2.0000      -0.524439       -14.2707
   7   2.0000      -0.438864       -11.9421
   8   2.0000      -0.370889       -10.0924
   9   0.0000       0.093982         2.5574
  10   0.0000       0.118850         3.2341
  11   0.0000       0.155280         4.2254
  12   0.0000       0.180763         4.9188
  13   0.0000       0.187705         5.1077

MULLIKEN ATOMIC CHARGES
-----------------------
   0 C :    0.002050
   1 O :   -0.000120
   2 H :   -0.005408
   3 H :    0.000152
   4 H :   -0.000631
   5 H :   -0.000339
   6 C :   -0.179208
   7 O :   -0.458056
   8 H :    0.312793
   9 H :    0.104797
  10 H :    0.121839
  11 H :    0.102129
Sum of atomic charges:   -0.0000000

LOEWDIN ATOMIC CHARGES
----------------------
   0 C :   -0.004598
   1 O :   -0.003987
   2 H :   -0.029686
   3 H :   -0.000019
   4 H :   -0.000859
   5 H :   -0.000871
   6 C :   -0.394660
   7 O :   -0.052170
   8 H :    0.180177
   9 H :    0.114870
  10 H :    0.087293
  11 H :    0.104510

  Mayer bond orders larger than 0.1
B(  6-C ,  7-O ) :   1.0046 B(  6-C ,  9-H ) :   0.9763 B(  6-C , 10-H ) :   0.9727
B(  6-C , 11-H ) :   0.9784 B(  7-O ,  8-H ) :   0.8988

Dispersion correction           -0.000247020
FINAL SINGLE POINT ENERGY      -115.730343851243

DIPOLE MOMENT
-------------
                                X             Y             Z
Electronic contribution:     -1.37734       0.81800       0.96641
Nuclear contribution   :      2.04674      -0.91315      -0.66020
                        -----------------------------------------
Total Dipole Moment    :      0.66940      -0.09515       0.30621
                        -----------------------------------------
Magnitude (a.u.)       :      0.74223
Magnitude (Debye)      :      1.88661

Rotational constants in cm-1:     4.188176     0.839038     0.812346
Rotational constants in MHz : 125558.358947 25153.719972 24353.531963

                             ****ORCA TERMINATED NORMALLY****
TOTAL RUN TIME: 0 days 0 hours 1 minutes 11 seconds 574 msec
