                         Program Version 4.1.2  - RELEASE  -
|  1> #Run DFT-D3 single point of the dimer
|  2> ! wB97X-D3 def2-TZVP TIGHTSCF CHELPG PMODEL PAL8
|  3>
|  4> %base "1-169_DFT_AB"
|  5>
|  6> %scf
|  7> MaxIter 1000
|  8> end
|  9>
| 10> * xyz 0 1
| 11>   C                      -2.402393            -10.278773           -3.280738
| 12>   O                      -1.721454            -10.813631           -4.440282
| 13>   H                      -2.355756            -11.155104           -5.064941
| 14>   H                      -1.851665            -10.416140           -2.347565
| 15>   H                      -2.501331            -9.212577            -3.385509
| 16>   H                      -3.410301            -10.670817           -3.273811
| 17>   C                      2.188186             -9.000318            -4.165154
| 18>   O                      1.145914             -9.692273            -4.773061
| 19>   H                      0.926932             -9.237407            -5.568259
| 20>   H                      1.780757             -7.966807            -4.038153
| 21>   H                      2.504193             -9.540271            -3.265993
| 22>   H                      3.121350             -8.856803            -4.773930
| 23> *
| 24>
| 25> #Run DFT-D3 single point of the molecule with dimer basis set
| 26> $new_job
| 27> %base "1-169_DFT_A"
| 28> ! wB97X-D3 def2-TZVP TIGHTSCF CHELPG PMODEL
| 29>
| 30> %scf
| 31> MaxIter 1000
| 32> end
| 33>
| 34> * xyz 0 1
| 35>   C                      -2.402393            -10.278773           -3.280738
| 36>   O                      -1.721454            -10.813631           -4.440282
| 37>   H                      -2.355756            -11.155104           -5.064941
| 38>   H                      -1.851665            -10.416140           -2.347565
| 39>   H                      -2.501331            -9.212577            -3.385509
| 40>   H                      -3.410301            -10.670817           -3.273811
| 41>   C                    : 2.188186             -9.000318            -4.165154
| 42>   O                    : 1.145914             -9.692273            -4.773061
| 43>   H                    : 0.926932             -9.237407            -5.568259
| 44>   H                    : 1.780757             -7.966807            -4.038153
| 45>   H                    : 2.504193             -9.540271            -3.265993
| 46>   H                    : 3.121350             -8.856803            -4.773930
| 47> *
| 48>
| 49> #Run DFT-D3 single point of the particle with dimer basis set
| 50> $new_job
| 51> %base "1-169_DFT_B"
| 52> ! wB97X-D3 def2-TZVP TIGHTSCF CHELPG PMODEL
| 53>
| 54> %scf
| 55> MaxIter 1000
| 56> end
| 57>
| 58> * xyz 0 1
| 59>   C                    : -2.402393            -10.278773           -3.280738
| 60>   O                    : -1.721454            -10.813631           -4.440282
| 61>   H                    : -2.355756            -11.155104           -5.064941
| 62>   H                    : -1.851665            -10.416140           -2.347565
| 63>   H                    : -2.501331            -9.212577            -3.385509
| 64>   H                    : -3.410301            -10.670817           -3.273811
| 65>   C                      2.188186             -9.000318            -4.165154
| 66>   O                      1.145914             -9.692273            -4.773061
| 67>   H                      0.926932             -9.237407            -5.568259
| 68>   H                      1.780757             -7.966807            -4.038153
| 69>   H                      2.504193             -9.540271            -3.265993
| 70>   H                      3.121350             -8.856803            -4.773930
| 71> *
| 72>
| 73>                          ****END OF INPUT****
 Total Charge           Charge          ....    0
 Multiplicity           Mult            ....    1
 Number of Electrons    NEL             ....   36
Dispersion correction           -0.001277543
FINAL SINGLE POINT ENERGY      -231.460827306774
Dispersion correction           -0.000249700
FINAL SINGLE POINT ENERGY      -115.732712163908

CARTESIAN COORDINATES (ANGSTROEM)
---------------------------------
  C     -2.402393  -10.278773   -3.280738
  O     -1.721454  -10.813631   -4.440282
  H     -2.355756  -11.155104   -5.064941
  H     -1.851665  -10.416140   -2.347565
  H     -2.501331   -9.212577   -3.385509
  H     -3.410301  -10.670817   -3.273811
  C      2.188186   -9.000318   -4.165154
  O      1.145914   -9.692273   -4.773061
  H      0.926932   -9.237407   -5.568259
  H      1.780757   -7.966807   -4.038153
  H      2.504193   -9.540271   -3.265993
  H      3.121350   -8.856803   -4.773930

 Multiplicity           Mult            ....    1
 Number of Electrons    NEL             ....   18
 Basis Dimension        Dim             ....  172

ORBITAL ENERGIES
----------------

  NO   OCC          E(Eh)            E(eV)
   0   2.0000     -19.228690      -523.2393
   1   2.0000     -10.317625      -280.7568
   2   2.0000      -1.148713       -31.2581
   3   2.0000      -0.791671       -21.5425
   4   2.0000      -0.618215       -16.8225
   5   2.0000      -0.549207       -14.9447
   6   2.0000      -0.521987       -14.2040
   7   2.0000      -0.436940       -11.8897
   8   2.0000      -0.367643       -10.0041
   9   0.0000       0.092289         2.5113
  10   0.0000       0.120356         3.2751
  11   0.0000       0.154722         4.2102
  12   0.0000       0.176364         4.7991
  13   0.0000       0.194460         5.2915

MULLIKEN ATOMIC CHARGES
-----------------------
   0 C :   -0.004767
   1 O :    0.001189
   2 H :    0.000114
   3 H :    0.000198
   4 H :   -0.000158
   5 H :   -0.000199
   6 C :   -0.157750
   7 O :   -0.462099
   8 H :    0.311951
   9 H :    0.097389
  10 H :    0.121425
  11 H :    0.092707
Sum of atomic charges:   -0.0000000

LOEWDIN ATOMIC CHARGES
----------------------
   0 C :   -0.003279
   1 O :   -0.005072
   2 H :   -0.000310
   3 H :   -0.000224
   4 H :   -0.000302
   5 H :   -0.000092
   6 C :   -0.407104
   7 O :   -0.047613
   8 H :    0.159412
   9 H :    0.099899
  10 H :    0.109690
  11 H :    0.094994

  Mayer bond orders larger than 0.1
B(  6-C ,  7-O ) :   0.9899 B(  6-C ,  9-H ) :   0.9896 B(  6-C , 10-H ) :   0.9729
B(  6-C , 11-H ) :   0.9626 B(  7-O ,  8-H ) :   0.9012

Dispersion correction           -0.000224764
FINAL SINGLE POINT ENERGY      -115.731177778246

DIPOLE MOMENT
-------------
                                X             Y             Z
Electronic contribution:     -1.33671      -1.08056      -0.60949
Nuclear contribution   :      1.60141       1.61929       0.32663
                        -----------------------------------------
Total Dipole Moment    :      0.26470       0.53874      -0.28286
                        -----------------------------------------
Magnitude (a.u.)       :      0.66356
Magnitude (Debye)      :      1.68664

Rotational constants in cm-1:     4.187240     0.860802     0.820465
Rotational constants in MHz : 125530.287775 25806.186688 24596.917643

                             ****ORCA TERMINATED NORMALLY****
TOTAL RUN TIME: 0 days 0 hours 6 minutes 15 seconds 651 msec
