                         Program Version 4.1.2  - RELEASE  -
|  1> #Run DFT-D3 single point of the dimer
|  2> ! wB97X-D3 def2-TZVP TIGHTSCF CHELPG PMODEL PAL8
|  3>
|  4> %base "22-1_DFT_AB"
|  5>
|  6> %scf
|  7> MaxIter 1000
|  8> end
|  9>
| 10> * xyz 0 1
| 11>   C                      -3.366488            1.354718             8.299496
| 12>   O                      -2.747762            2.580068             8.513952
| 13>   H                      -2.097212            2.607204             7.804503
| 14>   H                      -3.091532            0.606645             9.087924
| 15>   H                      -4.464560            1.385830             8.357553
| 16>   H                      -3.098089            0.935276             7.304372
| 17>   C                      0.527698             1.859503             9.663229
| 18>   O                      0.594535             0.604207             10.339565
| 19>   H                      1.417129             0.142972             9.950281
| 20>   H                      0.246686             1.908735             8.587147
| 21>   H                      -0.322910            2.327679             10.124349
| 22>   H                      1.373423             2.534069             9.816187
| 23> *
| 24>
| 25> #Run DFT-D3 single point of the molecule with dimer basis set
| 26> $new_job
| 27> %base "22-1_DFT_A"
| 28> ! wB97X-D3 def2-TZVP TIGHTSCF CHELPG PMODEL
| 29>
| 30> %scf
| 31> MaxIter 1000
| 32> end
| 33>
| 34> * xyz 0 1
| 35>   C                      -3.366488            1.354718             8.299496
| 36>   O                      -2.747762            2.580068             8.513952
| 37>   H                      -2.097212            2.607204             7.804503
| 38>   H                      -3.091532            0.606645             9.087924
| 39>   H                      -4.464560            1.385830             8.357553
| 40>   H                      -3.098089            0.935276             7.304372
| 41>   C                    : 0.527698             1.859503             9.663229
| 42>   O                    : 0.594535             0.604207             10.339565
| 43>   H                    : 1.417129             0.142972             9.950281
| 44>   H                    : 0.246686             1.908735             8.587147
| 45>   H                    : -0.322910            2.327679             10.124349
| 46>   H                    : 1.373423             2.534069             9.816187
| 47> *
| 48>
| 49> #Run DFT-D3 single point of the particle with dimer basis set
| 50> $new_job
| 51> %base "22-1_DFT_B"
| 52> ! wB97X-D3 def2-TZVP TIGHTSCF CHELPG PMODEL
| 53>
| 54> %scf
| 55> MaxIter 1000
| 56> end
| 57>
| 58> * xyz 0 1
| 59>   C                    : -3.366488            1.354718             8.299496
| 60>   O                    : -2.747762            2.580068             8.513952
| 61>   H                    : -2.097212            2.607204             7.804503
| 62>   H                    : -3.091532            0.606645             9.087924
| 63>   H                    : -4.464560            1.385830             8.357553
| 64>   H                    : -3.098089            0.935276             7.304372
| 65>   C                      0.527698             1.859503             9.663229
| 66>   O                      0.594535             0.604207             10.339565
| 67>   H                      1.417129             0.142972             9.950281
| 68>   H                      0.246686             1.908735             8.587147
| 69>   H                      -0.322910            2.327679             10.124349
| 70>   H                      1.373423             2.534069             9.816187
| 71> *
| 72>
| 73>                          ****END OF INPUT****
 Total Charge           Charge          ....    0
 Multiplicity           Mult            ....    1
 Number of Electrons    NEL             ....   36
Dispersion correction           -0.001775934
FINAL SINGLE POINT ENERGY      -231.462836448729
Dispersion correction           -0.000239875
FINAL SINGLE POINT ENERGY      -115.732995704456

CARTESIAN COORDINATES (ANGSTROEM)
---------------------------------
  C     -3.366488    1.354718    8.299496
  O     -2.747762    2.580068    8.513952
  H     -2.097212    2.607204    7.804503
  H     -3.091532    0.606645    9.087924
  H     -4.464560    1.385830    8.357553
  H     -3.098089    0.935276    7.304372
  C      0.527698    1.859503    9.663229
  O      0.594535    0.604207   10.339565
  H      1.417129    0.142972    9.950281
  H      0.246686    1.908735    8.587147
  H     -0.322910    2.327679   10.124349
  H      1.373423    2.534069    9.816187

 Multiplicity           Mult            ....    1
 Number of Electrons    NEL             ....   18
 Basis Dimension        Dim             ....  172

ORBITAL ENERGIES
----------------

  NO   OCC          E(Eh)            E(eV)
   0   2.0000     -19.242417      -523.6128
   1   2.0000     -10.311947      -280.6023
   2   2.0000      -1.126092       -30.6425
   3   2.0000      -0.793259       -21.5857
   4   2.0000      -0.604649       -16.4533
   5   2.0000      -0.537468       -14.6253
   6   2.0000      -0.517017       -14.0687
   7   2.0000      -0.436954       -11.8901
   8   2.0000      -0.378217       -10.2918
   9   0.0000       0.087802         2.3892
  10   0.0000       0.111719         3.0400
  11   0.0000       0.145843         3.9686
  12   0.0000       0.178972         4.8701
  13   0.0000       0.187530         5.1029

MULLIKEN ATOMIC CHARGES
-----------------------
   0 C :    0.001284
   1 O :   -0.001148
   2 H :   -0.000966
   3 H :   -0.000470
   4 H :    0.000069
   5 H :   -0.000223
   6 C :   -0.180092
   7 O :   -0.465353
   8 H :    0.313615
   9 H :    0.102408
  10 H :    0.121289
  11 H :    0.109587
Sum of atomic charges:    0.0000000

LOEWDIN ATOMIC CHARGES
----------------------
   0 C :   -0.000928
   1 O :   -0.001879
   2 H :   -0.003262
   3 H :   -0.000344
   4 H :   -0.000004
   5 H :   -0.000045
   6 C :   -0.396352
   7 O :   -0.100611
   8 H :    0.201062
   9 H :    0.099653
  10 H :    0.108089
  11 H :    0.094622

  Mayer bond orders larger than 0.1
B(  6-C ,  7-O ) :   1.0083 B(  6-C ,  9-H ) :   0.9644 B(  6-C , 10-H ) :   0.9797
B(  6-C , 11-H ) :   0.9666 B(  7-O ,  8-H ) :   0.8957

Dispersion correction           -0.000278381
FINAL SINGLE POINT ENERGY      -115.728969486162

DIPOLE MOMENT
-------------
                                X             Y             Z
Electronic contribution:      0.07982      -1.69577       0.93254
Nuclear contribution   :      0.36995       1.91289      -1.40569
                        -----------------------------------------
Total Dipole Moment    :      0.44977       0.21713      -0.47315
                        -----------------------------------------
Magnitude (a.u.)       :      0.68798
Magnitude (Debye)      :      1.74869

Rotational constants in cm-1:     4.310300     0.808349     0.780300
Rotational constants in MHz : 129219.534877 24233.705724 23392.815434

                             ****ORCA TERMINATED NORMALLY****
TOTAL RUN TIME: 0 days 0 hours 1 minutes 3 seconds 797 msec
