                         Program Version 4.1.2  - RELEASE  -
|  1> #Run DFT-D3 single point of the dimer
|  2> ! wB97X-D3 def2-TZVP TIGHTSCF CHELPG PMODEL PAL8
|  3>
|  4> %base "2-123_DFT_AB"
|  5>
|  6> %scf
|  7> MaxIter 1000
|  8> end
|  9>
| 10> * xyz 0 1
| 11>   C                      4.903913             0.406796             5.553629
| 12>   O                      4.965341             0.096374             6.927694
| 13>   H                      4.245651             0.443145             7.449929
| 14>   H                      3.890953             0.251996             5.036663
| 15>   H                      5.294555             1.436939             5.352639
| 16>   H                      5.521654             -0.336337            5.032475
| 17>   C                      8.266967             3.915766             8.090470
| 18>   O                      7.783434             3.355266             9.297443
| 19>   H                      7.216786             2.576586             9.211333
| 20>   H                      8.978086             3.314394             7.522510
| 21>   H                      7.382926             4.084775             7.431414
| 22>   H                      8.766206             4.810743             8.270627
| 23> *
| 24>
| 25> #Run DFT-D3 single point of the molecule with dimer basis set
| 26> $new_job
| 27> %base "2-123_DFT_A"
| 28> ! wB97X-D3 def2-TZVP TIGHTSCF CHELPG PMODEL
| 29>
| 30> %scf
| 31> MaxIter 1000
| 32> end
| 33>
| 34> * xyz 0 1
| 35>   C                      4.903913             0.406796             5.553629
| 36>   O                      4.965341             0.096374             6.927694
| 37>   H                      4.245651             0.443145             7.449929
| 38>   H                      3.890953             0.251996             5.036663
| 39>   H                      5.294555             1.436939             5.352639
| 40>   H                      5.521654             -0.336337            5.032475
| 41>   C                    : 8.266967             3.915766             8.090470
| 42>   O                    : 7.783434             3.355266             9.297443
| 43>   H                    : 7.216786             2.576586             9.211333
| 44>   H                    : 8.978086             3.314394             7.522510
| 45>   H                    : 7.382926             4.084775             7.431414
| 46>   H                    : 8.766206             4.810743             8.270627
| 47> *
| 48>
| 49> #Run DFT-D3 single point of the particle with dimer basis set
| 50> $new_job
| 51> %base "2-123_DFT_B"
| 52> ! wB97X-D3 def2-TZVP TIGHTSCF CHELPG PMODEL
| 53>
| 54> %scf
| 55> MaxIter 1000
| 56> end
| 57>
| 58> * xyz 0 1
| 59>   C                    : 4.903913             0.406796             5.553629
| 60>   O                    : 4.965341             0.096374             6.927694
| 61>   H                    : 4.245651             0.443145             7.449929
| 62>   H                    : 3.890953             0.251996             5.036663
| 63>   H                    : 5.294555             1.436939             5.352639
| 64>   H                    : 5.521654             -0.336337            5.032475
| 65>   C                      8.266967             3.915766             8.090470
| 66>   O                      7.783434             3.355266             9.297443
| 67>   H                      7.216786             2.576586             9.211333
| 68>   H                      8.978086             3.314394             7.522510
| 69>   H                      7.382926             4.084775             7.431414
| 70>   H                      8.766206             4.810743             8.270627
| 71> *
| 72>
| 73>                          ****END OF INPUT****
 Total Charge           Charge          ....    0
 Multiplicity           Mult            ....    1
 Number of Electrons    NEL             ....   36
Dispersion correction           -0.000849295
FINAL SINGLE POINT ENERGY      -231.465770637711
Dispersion correction           -0.000283545
FINAL SINGLE POINT ENERGY      -115.733060686637

CARTESIAN COORDINATES (ANGSTROEM)
---------------------------------
  C      4.903913    0.406796    5.553629
  O      4.965341    0.096374    6.927694
  H      4.245651    0.443145    7.449929
  H      3.890953    0.251996    5.036663
  H      5.294555    1.436939    5.352639
  H      5.521654   -0.336337    5.032475
  C      8.266967    3.915766    8.090470
  O      7.783434    3.355266    9.297443
  H      7.216786    2.576586    9.211333
  H      8.978086    3.314394    7.522510
  H      7.382926    4.084775    7.431414
  H      8.766206    4.810743    8.270627

 Multiplicity           Mult            ....    1
 Number of Electrons    NEL             ....   18
 Basis Dimension        Dim             ....  172

ORBITAL ENERGIES
----------------

  NO   OCC          E(Eh)            E(eV)
   0   2.0000     -19.226780      -523.1873
   1   2.0000     -10.310421      -280.5608
   2   2.0000      -1.128224       -30.7005
   3   2.0000      -0.802552       -21.8386
   4   2.0000      -0.610944       -16.6246
   5   2.0000      -0.542944       -14.7743
   6   2.0000      -0.530116       -14.4252
   7   2.0000      -0.424814       -11.5598
   8   2.0000      -0.370433       -10.0800
   9   0.0000       0.074441         2.0256
  10   0.0000       0.116667         3.1747
  11   0.0000       0.146338         3.9821
  12   0.0000       0.166534         4.5316
  13   0.0000       0.187118         5.0917

MULLIKEN ATOMIC CHARGES
-----------------------
   0 C :    0.000032
   1 O :   -0.000009
   2 H :   -0.000025
   3 H :    0.000000
   4 H :   -0.000096
   5 H :   -0.000002
   6 C :   -0.145164
   7 O :   -0.495025
   8 H :    0.320330
   9 H :    0.096164
  10 H :    0.098403
  11 H :    0.125394
Sum of atomic charges:   -0.0000000

LOEWDIN ATOMIC CHARGES
----------------------
   0 C :   -0.000033
   1 O :   -0.000035
   2 H :   -0.000040
   3 H :   -0.000001
   4 H :   -0.000060
   5 H :   -0.000000
   6 C :   -0.374350
   7 O :   -0.085220
   8 H :    0.170193
   9 H :    0.092201
  10 H :    0.100759
  11 H :    0.096586

  Mayer bond orders larger than 0.1
B(  6-C ,  7-O ) :   0.9962 B(  6-C ,  9-H ) :   0.9693 B(  6-C , 10-H ) :   0.9876
B(  6-C , 11-H ) :   0.9723 B(  7-O ,  8-H ) :   0.8909

Dispersion correction           -0.000259657
FINAL SINGLE POINT ENERGY      -115.731672138436

DIPOLE MOMENT
-------------
                                X             Y             Z
Electronic contribution:     -0.46848      -0.59069       1.64096
Nuclear contribution   :      0.30913       0.32762      -2.19200
                        -----------------------------------------
Total Dipole Moment    :     -0.15935      -0.26307      -0.55104
                        -----------------------------------------
Magnitude (a.u.)       :      0.63106
Magnitude (Debye)      :      1.60404

Rotational constants in cm-1:     4.507538     0.818058     0.792281
Rotational constants in MHz : 135132.578666 24524.771726 23751.991650

                             ****ORCA TERMINATED NORMALLY****
TOTAL RUN TIME: 0 days 0 hours 6 minutes 21 seconds 287 msec
