                         Program Version 4.1.2  - RELEASE  -
|  1> #Run DFT-D3 single point of the dimer
|  2> ! wB97X-D3 def2-TZVP TIGHTSCF CHELPG PMODEL PAL8
|  3>
|  4> %base "5-34_DFT_AB"
|  5>
|  6> %scf
|  7> MaxIter 1000
|  8> end
|  9>
| 10> * xyz 0 1
| 11>   C                      0.049032             -10.783737           -3.547147
| 12>   O                      -1.245113            -10.968864           -2.996254
| 13>   H                      -1.364851            -11.804296           -2.480069
| 14>   H                      0.119904             -9.931125            -4.234255
| 15>   H                      0.661525             -10.373009           -2.824909
| 16>   H                      0.387264             -11.742814           -4.004112
| 17>   C                      -1.371837            -10.736313           0.244261
| 18>   O                      -0.558263            -11.186167           1.430407
| 19>   H                      -1.072691            -11.807029           1.918675
| 20>   H                      -2.470676            -10.567998           0.454982
| 21>   H                      -0.970770            -9.759117            -0.126589
| 22>   H                      -1.371345            -11.470152           -0.581594
| 23> *
| 24>
| 25> #Run DFT-D3 single point of the molecule with dimer basis set
| 26> $new_job
| 27> %base "5-34_DFT_A"
| 28> ! wB97X-D3 def2-TZVP TIGHTSCF CHELPG PMODEL
| 29>
| 30> %scf
| 31> MaxIter 1000
| 32> end
| 33>
| 34> * xyz 0 1
| 35>   C                      0.049032             -10.783737           -3.547147
| 36>   O                      -1.245113            -10.968864           -2.996254
| 37>   H                      -1.364851            -11.804296           -2.480069
| 38>   H                      0.119904             -9.931125            -4.234255
| 39>   H                      0.661525             -10.373009           -2.824909
| 40>   H                      0.387264             -11.742814           -4.004112
| 41>   C                    : -1.371837            -10.736313           0.244261
| 42>   O                    : -0.558263            -11.186167           1.430407
| 43>   H                    : -1.072691            -11.807029           1.918675
| 44>   H                    : -2.470676            -10.567998           0.454982
| 45>   H                    : -0.970770            -9.759117            -0.126589
| 46>   H                    : -1.371345            -11.470152           -0.581594
| 47> *
| 48>
| 49> #Run DFT-D3 single point of the particle with dimer basis set
| 50> $new_job
| 51> %base "5-34_DFT_B"
| 52> ! wB97X-D3 def2-TZVP TIGHTSCF CHELPG PMODEL
| 53>
| 54> %scf
| 55> MaxIter 1000
| 56> end
| 57>
| 58> * xyz 0 1
| 59>   C                    : 0.049032             -10.783737           -3.547147
| 60>   O                    : -1.245113            -10.968864           -2.996254
| 61>   H                    : -1.364851            -11.804296           -2.480069
| 62>   H                    : 0.119904             -9.931125            -4.234255
| 63>   H                    : 0.661525             -10.373009           -2.824909
| 64>   H                    : 0.387264             -11.742814           -4.004112
| 65>   C                      -1.371837            -10.736313           0.244261
| 66>   O                      -0.558263            -11.186167           1.430407
| 67>   H                      -1.072691            -11.807029           1.918675
| 68>   H                      -2.470676            -10.567998           0.454982
| 69>   H                      -0.970770            -9.759117            -0.126589
| 70>   H                      -1.371345            -11.470152           -0.581594
| 71> *
| 72>
| 73>                          ****END OF INPUT****
 Total Charge           Charge          ....    0
 Multiplicity           Mult            ....    1
 Number of Electrons    NEL             ....   36
Dispersion correction           -0.001817364
FINAL SINGLE POINT ENERGY      -231.453217581149
Dispersion correction           -0.000251193
FINAL SINGLE POINT ENERGY      -115.724892468541

CARTESIAN COORDINATES (ANGSTROEM)
---------------------------------
  C      0.049032  -10.783737   -3.547147
  O     -1.245113  -10.968864   -2.996254
  H     -1.364851  -11.804296   -2.480069
  H      0.119904   -9.931125   -4.234255
  H      0.661525  -10.373009   -2.824909
  H      0.387264  -11.742814   -4.004112
  C     -1.371837  -10.736313    0.244261
  O     -0.558263  -11.186167    1.430407
  H     -1.072691  -11.807029    1.918675
  H     -2.470676  -10.567998    0.454982
  H     -0.970770   -9.759117   -0.126589
  H     -1.371345  -11.470152   -0.581594

 Multiplicity           Mult            ....    1
 Number of Electrons    NEL             ....   18
 Basis Dimension        Dim             ....  172

ORBITAL ENERGIES
----------------

  NO   OCC          E(Eh)            E(eV)
   0   2.0000     -19.231838      -523.3249
   1   2.0000     -10.330658      -281.1115
   2   2.0000      -1.115650       -30.3584
   3   2.0000      -0.796263       -21.6674
   4   2.0000      -0.598636       -16.2897
   5   2.0000      -0.526882       -14.3372
   6   2.0000      -0.512213       -13.9380
   7   2.0000      -0.441623       -12.0172
   8   2.0000      -0.378611       -10.3025
   9   0.0000       0.086619         2.3570
  10   0.0000       0.117542         3.1985
  11   0.0000       0.143518         3.9053
  12   0.0000       0.166591         4.5332
  13   0.0000       0.188939         5.1413

MULLIKEN ATOMIC CHARGES
-----------------------
   0 C :    0.000168
   1 O :   -0.001558
   2 H :   -0.000898
   3 H :    0.000087
   4 H :    0.000054
   5 H :   -0.000095
   6 C :   -0.182212
   7 O :   -0.479082
   8 H :    0.310085
   9 H :    0.112644
  10 H :    0.124546
  11 H :    0.116260
Sum of atomic charges:    0.0000000

LOEWDIN ATOMIC CHARGES
----------------------
   0 C :   -0.001788
   1 O :   -0.005704
   2 H :   -0.012643
   3 H :   -0.000016
   4 H :   -0.000462
   5 H :   -0.000019
   6 C :   -0.328625
   7 O :   -0.125731
   8 H :    0.149204
   9 H :    0.104129
  10 H :    0.114917
  11 H :    0.106738

  Mayer bond orders larger than 0.1
B(  6-C ,  7-O ) :   0.9880 B(  6-C ,  9-H ) :   0.9685 B(  6-C , 10-H ) :   0.9722
B(  6-C , 11-H ) :   0.9676 B(  7-O ,  8-H ) :   0.9059

Dispersion correction           -0.000312828
FINAL SINGLE POINT ENERGY      -115.729120689820

DIPOLE MOMENT
-------------
                                X             Y             Z
Electronic contribution:      1.15348      -0.49324       1.44614
Nuclear contribution   :     -1.84476       0.29941      -1.64951
                        -----------------------------------------
Total Dipole Moment    :     -0.69128      -0.19383      -0.20337
                        -----------------------------------------
Magnitude (a.u.)       :      0.74619
Magnitude (Debye)      :      1.89667

Rotational constants in cm-1:     4.237221     0.738591     0.713096
Rotational constants in MHz : 127028.701076 22142.396765 21378.091120

                             ****ORCA TERMINATED NORMALLY****
TOTAL RUN TIME: 0 days 0 hours 0 minutes 57 seconds 160 msec
