                         Program Version 4.1.2  - RELEASE  -
|  1> #Run DFT-D3 single point of the dimer
|  2> ! wB97X-D3 def2-TZVP TIGHTSCF CHELPG PMODEL PAL8
|  3>
|  4> %base "6-111_DFT_AB"
|  5>
|  6> %scf
|  7> MaxIter 1000
|  8> end
|  9>
| 10> * xyz 0 1
| 11>   C                      3.504074             3.083173             -2.831861
| 12>   O                      3.784711             1.868062             -3.447040
| 13>   H                      3.080860             1.253483             -3.553574
| 14>   H                      3.183347             3.778387             -3.555988
| 15>   H                      2.754322             2.961550             -2.060546
| 16>   H                      4.439116             3.440261             -2.383345
| 17>   C                      4.349368             4.701907             -6.236978
| 18>   O                      5.661383             4.302068             -6.488714
| 19>   H                      5.674143             3.563855             -7.114383
| 20>   H                      4.232287             5.565192             -5.597994
| 21>   H                      3.850073             4.906700             -7.251713
| 22>   H                      3.767624             3.923244             -5.754191
| 23> *
| 24>
| 25> #Run DFT-D3 single point of the molecule with dimer basis set
| 26> $new_job
| 27> %base "6-111_DFT_A"
| 28> ! wB97X-D3 def2-TZVP TIGHTSCF CHELPG PMODEL
| 29>
| 30> %scf
| 31> MaxIter 1000
| 32> end
| 33>
| 34> * xyz 0 1
| 35>   C                      3.504074             3.083173             -2.831861
| 36>   O                      3.784711             1.868062             -3.447040
| 37>   H                      3.080860             1.253483             -3.553574
| 38>   H                      3.183347             3.778387             -3.555988
| 39>   H                      2.754322             2.961550             -2.060546
| 40>   H                      4.439116             3.440261             -2.383345
| 41>   C                    : 4.349368             4.701907             -6.236978
| 42>   O                    : 5.661383             4.302068             -6.488714
| 43>   H                    : 5.674143             3.563855             -7.114383
| 44>   H                    : 4.232287             5.565192             -5.597994
| 45>   H                    : 3.850073             4.906700             -7.251713
| 46>   H                    : 3.767624             3.923244             -5.754191
| 47> *
| 48>
| 49> #Run DFT-D3 single point of the particle with dimer basis set
| 50> $new_job
| 51> %base "6-111_DFT_B"
| 52> ! wB97X-D3 def2-TZVP TIGHTSCF CHELPG PMODEL
| 53>
| 54> %scf
| 55> MaxIter 1000
| 56> end
| 57>
| 58> * xyz 0 1
| 59>   C                    : 3.504074             3.083173             -2.831861
| 60>   O                    : 3.784711             1.868062             -3.447040
| 61>   H                    : 3.080860             1.253483             -3.553574
| 62>   H                    : 3.183347             3.778387             -3.555988
| 63>   H                    : 2.754322             2.961550             -2.060546
| 64>   H                    : 4.439116             3.440261             -2.383345
| 65>   C                      4.349368             4.701907             -6.236978
| 66>   O                      5.661383             4.302068             -6.488714
| 67>   H                      5.674143             3.563855             -7.114383
| 68>   H                      4.232287             5.565192             -5.597994
| 69>   H                      3.850073             4.906700             -7.251713
| 70>   H                      3.767624             3.923244             -5.754191
| 71> *
| 72>
| 73>                          ****END OF INPUT****
 Total Charge           Charge          ....    0
 Multiplicity           Mult            ....    1
 Number of Electrons    NEL             ....   36
Dispersion correction           -0.001597680
FINAL SINGLE POINT ENERGY      -231.466278886741
Dispersion correction           -0.000235868
FINAL SINGLE POINT ENERGY      -115.733209204142

CARTESIAN COORDINATES (ANGSTROEM)
---------------------------------
  C      3.504074    3.083173   -2.831861
  O      3.784711    1.868062   -3.447040
  H      3.080860    1.253483   -3.553574
  H      3.183347    3.778387   -3.555988
  H      2.754322    2.961550   -2.060546
  H      4.439116    3.440261   -2.383345
  C      4.349368    4.701907   -6.236978
  O      5.661383    4.302068   -6.488714
  H      5.674143    3.563855   -7.114383
  H      4.232287    5.565192   -5.597994
  H      3.850073    4.906700   -7.251713
  H      3.767624    3.923244   -5.754191

 Multiplicity           Mult            ....    1
 Number of Electrons    NEL             ....   18
 Basis Dimension        Dim             ....  172

ORBITAL ENERGIES
----------------

  NO   OCC          E(Eh)            E(eV)
   0   2.0000     -19.230276      -523.2824
   1   2.0000     -10.315355      -280.6951
   2   2.0000      -1.139812       -31.0159
   3   2.0000      -0.793727       -21.5984
   4   2.0000      -0.612590       -16.6694
   5   2.0000      -0.541395       -14.7321
   6   2.0000      -0.534816       -14.5531
   7   2.0000      -0.427314       -11.6278
   8   2.0000      -0.369152       -10.0451
   9   0.0000       0.086254         2.3471
  10   0.0000       0.117528         3.1981
  11   0.0000       0.152874         4.1599
  12   0.0000       0.164835         4.4854
  13   0.0000       0.194291         5.2869

MULLIKEN ATOMIC CHARGES
-----------------------
   0 C :    0.008523
   1 O :   -0.000736
   2 H :   -0.000215
   3 H :   -0.007931
   4 H :    0.000086
   5 H :   -0.000566
   6 C :   -0.167303
   7 O :   -0.473679
   8 H :    0.320654
   9 H :    0.122167
  10 H :    0.095145
  11 H :    0.103856
Sum of atomic charges:   -0.0000000

LOEWDIN ATOMIC CHARGES
----------------------
   0 C :   -0.004224
   1 O :   -0.000442
   2 H :   -0.000109
   3 H :   -0.006109
   4 H :   -0.000012
   5 H :   -0.000079
   6 C :   -0.399935
   7 O :   -0.067704
   8 H :    0.176560
   9 H :    0.105822
  10 H :    0.102498
  11 H :    0.093733

  Mayer bond orders larger than 0.1
B(  6-C ,  7-O ) :   0.9932 B(  6-C ,  9-H ) :   0.9697 B(  6-C , 10-H ) :   0.9828
B(  6-C , 11-H ) :   0.9726 B(  7-O ,  8-H ) :   0.8922

Dispersion correction           -0.000236721
FINAL SINGLE POINT ENERGY      -115.732424870956

DIPOLE MOMENT
-------------
                                X             Y             Z
Electronic contribution:      1.85477      -0.36928      -0.11427
Nuclear contribution   :     -2.34489       0.05066      -0.16160
                        -----------------------------------------
Total Dipole Moment    :     -0.49013      -0.31862      -0.27588
                        -----------------------------------------
Magnitude (a.u.)       :      0.64641
Magnitude (Debye)      :      1.64306

Rotational constants in cm-1:     4.294175     0.841356     0.810765
Rotational constants in MHz : 128736.134829 25223.224655 24306.136270

                             ****ORCA TERMINATED NORMALLY****
TOTAL RUN TIME: 0 days 0 hours 1 minutes 4 seconds 499 msec
