                         Program Version 4.1.2  - RELEASE  -
|  1> #Run DFT-D3 single point of the dimer
|  2> ! wB97X-D3 def2-TZVP TIGHTSCF CHELPG PMODEL PAL8
|  3>
|  4> %base "7-22_DFT_AB"
|  5>
|  6> %scf
|  7> MaxIter 1000
|  8> end
|  9>
| 10> * xyz 0 1
| 11>   C                      -1.043704            -4.234054            3.067058
| 12>   O                      -0.967894            -4.898226            4.364749
| 13>   H                      -1.811567            -5.220936            4.592340
| 14>   H                      -1.580061            -3.307889            3.073810
| 15>   H                      -0.006759            -3.989458            2.723288
| 16>   H                      -1.542091            -4.895781            2.312860
| 17>   C                      1.088287             -5.431321            7.097600
| 18>   O                      1.378152             -4.681061            5.972088
| 19>   H                      0.733265             -4.938297            5.285222
| 20>   H                      1.351408             -6.480254            7.040875
| 21>   H                      1.562013             -4.951419            7.949403
| 22>   H                      -0.004415            -5.432203            7.255483
| 23> *
| 24>
| 25> #Run DFT-D3 single point of the molecule with dimer basis set
| 26> $new_job
| 27> %base "7-22_DFT_A"
| 28> ! wB97X-D3 def2-TZVP TIGHTSCF CHELPG PMODEL
| 29>
| 30> %scf
| 31> MaxIter 1000
| 32> end
| 33>
| 34> * xyz 0 1
| 35>   C                      -1.043704            -4.234054            3.067058
| 36>   O                      -0.967894            -4.898226            4.364749
| 37>   H                      -1.811567            -5.220936            4.592340
| 38>   H                      -1.580061            -3.307889            3.073810
| 39>   H                      -0.006759            -3.989458            2.723288
| 40>   H                      -1.542091            -4.895781            2.312860
| 41>   C                    : 1.088287             -5.431321            7.097600
| 42>   O                    : 1.378152             -4.681061            5.972088
| 43>   H                    : 0.733265             -4.938297            5.285222
| 44>   H                    : 1.351408             -6.480254            7.040875
| 45>   H                    : 1.562013             -4.951419            7.949403
| 46>   H                    : -0.004415            -5.432203            7.255483
| 47> *
| 48>
| 49> #Run DFT-D3 single point of the particle with dimer basis set
| 50> $new_job
| 51> %base "7-22_DFT_B"
| 52> ! wB97X-D3 def2-TZVP TIGHTSCF CHELPG PMODEL
| 53>
| 54> %scf
| 55> MaxIter 1000
| 56> end
| 57>
| 58> * xyz 0 1
| 59>   C                    : -1.043704            -4.234054            3.067058
| 60>   O                    : -0.967894            -4.898226            4.364749
| 61>   H                    : -1.811567            -5.220936            4.592340
| 62>   H                    : -1.580061            -3.307889            3.073810
| 63>   H                    : -0.006759            -3.989458            2.723288
| 64>   H                    : -1.542091            -4.895781            2.312860
| 65>   C                      1.088287             -5.431321            7.097600
| 66>   O                      1.378152             -4.681061            5.972088
| 67>   H                      0.733265             -4.938297            5.285222
| 68>   H                      1.351408             -6.480254            7.040875
| 69>   H                      1.562013             -4.951419            7.949403
| 70>   H                      -0.004415            -5.432203            7.255483
| 71> *
| 72>
| 73>                          ****END OF INPUT****
 Total Charge           Charge          ....    0
 Multiplicity           Mult            ....    1
 Number of Electrons    NEL             ....   36
Dispersion correction           -0.001717076
FINAL SINGLE POINT ENERGY      -231.477040181643
Dispersion correction           -0.000268682
FINAL SINGLE POINT ENERGY      -115.733749575099

CARTESIAN COORDINATES (ANGSTROEM)
---------------------------------
  C     -1.043704   -4.234054    3.067058
  O     -0.967894   -4.898226    4.364749
  H     -1.811567   -5.220936    4.592340
  H     -1.580061   -3.307889    3.073810
  H     -0.006759   -3.989458    2.723288
  H     -1.542091   -4.895781    2.312860
  C      1.088287   -5.431321    7.097600
  O      1.378152   -4.681061    5.972088
  H      0.733265   -4.938297    5.285222
  H      1.351408   -6.480254    7.040875
  H      1.562013   -4.951419    7.949403
  H     -0.004415   -5.432203    7.255483

 Multiplicity           Mult            ....    1
 Number of Electrons    NEL             ....   18
 Basis Dimension        Dim             ....  172

ORBITAL ENERGIES
----------------

  NO   OCC          E(Eh)            E(eV)
   0   2.0000     -19.232214      -523.3351
   1   2.0000     -10.309055      -280.5236
   2   2.0000      -1.144387       -31.1403
   3   2.0000      -0.792375       -21.5616
   4   2.0000      -0.618291       -16.8246
   5   2.0000      -0.542423       -14.7601
   6   2.0000      -0.531463       -14.4619
   7   2.0000      -0.434636       -11.8270
   8   2.0000      -0.370945       -10.0939
   9   0.0000       0.069494         1.8910
  10   0.0000       0.127032         3.4567
  11   0.0000       0.154057         4.1921
  12   0.0000       0.166986         4.5439
  13   0.0000       0.197429         5.3723

MULLIKEN ATOMIC CHARGES
-----------------------
   0 C :   -0.002861
   1 O :   -0.003886
   2 H :    0.000053
   3 H :    0.000218
   4 H :    0.000016
   5 H :    0.000086
   6 C :   -0.155194
   7 O :   -0.462154
   8 H :    0.314928
   9 H :    0.098181
  10 H :    0.115910
  11 H :    0.094704
Sum of atomic charges:   -0.0000000

LOEWDIN ATOMIC CHARGES
----------------------
   0 C :   -0.003628
   1 O :   -0.020928
   2 H :   -0.001046
   3 H :   -0.000068
   4 H :   -0.000477
   5 H :   -0.000062
   6 C :   -0.407882
   7 O :   -0.049688
   8 H :    0.191157
   9 H :    0.089780
  10 H :    0.107443
  11 H :    0.095399

  Mayer bond orders larger than 0.1
B(  6-C ,  7-O ) :   1.0010 B(  6-C ,  9-H ) :   0.9719 B(  6-C , 10-H ) :   0.9742
B(  6-C , 11-H ) :   0.9844 B(  7-O ,  8-H ) :   0.9026

Dispersion correction           -0.000221579
FINAL SINGLE POINT ENERGY      -115.735207908096

DIPOLE MOMENT
-------------
                                X             Y             Z
Electronic contribution:      0.61113       1.03080      -1.39437
Nuclear contribution   :     -1.12367      -1.46329       1.39620
                        -----------------------------------------
Total Dipole Moment    :     -0.51254      -0.43249       0.00183
                        -----------------------------------------
Magnitude (a.u.)       :      0.67063
Magnitude (Debye)      :      1.70461

Rotational constants in cm-1:     4.270929     0.867567     0.828279
Rotational constants in MHz : 128039.215970 26008.997423 24831.193792

                             ****ORCA TERMINATED NORMALLY****
TOTAL RUN TIME: 0 days 0 hours 1 minutes 2 seconds 252 msec
