                         Program Version 4.1.2  - RELEASE  -
|  1> #Run DFT-D3 single point of the dimer
|  2> ! wB97X-D3 def2-TZVP TIGHTSCF CHELPG PMODEL PAL8
|  3>
|  4> %base "6-77_DFT_AB"
|  5>
|  6> %scf
|  7> MaxIter 1000
|  8> end
|  9>
| 10> * xyz 0 1
| 11>   C                      -4.592135            -8.778354            -4.672863
| 12>   O                      -4.996036            -7.685713            -3.782804
| 13>   H                      -4.696775            -7.821721            -2.928204
| 14>   H                      -3.534098            -9.010149            -4.638917
| 15>   H                      -5.112055            -9.688766            -4.343416
| 16>   H                      -4.938609            -8.647915            -5.698391
| 17>   C                      -2.954584            -6.359247            -7.681066
| 18>   O                      -2.860629            -6.598741            -6.275569
| 19>   H                      -3.711140            -6.456979            -5.913500
| 20>   H                      -2.228339            -6.869746            -8.342924
| 21>   H                      -4.042323            -6.698064            -7.901465
| 22>   H                      -2.942604            -5.298880            -7.839737
| 23> *
| 24>
| 25> #Run DFT-D3 single point of the molecule with dimer basis set
| 26> $new_job
| 27> %base "6-77_DFT_A"
| 28> ! wB97X-D3 def2-TZVP TIGHTSCF CHELPG PMODEL
| 29>
| 30> %scf
| 31> MaxIter 1000
| 32> end
| 33>
| 34> * xyz 0 1
| 35>   C                      -4.592135            -8.778354            -4.672863
| 36>   O                      -4.996036            -7.685713            -3.782804
| 37>   H                      -4.696775            -7.821721            -2.928204
| 38>   H                      -3.534098            -9.010149            -4.638917
| 39>   H                      -5.112055            -9.688766            -4.343416
| 40>   H                      -4.938609            -8.647915            -5.698391
| 41>   C                    : -2.954584            -6.359247            -7.681066
| 42>   O                    : -2.860629            -6.598741            -6.275569
| 43>   H                    : -3.711140            -6.456979            -5.913500
| 44>   H                    : -2.228339            -6.869746            -8.342924
| 45>   H                    : -4.042323            -6.698064            -7.901465
| 46>   H                    : -2.942604            -5.298880            -7.839737
| 47> *
| 48>
| 49> #Run DFT-D3 single point of the particle with dimer basis set
| 50> $new_job
| 51> %base "6-77_DFT_B"
| 52> ! wB97X-D3 def2-TZVP TIGHTSCF CHELPG PMODEL
| 53>
| 54> %scf
| 55> MaxIter 1000
| 56> end
| 57>
| 58> * xyz 0 1
| 59>   C                    : -4.592135            -8.778354            -4.672863
| 60>   O                    : -4.996036            -7.685713            -3.782804
| 61>   H                    : -4.696775            -7.821721            -2.928204
| 62>   H                    : -3.534098            -9.010149            -4.638917
| 63>   H                    : -5.112055            -9.688766            -4.343416
| 64>   H                    : -4.938609            -8.647915            -5.698391
| 65>   C                      -2.954584            -6.359247            -7.681066
| 66>   O                      -2.860629            -6.598741            -6.275569
| 67>   H                      -3.711140            -6.456979            -5.913500
| 68>   H                      -2.228339            -6.869746            -8.342924
| 69>   H                      -4.042323            -6.698064            -7.901465
| 70>   H                      -2.942604            -5.298880            -7.839737
| 71> *
| 72>
| 73>                          ****END OF INPUT****
 Total Charge           Charge          ....    0
 Multiplicity           Mult            ....    1
 Number of Electrons    NEL             ....   36
Dispersion correction           -0.001899217
FINAL SINGLE POINT ENERGY      -231.460879111896
Dispersion correction           -0.000267042
FINAL SINGLE POINT ENERGY      -115.730558377605

CARTESIAN COORDINATES (ANGSTROEM)
---------------------------------
  C     -4.592135   -8.778354   -4.672863
  O     -4.996036   -7.685713   -3.782804
  H     -4.696775   -7.821721   -2.928204
  H     -3.534098   -9.010149   -4.638917
  H     -5.112055   -9.688766   -4.343416
  H     -4.938609   -8.647915   -5.698391
  C     -2.954584   -6.359247   -7.681066
  O     -2.860629   -6.598741   -6.275569
  H     -3.711140   -6.456979   -5.913500
  H     -2.228339   -6.869746   -8.342924
  H     -4.042323   -6.698064   -7.901465
  H     -2.942604   -5.298880   -7.839737

 Multiplicity           Mult            ....    1
 Number of Electrons    NEL             ....   18
 Basis Dimension        Dim             ....  172

ORBITAL ENERGIES
----------------

  NO   OCC          E(Eh)            E(eV)
   0   2.0000     -19.226247      -523.1728
   1   2.0000     -10.323306      -280.9114
   2   2.0000      -1.138131       -30.9701
   3   2.0000      -0.793355       -21.5883
   4   2.0000      -0.607399       -16.5282
   5   2.0000      -0.542760       -14.7693
   6   2.0000      -0.535942       -14.5837
   7   2.0000      -0.427740       -11.6394
   8   2.0000      -0.371528       -10.1098
   9   0.0000       0.080140         2.1807
  10   0.0000       0.125784         3.4228
  11   0.0000       0.154551         4.2055
  12   0.0000       0.166457         4.5295
  13   0.0000       0.187617         5.1053

MULLIKEN ATOMIC CHARGES
-----------------------
   0 C :   -0.008457
   1 O :    0.000377
   2 H :    0.000009
   3 H :   -0.000729
   4 H :   -0.001129
   5 H :   -0.002919
   6 C :   -0.172017
   7 O :   -0.464244
   8 H :    0.316095
   9 H :    0.127975
  10 H :    0.091637
  11 H :    0.113401
Sum of atomic charges:   -0.0000000

LOEWDIN ATOMIC CHARGES
----------------------
   0 C :   -0.015031
   1 O :   -0.001038
   2 H :   -0.000081
   3 H :   -0.003487
   4 H :   -0.000223
   5 H :   -0.003061
   6 C :   -0.371000
   7 O :   -0.068016
   8 H :    0.154125
   9 H :    0.109461
  10 H :    0.107748
  11 H :    0.090603

  Mayer bond orders larger than 0.1
B(  6-C ,  7-O ) :   0.9877 B(  6-C ,  9-H ) :   0.9665 B(  6-C , 10-H ) :   0.9968
B(  6-C , 11-H ) :   0.9740 B(  7-O ,  8-H ) :   0.9017

Dispersion correction           -0.000226732
FINAL SINGLE POINT ENERGY      -115.726625507519

DIPOLE MOMENT
-------------
                                X             Y             Z
Electronic contribution:      0.52209      -0.33184       1.67198
Nuclear contribution   :     -1.08195       0.53987      -2.02759
                        -----------------------------------------
Total Dipole Moment    :     -0.55986       0.20803      -0.35561
                        -----------------------------------------
Magnitude (a.u.)       :      0.69511
Magnitude (Debye)      :      1.76683

Rotational constants in cm-1:     4.179025     0.825737     0.790280
Rotational constants in MHz : 125284.024810 24754.959711 23692.003604

                             ****ORCA TERMINATED NORMALLY****
TOTAL RUN TIME: 0 days 0 hours 1 minutes 6 seconds 102 msec
