                         Program Version 4.1.2  - RELEASE  -
|  1> #Run DFT-D3 single point of the dimer
|  2> ! wB97X-D3 def2-TZVP TIGHTSCF CHELPG PMODEL PAL8
|  3>
|  4> %base "3-85_DFT_AB"
|  5>
|  6> %scf
|  7> MaxIter 1000
|  8> end
|  9>
| 10> * xyz 0 1
| 11>   C                      -1.179622            -0.680025            6.462159
| 12>   O                      -1.994517            0.038928             7.405688
| 13>   H                      -2.109912            0.907878             7.079844
| 14>   H                      -0.109920            -0.503745            6.727623
| 15>   H                      -1.354234            -1.756892            6.522703
| 16>   H                      -1.366128            -0.313220            5.402350
| 17>   C                      -3.648083            -3.106244            7.444514
| 18>   O                      -2.585159            -3.555691            8.296022
| 19>   H                      -2.618639            -3.061493            9.095974
| 20>   H                      -4.637331            -3.557674            7.707565
| 21>   H                      -3.848473            -2.049444            7.504523
| 22>   H                      -3.362883            -3.143375            6.377812
| 23> *
| 24>
| 25> #Run DFT-D3 single point of the molecule with dimer basis set
| 26> $new_job
| 27> %base "3-85_DFT_A"
| 28> ! wB97X-D3 def2-TZVP TIGHTSCF CHELPG PMODEL
| 29>
| 30> %scf
| 31> MaxIter 1000
| 32> end
| 33>
| 34> * xyz 0 1
| 35>   C                      -1.179622            -0.680025            6.462159
| 36>   O                      -1.994517            0.038928             7.405688
| 37>   H                      -2.109912            0.907878             7.079844
| 38>   H                      -0.109920            -0.503745            6.727623
| 39>   H                      -1.354234            -1.756892            6.522703
| 40>   H                      -1.366128            -0.313220            5.402350
| 41>   C                    : -3.648083            -3.106244            7.444514
| 42>   O                    : -2.585159            -3.555691            8.296022
| 43>   H                    : -2.618639            -3.061493            9.095974
| 44>   H                    : -4.637331            -3.557674            7.707565
| 45>   H                    : -3.848473            -2.049444            7.504523
| 46>   H                    : -3.362883            -3.143375            6.377812
| 47> *
| 48>
| 49> #Run DFT-D3 single point of the particle with dimer basis set
| 50> $new_job
| 51> %base "3-85_DFT_B"
| 52> ! wB97X-D3 def2-TZVP TIGHTSCF CHELPG PMODEL
| 53>
| 54> %scf
| 55> MaxIter 1000
| 56> end
| 57>
| 58> * xyz 0 1
| 59>   C                    : -1.179622            -0.680025            6.462159
| 60>   O                    : -1.994517            0.038928             7.405688
| 61>   H                    : -2.109912            0.907878             7.079844
| 62>   H                    : -0.109920            -0.503745            6.727623
| 63>   H                    : -1.354234            -1.756892            6.522703
| 64>   H                    : -1.366128            -0.313220            5.402350
| 65>   C                      -3.648083            -3.106244            7.444514
| 66>   O                      -2.585159            -3.555691            8.296022
| 67>   H                      -2.618639            -3.061493            9.095974
| 68>   H                      -4.637331            -3.557674            7.707565
| 69>   H                      -3.848473            -2.049444            7.504523
| 70>   H                      -3.362883            -3.143375            6.377812
| 71> *
| 72>
| 73>                          ****END OF INPUT****
 Total Charge           Charge          ....    0
 Multiplicity           Mult            ....    1
 Number of Electrons    NEL             ....   36
Dispersion correction           -0.002158615
FINAL SINGLE POINT ENERGY      -231.468209964063
Dispersion correction           -0.000253585
FINAL SINGLE POINT ENERGY      -115.734083878341

CARTESIAN COORDINATES (ANGSTROEM)
---------------------------------
  C     -1.179622   -0.680025    6.462159
  O     -1.994517    0.038928    7.405688
  H     -2.109912    0.907878    7.079844
  H     -0.109920   -0.503745    6.727623
  H     -1.354234   -1.756892    6.522703
  H     -1.366128   -0.313220    5.402350
  C     -3.648083   -3.106244    7.444514
  O     -2.585159   -3.555691    8.296022
  H     -2.618639   -3.061493    9.095974
  H     -4.637331   -3.557674    7.707565
  H     -3.848473   -2.049444    7.504523
  H     -3.362883   -3.143375    6.377812

 Multiplicity           Mult            ....    1
 Number of Electrons    NEL             ....   18
 Basis Dimension        Dim             ....  172

ORBITAL ENERGIES
----------------

  NO   OCC          E(Eh)            E(eV)
   0   2.0000     -19.231746      -523.3224
   1   2.0000     -10.317602      -280.7562
   2   2.0000      -1.135281       -30.8926
   3   2.0000      -0.799554       -21.7570
   4   2.0000      -0.614711       -16.7271
   5   2.0000      -0.545375       -14.8404
   6   2.0000      -0.513992       -13.9864
   7   2.0000      -0.432763       -11.7761
   8   2.0000      -0.378513       -10.2999
   9   0.0000       0.083008         2.2588
  10   0.0000       0.127231         3.4621
  11   0.0000       0.150431         4.0934
  12   0.0000       0.159557         4.3418
  13   0.0000       0.196674         5.3518

MULLIKEN ATOMIC CHARGES
-----------------------
   0 C :   -0.005349
   1 O :    0.000801
   2 H :    0.000027
   3 H :    0.000344
   4 H :    0.001488
   5 H :    0.000222
   6 C :   -0.190485
   7 O :   -0.475014
   8 H :    0.313062
   9 H :    0.116278
  10 H :    0.113197
  11 H :    0.125428
Sum of atomic charges:    0.0000000

LOEWDIN ATOMIC CHARGES
----------------------
   0 C :   -0.006826
   1 O :   -0.002076
   2 H :   -0.000164
   3 H :   -0.000041
   4 H :   -0.006040
   5 H :   -0.000060
   6 C :   -0.377444
   7 O :   -0.075162
   8 H :    0.156096
   9 H :    0.102742
  10 H :    0.094454
  11 H :    0.114521

  Mayer bond orders larger than 0.1
B(  6-C ,  7-O ) :   0.9852 B(  6-C ,  9-H ) :   0.9699 B(  6-C , 10-H ) :   0.9766
B(  6-C , 11-H ) :   0.9761 B(  7-O ,  8-H ) :   0.9032

Dispersion correction           -0.000264671
FINAL SINGLE POINT ENERGY      -115.730593629679

DIPOLE MOMENT
-------------
                                X             Y             Z
Electronic contribution:      1.43640      -0.78665       1.01912
Nuclear contribution   :     -1.88135       1.34128      -0.84513
                        -----------------------------------------
Total Dipole Moment    :     -0.44495       0.55463       0.17398
                        -----------------------------------------
Magnitude (a.u.)       :      0.73203
Magnitude (Debye)      :      1.86067

Rotational constants in cm-1:     4.389140     0.799885     0.778518
Rotational constants in MHz : 131583.110598 23979.951679 23339.370352

                             ****ORCA TERMINATED NORMALLY****
TOTAL RUN TIME: 0 days 0 hours 6 minutes 15 seconds 879 msec
