                         Program Version 4.1.2  - RELEASE  -
|  1> #Run DFT-D3 single point of the dimer
|  2> ! wB97X-D3 def2-TZVP TIGHTSCF CHELPG PMODEL PAL8
|  3>
|  4> %base "11-152_DFT_AB"
|  5>
|  6> %scf
|  7> MaxIter 1000
|  8> end
|  9>
| 10> * xyz 0 1
| 11>   C                      7.333057             -2.430812            1.645789
| 12>   O                      8.150928             -3.348863            2.355897
| 13>   H                      7.901100             -4.245522            2.122352
| 14>   H                      7.599919             -2.293833            0.620857
| 15>   H                      6.249450             -2.648835            1.741102
| 16>   H                      7.518582             -1.423774            2.056502
| 17>   C                      5.635893             -6.833822            2.354291
| 18>   O                      6.823807             -6.280611            1.810459
| 19>   H                      6.745220             -6.353284            0.879229
| 20>   H                      5.770594             -7.966270            2.477913
| 21>   H                      5.374123             -6.412915            3.351586
| 22>   H                      4.775735             -6.656951            1.729860
| 23> *
| 24>
| 25> #Run DFT-D3 single point of the molecule with dimer basis set
| 26> $new_job
| 27> %base "11-152_DFT_A"
| 28> ! wB97X-D3 def2-TZVP TIGHTSCF CHELPG PMODEL
| 29>
| 30> %scf
| 31> MaxIter 1000
| 32> end
| 33>
| 34> * xyz 0 1
| 35>   C                      7.333057             -2.430812            1.645789
| 36>   O                      8.150928             -3.348863            2.355897
| 37>   H                      7.901100             -4.245522            2.122352
| 38>   H                      7.599919             -2.293833            0.620857
| 39>   H                      6.249450             -2.648835            1.741102
| 40>   H                      7.518582             -1.423774            2.056502
| 41>   C                    : 5.635893             -6.833822            2.354291
| 42>   O                    : 6.823807             -6.280611            1.810459
| 43>   H                    : 6.745220             -6.353284            0.879229
| 44>   H                    : 5.770594             -7.966270            2.477913
| 45>   H                    : 5.374123             -6.412915            3.351586
| 46>   H                    : 4.775735             -6.656951            1.729860
| 47> *
| 48>
| 49> #Run DFT-D3 single point of the particle with dimer basis set
| 50> $new_job
| 51> %base "11-152_DFT_B"
| 52> ! wB97X-D3 def2-TZVP TIGHTSCF CHELPG PMODEL
| 53>
| 54> %scf
| 55> MaxIter 1000
| 56> end
| 57>
| 58> * xyz 0 1
| 59>   C                    : 7.333057             -2.430812            1.645789
| 60>   O                    : 8.150928             -3.348863            2.355897
| 61>   H                    : 7.901100             -4.245522            2.122352
| 62>   H                    : 7.599919             -2.293833            0.620857
| 63>   H                    : 6.249450             -2.648835            1.741102
| 64>   H                    : 7.518582             -1.423774            2.056502
| 65>   C                      5.635893             -6.833822            2.354291
| 66>   O                      6.823807             -6.280611            1.810459
| 67>   H                      6.745220             -6.353284            0.879229
| 68>   H                      5.770594             -7.966270            2.477913
| 69>   H                      5.374123             -6.412915            3.351586
| 70>   H                      4.775735             -6.656951            1.729860
| 71> *
| 72>
| 73>                          ****END OF INPUT****
 Total Charge           Charge          ....    0
 Multiplicity           Mult            ....    1
 Number of Electrons    NEL             ....   36
Dispersion correction           -0.001504681
FINAL SINGLE POINT ENERGY      -231.475485051807
Dispersion correction           -0.000257415
FINAL SINGLE POINT ENERGY      -115.735513132431

CARTESIAN COORDINATES (ANGSTROEM)
---------------------------------
  C      7.333057   -2.430812    1.645789
  O      8.150928   -3.348863    2.355897
  H      7.901100   -4.245522    2.122352
  H      7.599919   -2.293833    0.620857
  H      6.249450   -2.648835    1.741102
  H      7.518582   -1.423774    2.056502
  C      5.635893   -6.833822    2.354291
  O      6.823807   -6.280611    1.810459
  H      6.745220   -6.353284    0.879229
  H      5.770594   -7.966270    2.477913
  H      5.374123   -6.412915    3.351586
  H      4.775735   -6.656951    1.729860

 Multiplicity           Mult            ....    1
 Number of Electrons    NEL             ....   18
 Basis Dimension        Dim             ....  172

ORBITAL ENERGIES
----------------

  NO   OCC          E(Eh)            E(eV)
   0   2.0000     -19.231056      -523.3036
   1   2.0000     -10.320298      -280.8296
   2   2.0000      -1.142161       -31.0798
   3   2.0000      -0.793722       -21.5983
   4   2.0000      -0.614817       -16.7300
   5   2.0000      -0.536761       -14.6060
   6   2.0000      -0.527613       -14.3571
   7   2.0000      -0.437319       -11.9001
   8   2.0000      -0.374144       -10.1810
   9   0.0000       0.093938         2.5562
  10   0.0000       0.124308         3.3826
  11   0.0000       0.151559         4.1241
  12   0.0000       0.185271         5.0415
  13   0.0000       0.196967         5.3597

MULLIKEN ATOMIC CHARGES
-----------------------
   0 C :   -0.002207
   1 O :   -0.000110
   2 H :   -0.005956
   3 H :    0.000131
   4 H :   -0.000922
   5 H :   -0.000250
   6 C :   -0.173042
   7 O :   -0.457304
   8 H :    0.312264
   9 H :    0.099669
  10 H :    0.117719
  11 H :    0.110008
Sum of atomic charges:   -0.0000000

LOEWDIN ATOMIC CHARGES
----------------------
   0 C :   -0.002396
   1 O :   -0.001642
   2 H :   -0.020430
   3 H :   -0.000039
   4 H :   -0.000586
   5 H :   -0.000059
   6 C :   -0.387281
   7 O :   -0.049399
   8 H :    0.156111
   9 H :    0.104572
  10 H :    0.109799
  11 H :    0.091350

  Mayer bond orders larger than 0.1
B(  6-C ,  7-O ) :   0.9964 B(  6-C ,  9-H ) :   0.9730 B(  6-C , 10-H ) :   0.9739
B(  6-C , 11-H ) :   0.9764 B(  7-O ,  8-H ) :   0.9030

Dispersion correction           -0.000248179
FINAL SINGLE POINT ENERGY      -115.733825016697

DIPOLE MOMENT
-------------
                                X             Y             Z
Electronic contribution:      1.57432       0.82968      -0.60594
Nuclear contribution   :     -2.11701      -1.07687       0.21290
                        -----------------------------------------
Total Dipole Moment    :     -0.54269      -0.24719      -0.39304
                        -----------------------------------------
Magnitude (a.u.)       :      0.71421
Magnitude (Debye)      :      1.81538

Rotational constants in cm-1:     4.235135     0.819322     0.796847
Rotational constants in MHz : 126966.163861 24562.669236 23888.877365

                             ****ORCA TERMINATED NORMALLY****
TOTAL RUN TIME: 0 days 0 hours 1 minutes 11 seconds 164 msec
