                         Program Version 4.1.2  - RELEASE  -
|  1> #Run DFT-D3 single point of the dimer
|  2> ! wB97X-D3 def2-TZVP TIGHTSCF CHELPG PMODEL PAL8
|  3>
|  4> %base "13-145_DFT_AB"
|  5>
|  6> %scf
|  7> MaxIter 1000
|  8> end
|  9>
| 10> * xyz 0 1
| 11>   C                      -10.222836           8.222040             -1.314980
| 12>   O                      -9.311791            9.275276             -1.196687
| 13>   H                      -9.311907            9.779786             -2.046331
| 14>   H                      -10.054885           7.518585             -0.468699
| 15>   H                      -11.220995           8.539952             -1.155101
| 16>   H                      -10.093888           7.611349             -2.239045
| 17>   C                      -8.408947            11.159215            2.239552
| 18>   O                      -8.037475            10.575306            0.941949
| 19>   H                      -8.743245            10.204981            0.358566
| 20>   H                      -8.538852            10.351907            2.978712
| 21>   H                      -7.662695            11.936653            2.586076
| 22>   H                      -9.404057            11.635072            2.243236
| 23> *
| 24>
| 25> #Run DFT-D3 single point of the molecule with dimer basis set
| 26> $new_job
| 27> %base "13-145_DFT_A"
| 28> ! wB97X-D3 def2-TZVP TIGHTSCF CHELPG PMODEL
| 29>
| 30> %scf
| 31> MaxIter 1000
| 32> end
| 33>
| 34> * xyz 0 1
| 35>   C                      -10.222836           8.222040             -1.314980
| 36>   O                      -9.311791            9.275276             -1.196687
| 37>   H                      -9.311907            9.779786             -2.046331
| 38>   H                      -10.054885           7.518585             -0.468699
| 39>   H                      -11.220995           8.539952             -1.155101
| 40>   H                      -10.093888           7.611349             -2.239045
| 41>   C                    : -8.408947            11.159215            2.239552
| 42>   O                    : -8.037475            10.575306            0.941949
| 43>   H                    : -8.743245            10.204981            0.358566
| 44>   H                    : -8.538852            10.351907            2.978712
| 45>   H                    : -7.662695            11.936653            2.586076
| 46>   H                    : -9.404057            11.635072            2.243236
| 47> *
| 48>
| 49> #Run DFT-D3 single point of the particle with dimer basis set
| 50> $new_job
| 51> %base "13-145_DFT_B"
| 52> ! wB97X-D3 def2-TZVP TIGHTSCF CHELPG PMODEL
| 53>
| 54> %scf
| 55> MaxIter 1000
| 56> end
| 57>
| 58> * xyz 0 1
| 59>   C                    : -10.222836           8.222040             -1.314980
| 60>   O                    : -9.311791            9.275276             -1.196687
| 61>   H                    : -9.311907            9.779786             -2.046331
| 62>   H                    : -10.054885           7.518585             -0.468699
| 63>   H                    : -11.220995           8.539952             -1.155101
| 64>   H                    : -10.093888           7.611349             -2.239045
| 65>   C                      -8.408947            11.159215            2.239552
| 66>   O                      -8.037475            10.575306            0.941949
| 67>   H                      -8.743245            10.204981            0.358566
| 68>   H                      -8.538852            10.351907            2.978712
| 69>   H                      -7.662695            11.936653            2.586076
| 70>   H                      -9.404057            11.635072            2.243236
| 71> *
| 72>
| 73>                          ****END OF INPUT****
 Total Charge           Charge          ....    0
 Multiplicity           Mult            ....    1
 Number of Electrons    NEL             ....   36
Dispersion correction           -0.001463468
FINAL SINGLE POINT ENERGY      -231.468458623857
Dispersion correction           -0.000244730
FINAL SINGLE POINT ENERGY      -115.734084717265

CARTESIAN COORDINATES (ANGSTROEM)
---------------------------------
  C    -10.222836    8.222040   -1.314980
  O     -9.311791    9.275276   -1.196687
  H     -9.311907    9.779786   -2.046331
  H    -10.054885    7.518585   -0.468699
  H    -11.220995    8.539952   -1.155101
  H    -10.093888    7.611349   -2.239045
  C     -8.408947   11.159215    2.239552
  O     -8.037475   10.575306    0.941949
  H     -8.743245   10.204981    0.358566
  H     -8.538852   10.351907    2.978712
  H     -7.662695   11.936653    2.586076
  H     -9.404057   11.635072    2.243236

 Multiplicity           Mult            ....    1
 Number of Electrons    NEL             ....   18
 Basis Dimension        Dim             ....  172

ORBITAL ENERGIES
----------------

  NO   OCC          E(Eh)            E(eV)
   0   2.0000     -19.228332      -523.2295
   1   2.0000     -10.326296      -280.9928
   2   2.0000      -1.107592       -30.1391
   3   2.0000      -0.796013       -21.6606
   4   2.0000      -0.602308       -16.3896
   5   2.0000      -0.531592       -14.4654
   6   2.0000      -0.515849       -14.0370
   7   2.0000      -0.422705       -11.5024
   8   2.0000      -0.371746       -10.1157
   9   0.0000       0.070714         1.9242
  10   0.0000       0.129796         3.5319
  11   0.0000       0.140592         3.8257
  12   0.0000       0.169336         4.6079
  13   0.0000       0.191208         5.2030

MULLIKEN ATOMIC CHARGES
-----------------------
   0 C :   -0.000996
   1 O :   -0.000290
   2 H :   -0.000209
   3 H :   -0.000300
   4 H :    0.000176
   5 H :   -0.000088
   6 C :   -0.160925
   7 O :   -0.505583
   8 H :    0.315480
   9 H :    0.111240
  10 H :    0.130840
  11 H :    0.110656
Sum of atomic charges:   -0.0000000

LOEWDIN ATOMIC CHARGES
----------------------
   0 C :   -0.003225
   1 O :   -0.020709
   2 H :   -0.001436
   3 H :   -0.000392
   4 H :   -0.000099
   5 H :   -0.000087
   6 C :   -0.350337
   7 O :   -0.127272
   8 H :    0.190592
   9 H :    0.098109
  10 H :    0.117589
  11 H :    0.097267

  Mayer bond orders larger than 0.1
B(  6-C ,  7-O ) :   0.9800 B(  6-C ,  9-H ) :   0.9740 B(  6-C , 10-H ) :   0.9664
B(  6-C , 11-H ) :   0.9741 B(  7-O ,  8-H ) :   0.8920

Dispersion correction           -0.000307713
FINAL SINGLE POINT ENERGY      -115.726989157623

DIPOLE MOMENT
-------------
                                X             Y             Z
Electronic contribution:      0.62874      -0.64211      -1.56744
Nuclear contribution   :     -1.27777       0.67320       1.77295
                        -----------------------------------------
Total Dipole Moment    :     -0.64903       0.03109       0.20552
                        -----------------------------------------
Magnitude (a.u.)       :      0.68150
Magnitude (Debye)      :      1.73223

Rotational constants in cm-1:     4.324045     0.759374     0.732636
Rotational constants in MHz : 129631.620677 22765.464920 21963.870495

                             ****ORCA TERMINATED NORMALLY****
TOTAL RUN TIME: 0 days 0 hours 1 minutes 11 seconds 373 msec
