                         Program Version 4.1.2  - RELEASE  -
|  1> #Run DFT-D3 single point of the dimer
|  2> ! wB97X-D3 def2-TZVP TIGHTSCF CHELPG PMODEL PAL8
|  3>
|  4> %base "16-139_DFT_AB"
|  5>
|  6> %scf
|  7> MaxIter 1000
|  8> end
|  9>
| 10> * xyz 0 1
| 11>   C                      -3.172253            6.115077             -9.430730
| 12>   O                      -2.258837            5.717845             -8.440253
| 13>   H                      -1.895937            4.816713             -8.604891
| 14>   H                      -3.875050            5.249466             -9.500495
| 15>   H                      -3.779067            6.980646             -9.198653
| 16>   H                      -2.772807            6.321334             -10.463396
| 17>   C                      -2.833394            3.356421             -5.756961
| 18>   O                      -2.355531            4.681336             -5.753562
| 19>   H                      -2.846205            5.233091             -6.310607
| 20>   H                      -2.789939            2.826615             -6.740365
| 21>   H                      -2.255881            2.728479             -5.178716
| 22>   H                      -3.909778            3.281264             -5.410658
| 23> *
| 24>
| 25> #Run DFT-D3 single point of the molecule with dimer basis set
| 26> $new_job
| 27> %base "16-139_DFT_A"
| 28> ! wB97X-D3 def2-TZVP TIGHTSCF CHELPG PMODEL
| 29>
| 30> %scf
| 31> MaxIter 1000
| 32> end
| 33>
| 34> * xyz 0 1
| 35>   C                      -3.172253            6.115077             -9.430730
| 36>   O                      -2.258837            5.717845             -8.440253
| 37>   H                      -1.895937            4.816713             -8.604891
| 38>   H                      -3.875050            5.249466             -9.500495
| 39>   H                      -3.779067            6.980646             -9.198653
| 40>   H                      -2.772807            6.321334             -10.463396
| 41>   C                    : -2.833394            3.356421             -5.756961
| 42>   O                    : -2.355531            4.681336             -5.753562
| 43>   H                    : -2.846205            5.233091             -6.310607
| 44>   H                    : -2.789939            2.826615             -6.740365
| 45>   H                    : -2.255881            2.728479             -5.178716
| 46>   H                    : -3.909778            3.281264             -5.410658
| 47> *
| 48>
| 49> #Run DFT-D3 single point of the particle with dimer basis set
| 50> $new_job
| 51> %base "16-139_DFT_B"
| 52> ! wB97X-D3 def2-TZVP TIGHTSCF CHELPG PMODEL
| 53>
| 54> %scf
| 55> MaxIter 1000
| 56> end
| 57>
| 58> * xyz 0 1
| 59>   C                    : -3.172253            6.115077             -9.430730
| 60>   O                    : -2.258837            5.717845             -8.440253
| 61>   H                    : -1.895937            4.816713             -8.604891
| 62>   H                    : -3.875050            5.249466             -9.500495
| 63>   H                    : -3.779067            6.980646             -9.198653
| 64>   H                    : -2.772807            6.321334             -10.463396
| 65>   C                      -2.833394            3.356421             -5.756961
| 66>   O                      -2.355531            4.681336             -5.753562
| 67>   H                      -2.846205            5.233091             -6.310607
| 68>   H                      -2.789939            2.826615             -6.740365
| 69>   H                      -2.255881            2.728479             -5.178716
| 70>   H                      -3.909778            3.281264             -5.410658
| 71> *
| 72>
| 73>                          ****END OF INPUT****
 Total Charge           Charge          ....    0
 Multiplicity           Mult            ....    1
 Number of Electrons    NEL             ....   36
Dispersion correction           -0.001809448
FINAL SINGLE POINT ENERGY      -231.464771108073
Dispersion correction           -0.000257956
FINAL SINGLE POINT ENERGY      -115.729888059819

CARTESIAN COORDINATES (ANGSTROEM)
---------------------------------
  C     -3.172253    6.115077   -9.430730
  O     -2.258837    5.717845   -8.440253
  H     -1.895937    4.816713   -8.604891
  H     -3.875050    5.249466   -9.500495
  H     -3.779067    6.980646   -9.198653
  H     -2.772807    6.321334  -10.463396
  C     -2.833394    3.356421   -5.756961
  O     -2.355531    4.681336   -5.753562
  H     -2.846205    5.233091   -6.310607
  H     -2.789939    2.826615   -6.740365
  H     -2.255881    2.728479   -5.178716
  H     -3.909778    3.281264   -5.410658

 Multiplicity           Mult            ....    1
 Number of Electrons    NEL             ....   18
 Basis Dimension        Dim             ....  172

ORBITAL ENERGIES
----------------

  NO   OCC          E(Eh)            E(eV)
   0   2.0000     -19.230781      -523.2961
   1   2.0000     -10.314117      -280.6614
   2   2.0000      -1.144357       -31.1395
   3   2.0000      -0.805556       -21.9203
   4   2.0000      -0.618838       -16.8394
   5   2.0000      -0.543544       -14.7906
   6   2.0000      -0.528973       -14.3941
   7   2.0000      -0.432641       -11.7728
   8   2.0000      -0.375436       -10.2161
   9   0.0000       0.074541         2.0284
  10   0.0000       0.133414         3.6304
  11   0.0000       0.148088         4.0297
  12   0.0000       0.166985         4.5439
  13   0.0000       0.191736         5.2174

MULLIKEN ATOMIC CHARGES
-----------------------
   0 C :   -0.001986
   1 O :   -0.005588
   2 H :   -0.001925
   3 H :    0.000130
   4 H :    0.000216
   5 H :   -0.000036
   6 C :   -0.163218
   7 O :   -0.462931
   8 H :    0.312642
   9 H :    0.097339
  10 H :    0.125119
  11 H :    0.100237
Sum of atomic charges:   -0.0000000

LOEWDIN ATOMIC CHARGES
----------------------
   0 C :   -0.001872
   1 O :   -0.012478
   2 H :   -0.003960
   3 H :   -0.000106
   4 H :   -0.000059
   5 H :   -0.000055
   6 C :   -0.385082
   7 O :   -0.037464
   8 H :    0.147281
   9 H :    0.098907
  10 H :    0.092622
  11 H :    0.102267

  Mayer bond orders larger than 0.1
B(  6-C ,  7-O ) :   1.0084 B(  6-C ,  9-H ) :   0.9694 B(  6-C , 10-H ) :   0.9740
B(  6-C , 11-H ) :   0.9806 B(  7-O ,  8-H ) :   0.9050

Dispersion correction           -0.000264746
FINAL SINGLE POINT ENERGY      -115.731033195693

DIPOLE MOMENT
-------------
                                X             Y             Z
Electronic contribution:      0.79464       1.75843       0.16411
Nuclear contribution   :     -1.27565      -1.94512      -0.50838
                        -----------------------------------------
Total Dipole Moment    :     -0.48101      -0.18669      -0.34428
                        -----------------------------------------
Magnitude (a.u.)       :      0.62028
Magnitude (Debye)      :      1.57664

Rotational constants in cm-1:     4.537248     0.818247     0.798719
Rotational constants in MHz : 136023.285278 24530.423111 23945.007997

                             ****ORCA TERMINATED NORMALLY****
TOTAL RUN TIME: 0 days 0 hours 1 minutes 7 seconds 748 msec
