                         Program Version 4.1.2  - RELEASE  -
|  1> #Run DFT-D3 single point of the dimer
|  2> ! wB97X-D3 def2-TZVP TIGHTSCF CHELPG PMODEL PAL8
|  3>
|  4> %base "9-87_DFT_AB"
|  5>
|  6> %scf
|  7> MaxIter 1000
|  8> end
|  9>
| 10> * xyz 0 1
| 11>   C                      6.644204             -5.381908            9.413953
| 12>   O                      6.052512             -6.076243            8.369976
| 13>   H                      6.674226             -6.664635            7.970221
| 14>   H                      5.870115             -4.708260            9.921547
| 15>   H                      6.957315             -6.125516            10.130067
| 16>   H                      7.387805             -4.639974            9.029258
| 17>   C                      3.917451             -5.779108            5.175737
| 18>   O                      4.158751             -4.867202            6.229157
| 19>   H                      4.600278             -5.328552            6.984526
| 20>   H                      2.938601             -5.695910            4.797986
| 21>   H                      4.565441             -5.731815            4.340338
| 22>   H                      4.066262             -6.756230            5.657678
| 23> *
| 24>
| 25> #Run DFT-D3 single point of the molecule with dimer basis set
| 26> $new_job
| 27> %base "9-87_DFT_A"
| 28> ! wB97X-D3 def2-TZVP TIGHTSCF CHELPG PMODEL
| 29>
| 30> %scf
| 31> MaxIter 1000
| 32> end
| 33>
| 34> * xyz 0 1
| 35>   C                      6.644204             -5.381908            9.413953
| 36>   O                      6.052512             -6.076243            8.369976
| 37>   H                      6.674226             -6.664635            7.970221
| 38>   H                      5.870115             -4.708260            9.921547
| 39>   H                      6.957315             -6.125516            10.130067
| 40>   H                      7.387805             -4.639974            9.029258
| 41>   C                    : 3.917451             -5.779108            5.175737
| 42>   O                    : 4.158751             -4.867202            6.229157
| 43>   H                    : 4.600278             -5.328552            6.984526
| 44>   H                    : 2.938601             -5.695910            4.797986
| 45>   H                    : 4.565441             -5.731815            4.340338
| 46>   H                    : 4.066262             -6.756230            5.657678
| 47> *
| 48>
| 49> #Run DFT-D3 single point of the particle with dimer basis set
| 50> $new_job
| 51> %base "9-87_DFT_B"
| 52> ! wB97X-D3 def2-TZVP TIGHTSCF CHELPG PMODEL
| 53>
| 54> %scf
| 55> MaxIter 1000
| 56> end
| 57>
| 58> * xyz 0 1
| 59>   C                    : 6.644204             -5.381908            9.413953
| 60>   O                    : 6.052512             -6.076243            8.369976
| 61>   H                    : 6.674226             -6.664635            7.970221
| 62>   H                    : 5.870115             -4.708260            9.921547
| 63>   H                    : 6.957315             -6.125516            10.130067
| 64>   H                    : 7.387805             -4.639974            9.029258
| 65>   C                      3.917451             -5.779108            5.175737
| 66>   O                      4.158751             -4.867202            6.229157
| 67>   H                      4.600278             -5.328552            6.984526
| 68>   H                      2.938601             -5.695910            4.797986
| 69>   H                      4.565441             -5.731815            4.340338
| 70>   H                      4.066262             -6.756230            5.657678
| 71> *
| 72>
| 73>                          ****END OF INPUT****
 Total Charge           Charge          ....    0
 Multiplicity           Mult            ....    1
 Number of Electrons    NEL             ....   36
Dispersion correction           -0.001502129
FINAL SINGLE POINT ENERGY      -231.468154696336
Dispersion correction           -0.000228829
FINAL SINGLE POINT ENERGY      -115.731125794158

CARTESIAN COORDINATES (ANGSTROEM)
---------------------------------
  C      6.644204   -5.381908    9.413953
  O      6.052512   -6.076243    8.369976
  H      6.674226   -6.664635    7.970221
  H      5.870115   -4.708260    9.921547
  H      6.957315   -6.125516   10.130067
  H      7.387805   -4.639974    9.029258
  C      3.917451   -5.779108    5.175737
  O      4.158751   -4.867202    6.229157
  H      4.600278   -5.328552    6.984526
  H      2.938601   -5.695910    4.797986
  H      4.565441   -5.731815    4.340338
  H      4.066262   -6.756230    5.657678

 Multiplicity           Mult            ....    1
 Number of Electrons    NEL             ....   18
 Basis Dimension        Dim             ....  172

ORBITAL ENERGIES
----------------

  NO   OCC          E(Eh)            E(eV)
   0   2.0000     -19.229643      -523.2652
   1   2.0000     -10.305883      -280.4373
   2   2.0000      -1.129101       -30.7244
   3   2.0000      -0.799201       -21.7474
   4   2.0000      -0.607662       -16.5353
   5   2.0000      -0.543993       -14.8028
   6   2.0000      -0.540141       -14.6980
   7   2.0000      -0.422794       -11.5048
   8   2.0000      -0.373467       -10.1626
   9   0.0000       0.068609         1.8670
  10   0.0000       0.122224         3.3259
  11   0.0000       0.153478         4.1764
  12   0.0000       0.168743         4.5917
  13   0.0000       0.195318         5.3149

MULLIKEN ATOMIC CHARGES
-----------------------
   0 C :   -0.001672
   1 O :   -0.001920
   2 H :   -0.000196
   3 H :    0.000079
   4 H :    0.000035
   5 H :    0.000041
   6 C :   -0.150374
   7 O :   -0.482926
   8 H :    0.321083
   9 H :    0.116438
  10 H :    0.104380
  11 H :    0.095033
Sum of atomic charges:    0.0000000

LOEWDIN ATOMIC CHARGES
----------------------
   0 C :   -0.001899
   1 O :   -0.012159
   2 H :   -0.001200
   3 H :   -0.000122
   4 H :   -0.000049
   5 H :   -0.000083
   6 C :   -0.372366
   7 O :   -0.088171
   8 H :    0.191671
   9 H :    0.094262
  10 H :    0.088338
  11 H :    0.101778

  Mayer bond orders larger than 0.1
B(  6-C ,  7-O ) :   1.0037 B(  6-C ,  9-H ) :   0.9789 B(  6-C , 10-H ) :   0.9675
B(  6-C , 11-H ) :   1.0017 B(  7-O ,  8-H ) :   0.8980

Dispersion correction           -0.000236229
FINAL SINGLE POINT ENERGY      -115.728867719009

DIPOLE MOMENT
-------------
                                X             Y             Z
Electronic contribution:      0.21409       1.35558       1.13204
Nuclear contribution   :     -0.03989      -2.02660      -1.08283
                        -----------------------------------------
Total Dipole Moment    :      0.17420      -0.67102       0.04921
                        -----------------------------------------
Magnitude (a.u.)       :      0.69500
Magnitude (Debye)      :      1.76656

Rotational constants in cm-1:     4.450718     0.836929     0.799817
Rotational constants in MHz : 133429.181711 25090.488448 23977.901645

                             ****ORCA TERMINATED NORMALLY****
TOTAL RUN TIME: 0 days 0 hours 0 minutes 44 seconds 365 msec
