                         Program Version 4.1.2  - RELEASE  -
|  1> #Run DFT-D3 single point of the dimer
|  2> ! wB97X-D3 def2-TZVP TIGHTSCF CHELPG PMODEL PAL8
|  3>
|  4> %base "1-68_DFT_AB"
|  5>
|  6> %scf
|  7> MaxIter 1000
|  8> end
|  9>
| 10> * xyz 0 1
| 11>   C                      5.651281             -6.607152            -7.131808
| 12>   O                      4.421029             -6.172387            -6.635053
| 13>   H                      3.846128             -6.941923            -6.443546
| 14>   H                      6.331579             -5.736460            -7.229165
| 15>   H                      6.041744             -7.382705            -6.519006
| 16>   H                      5.543523             -7.079936            -8.062609
| 17>   C                      1.980362             -5.798424            -7.681045
| 18>   O                      2.135933             -4.772879            -6.662109
| 19>   H                      3.066958             -4.778220            -6.405661
| 20>   H                      2.304124             -5.354763            -8.704976
| 21>   H                      2.630836             -6.716177            -7.403627
| 22>   H                      0.967914             -6.177098            -7.779390
| 23> *
| 24>
| 25> #Run DFT-D3 single point of the molecule with dimer basis set
| 26> $new_job
| 27> %base "1-68_DFT_A"
| 28> ! wB97X-D3 def2-TZVP TIGHTSCF CHELPG PMODEL
| 29>
| 30> %scf
| 31> MaxIter 1000
| 32> end
| 33>
| 34> * xyz 0 1
| 35>   C                      5.651281             -6.607152            -7.131808
| 36>   O                      4.421029             -6.172387            -6.635053
| 37>   H                      3.846128             -6.941923            -6.443546
| 38>   H                      6.331579             -5.736460            -7.229165
| 39>   H                      6.041744             -7.382705            -6.519006
| 40>   H                      5.543523             -7.079936            -8.062609
| 41>   C                    : 1.980362             -5.798424            -7.681045
| 42>   O                    : 2.135933             -4.772879            -6.662109
| 43>   H                    : 3.066958             -4.778220            -6.405661
| 44>   H                    : 2.304124             -5.354763            -8.704976
| 45>   H                    : 2.630836             -6.716177            -7.403627
| 46>   H                    : 0.967914             -6.177098            -7.779390
| 47> *
| 48>
| 49> #Run DFT-D3 single point of the particle with dimer basis set
| 50> $new_job
| 51> %base "1-68_DFT_B"
| 52> ! wB97X-D3 def2-TZVP TIGHTSCF CHELPG PMODEL
| 53>
| 54> %scf
| 55> MaxIter 1000
| 56> end
| 57>
| 58> * xyz 0 1
| 59>   C                    : 5.651281             -6.607152            -7.131808
| 60>   O                    : 4.421029             -6.172387            -6.635053
| 61>   H                    : 3.846128             -6.941923            -6.443546
| 62>   H                    : 6.331579             -5.736460            -7.229165
| 63>   H                    : 6.041744             -7.382705            -6.519006
| 64>   H                    : 5.543523             -7.079936            -8.062609
| 65>   C                      1.980362             -5.798424            -7.681045
| 66>   O                      2.135933             -4.772879            -6.662109
| 67>   H                      3.066958             -4.778220            -6.405661
| 68>   H                      2.304124             -5.354763            -8.704976
| 69>   H                      2.630836             -6.716177            -7.403627
| 70>   H                      0.967914             -6.177098            -7.779390
| 71> *
| 72>
| 73>                          ****END OF INPUT****
 Total Charge           Charge          ....    0
 Multiplicity           Mult            ....    1
 Number of Electrons    NEL             ....   36
Dispersion correction           -0.001984062
FINAL SINGLE POINT ENERGY      -231.455747335902
Dispersion correction           -0.000217693
FINAL SINGLE POINT ENERGY      -115.733489264084

CARTESIAN COORDINATES (ANGSTROEM)
---------------------------------
  C      5.651281   -6.607152   -7.131808
  O      4.421029   -6.172387   -6.635053
  H      3.846128   -6.941923   -6.443546
  H      6.331579   -5.736460   -7.229165
  H      6.041744   -7.382705   -6.519006
  H      5.543523   -7.079936   -8.062609
  C      1.980362   -5.798424   -7.681045
  O      2.135933   -4.772879   -6.662109
  H      3.066958   -4.778220   -6.405661
  H      2.304124   -5.354763   -8.704976
  H      2.630836   -6.716177   -7.403627
  H      0.967914   -6.177098   -7.779390

 Multiplicity           Mult            ....    1
 Number of Electrons    NEL             ....   18
 Basis Dimension        Dim             ....  172

ORBITAL ENERGIES
----------------

  NO   OCC          E(Eh)            E(eV)
   0   2.0000     -19.232798      -523.3510
   1   2.0000     -10.330779      -281.1148
   2   2.0000      -1.125246       -30.6195
   3   2.0000      -0.787735       -21.4354
   4   2.0000      -0.597647       -16.2628
   5   2.0000      -0.533400       -14.5146
   6   2.0000      -0.525193       -14.2912
   7   2.0000      -0.432351       -11.7649
   8   2.0000      -0.374037       -10.1781
   9   0.0000       0.072819         1.9815
  10   0.0000       0.130924         3.5626
  11   0.0000       0.144890         3.9427
  12   0.0000       0.163780         4.4567
  13   0.0000       0.195649         5.3239

MULLIKEN ATOMIC CHARGES
-----------------------
   0 C :   -0.000980
   1 O :   -0.012289
   2 H :    0.005918
   3 H :   -0.000130
   4 H :   -0.000005
   5 H :   -0.000700
   6 C :   -0.176228
   7 O :   -0.470711
   8 H :    0.322415
   9 H :    0.107842
  10 H :    0.093967
  11 H :    0.130901
Sum of atomic charges:    0.0000000

LOEWDIN ATOMIC CHARGES
----------------------
   0 C :   -0.004253
   1 O :   -0.044358
   2 H :   -0.025550
   3 H :   -0.000109
   4 H :   -0.000058
   5 H :   -0.000507
   6 C :   -0.348326
   7 O :   -0.096995
   8 H :    0.177659
   9 H :    0.108304
  10 H :    0.131616
  11 H :    0.102578

  Mayer bond orders larger than 0.1
B(  6-C ,  7-O ) :   0.9940 B(  6-C ,  9-H ) :   0.9771 B(  6-C , 10-H ) :   0.9765
B(  6-C , 11-H ) :   0.9672 B(  7-O ,  8-H ) :   0.8997

Dispersion correction           -0.000272639
FINAL SINGLE POINT ENERGY      -115.729874082316

DIPOLE MOMENT
-------------
                                X             Y             Z
Electronic contribution:     -0.08199       1.35131       1.31867
Nuclear contribution   :      0.56896      -1.77681      -1.54883
                        -----------------------------------------
Total Dipole Moment    :      0.48697      -0.42550      -0.23016
                        -----------------------------------------
Magnitude (a.u.)       :      0.68642
Magnitude (Debye)      :      1.74473

Rotational constants in cm-1:     4.011153     0.783640     0.763589
Rotational constants in MHz : 120251.355913 23492.939554 22891.827673

                             ****ORCA TERMINATED NORMALLY****
TOTAL RUN TIME: 0 days 0 hours 6 minutes 24 seconds 361 msec
