                         Program Version 4.1.2  - RELEASE  -
|  1> #Run DFT-D3 single point of the dimer
|  2> ! wB97X-D3 def2-TZVP TIGHTSCF CHELPG PMODEL PAL8
|  3>
|  4> %base "6-96_DFT_AB"
|  5>
|  6> %scf
|  7> MaxIter 1000
|  8> end
|  9>
| 10> * xyz 0 1
| 11>   C                      6.664978             3.067073             1.226311
| 12>   O                      8.059023             2.989451             1.564592
| 13>   H                      8.160365             2.945944             2.478638
| 14>   H                      6.091341             2.145018             1.217380
| 15>   H                      6.072127             3.731938             1.852075
| 16>   H                      6.459341             3.559162             0.310594
| 17>   C                      7.092627             -2.014977            1.058627
| 18>   O                      8.398854             -1.597400            1.085573
| 19>   H                      8.770005             -1.406700            0.210899
| 20>   H                      6.675161             -2.216941            2.109234
| 21>   H                      6.551458             -1.360042            0.373746
| 22>   H                      7.014711             -3.063472            0.698147
| 23> *
| 24>
| 25> #Run DFT-D3 single point of the molecule with dimer basis set
| 26> $new_job
| 27> %base "6-96_DFT_A"
| 28> ! wB97X-D3 def2-TZVP TIGHTSCF CHELPG PMODEL
| 29>
| 30> %scf
| 31> MaxIter 1000
| 32> end
| 33>
| 34> * xyz 0 1
| 35>   C                      6.664978             3.067073             1.226311
| 36>   O                      8.059023             2.989451             1.564592
| 37>   H                      8.160365             2.945944             2.478638
| 38>   H                      6.091341             2.145018             1.217380
| 39>   H                      6.072127             3.731938             1.852075
| 40>   H                      6.459341             3.559162             0.310594
| 41>   C                    : 7.092627             -2.014977            1.058627
| 42>   O                    : 8.398854             -1.597400            1.085573
| 43>   H                    : 8.770005             -1.406700            0.210899
| 44>   H                    : 6.675161             -2.216941            2.109234
| 45>   H                    : 6.551458             -1.360042            0.373746
| 46>   H                    : 7.014711             -3.063472            0.698147
| 47> *
| 48>
| 49> #Run DFT-D3 single point of the particle with dimer basis set
| 50> $new_job
| 51> %base "6-96_DFT_B"
| 52> ! wB97X-D3 def2-TZVP TIGHTSCF CHELPG PMODEL
| 53>
| 54> %scf
| 55> MaxIter 1000
| 56> end
| 57>
| 58> * xyz 0 1
| 59>   C                    : 6.664978             3.067073             1.226311
| 60>   O                    : 8.059023             2.989451             1.564592
| 61>   H                    : 8.160365             2.945944             2.478638
| 62>   H                    : 6.091341             2.145018             1.217380
| 63>   H                    : 6.072127             3.731938             1.852075
| 64>   H                    : 6.459341             3.559162             0.310594
| 65>   C                      7.092627             -2.014977            1.058627
| 66>   O                      8.398854             -1.597400            1.085573
| 67>   H                      8.770005             -1.406700            0.210899
| 68>   H                      6.675161             -2.216941            2.109234
| 69>   H                      6.551458             -1.360042            0.373746
| 70>   H                      7.014711             -3.063472            0.698147
| 71> *
| 72>
| 73>                          ****END OF INPUT****
 Total Charge           Charge          ....    0
 Multiplicity           Mult            ....    1
 Number of Electrons    NEL             ....   36
Dispersion correction           -0.000877000
FINAL SINGLE POINT ENERGY      -231.454529095198
Dispersion correction           -0.000278732
FINAL SINGLE POINT ENERGY      -115.727847898935

CARTESIAN COORDINATES (ANGSTROEM)
---------------------------------
  C      6.664978    3.067073    1.226311
  O      8.059023    2.989451    1.564592
  H      8.160365    2.945944    2.478638
  H      6.091341    2.145018    1.217380
  H      6.072127    3.731938    1.852075
  H      6.459341    3.559162    0.310594
  C      7.092627   -2.014977    1.058627
  O      8.398854   -1.597400    1.085573
  H      8.770005   -1.406700    0.210899
  H      6.675161   -2.216941    2.109234
  H      6.551458   -1.360042    0.373746
  H      7.014711   -3.063472    0.698147

 Multiplicity           Mult            ....    1
 Number of Electrons    NEL             ....   18
 Basis Dimension        Dim             ....  172

ORBITAL ENERGIES
----------------

  NO   OCC          E(Eh)            E(eV)
   0   2.0000     -19.227416      -523.2046
   1   2.0000     -10.317444      -280.7519
   2   2.0000      -1.144647       -31.1474
   3   2.0000      -0.790764       -21.5178
   4   2.0000      -0.617001       -16.7895
   5   2.0000      -0.557452       -15.1690
   6   2.0000      -0.520136       -14.1536
   7   2.0000      -0.420878       -11.4527
   8   2.0000      -0.364398        -9.9158
   9   0.0000       0.086178         2.3450
  10   0.0000       0.115545         3.1441
  11   0.0000       0.149300         4.0627
  12   0.0000       0.167591         4.5604
  13   0.0000       0.187918         5.1135

MULLIKEN ATOMIC CHARGES
-----------------------
   0 C :   -0.000323
   1 O :    0.000008
   2 H :   -0.000033
   3 H :    0.000149
   4 H :    0.000002
   5 H :    0.000009
   6 C :   -0.146234
   7 O :   -0.479688
   8 H :    0.321600
   9 H :    0.115832
  10 H :    0.099481
  11 H :    0.089197
Sum of atomic charges:   -0.0000000

LOEWDIN ATOMIC CHARGES
----------------------
   0 C :   -0.000163
   1 O :   -0.000054
   2 H :   -0.000049
   3 H :   -0.000081
   4 H :   -0.000006
   5 H :   -0.000001
   6 C :   -0.427204
   7 O :   -0.056254
   8 H :    0.176718
   9 H :    0.120781
  10 H :    0.093854
  11 H :    0.092458

  Mayer bond orders larger than 0.1
B(  6-C ,  7-O ) :   1.0007 B(  6-C ,  9-H ) :   0.9663 B(  6-C , 10-H ) :   0.9851
B(  6-C , 11-H ) :   0.9757 B(  7-O ,  8-H ) :   0.8875

Dispersion correction           -0.000235956
FINAL SINGLE POINT ENERGY      -115.726248040967

DIPOLE MOMENT
-------------
                                X             Y             Z
Electronic contribution:      1.66944       0.71687       0.15812
Nuclear contribution   :     -1.91265      -0.76890      -0.74084
                        -----------------------------------------
Total Dipole Moment    :     -0.24321      -0.05203      -0.58271
                        -----------------------------------------
Magnitude (a.u.)       :      0.63357
Magnitude (Debye)      :      1.61041

Rotational constants in cm-1:     4.224086     0.868412     0.825002
Rotational constants in MHz : 126634.922629 26034.325352 24732.941972

                             ****ORCA TERMINATED NORMALLY****
TOTAL RUN TIME: 0 days 0 hours 0 minutes 44 seconds 24 msec
