                         Program Version 4.1.2  - RELEASE  -
|  1> #Run DFT-D3 single point of the dimer
|  2> ! wB97X-D3 def2-TZVP TIGHTSCF CHELPG PMODEL PAL8
|  3>
|  4> %base "3-43_DFT_AB"
|  5>
|  6> %scf
|  7> MaxIter 1000
|  8> end
|  9>
| 10> * xyz 0 1
| 11>   C                      -3.289817            3.839313             -6.482746
| 12>   O                      -4.185576            4.250906             -7.462851
| 13>   H                      -4.707539            3.455339             -7.545012
| 14>   H                      -3.645948            3.191517             -5.758856
| 15>   H                      -2.405513            3.242529             -6.901142
| 16>   H                      -2.662676            4.632680             -6.020365
| 17>   C                      0.481502             6.241681             -7.023947
| 18>   O                      0.373945             5.380980             -8.112084
| 19>   H                      -0.160538            4.632278             -7.852249
| 20>   H                      -0.384120            6.148558             -6.367482
| 21>   H                      1.226206             5.973162             -6.270391
| 22>   H                      0.597087             7.315156             -7.299775
| 23> *
| 24>
| 25> #Run DFT-D3 single point of the molecule with dimer basis set
| 26> $new_job
| 27> %base "3-43_DFT_A"
| 28> ! wB97X-D3 def2-TZVP TIGHTSCF CHELPG PMODEL
| 29>
| 30> %scf
| 31> MaxIter 1000
| 32> end
| 33>
| 34> * xyz 0 1
| 35>   C                      -3.289817            3.839313             -6.482746
| 36>   O                      -4.185576            4.250906             -7.462851
| 37>   H                      -4.707539            3.455339             -7.545012
| 38>   H                      -3.645948            3.191517             -5.758856
| 39>   H                      -2.405513            3.242529             -6.901142
| 40>   H                      -2.662676            4.632680             -6.020365
| 41>   C                    : 0.481502             6.241681             -7.023947
| 42>   O                    : 0.373945             5.380980             -8.112084
| 43>   H                    : -0.160538            4.632278             -7.852249
| 44>   H                    : -0.384120            6.148558             -6.367482
| 45>   H                    : 1.226206             5.973162             -6.270391
| 46>   H                    : 0.597087             7.315156             -7.299775
| 47> *
| 48>
| 49> #Run DFT-D3 single point of the particle with dimer basis set
| 50> $new_job
| 51> %base "3-43_DFT_B"
| 52> ! wB97X-D3 def2-TZVP TIGHTSCF CHELPG PMODEL
| 53>
| 54> %scf
| 55> MaxIter 1000
| 56> end
| 57>
| 58> * xyz 0 1
| 59>   C                    : -3.289817            3.839313             -6.482746
| 60>   O                    : -4.185576            4.250906             -7.462851
| 61>   H                    : -4.707539            3.455339             -7.545012
| 62>   H                    : -3.645948            3.191517             -5.758856
| 63>   H                    : -2.405513            3.242529             -6.901142
| 64>   H                    : -2.662676            4.632680             -6.020365
| 65>   C                      0.481502             6.241681             -7.023947
| 66>   O                      0.373945             5.380980             -8.112084
| 67>   H                      -0.160538            4.632278             -7.852249
| 68>   H                      -0.384120            6.148558             -6.367482
| 69>   H                      1.226206             5.973162             -6.270391
| 70>   H                      0.597087             7.315156             -7.299775
| 71> *
| 72>
| 73>                          ****END OF INPUT****
 Total Charge           Charge          ....    0
 Multiplicity           Mult            ....    1
 Number of Electrons    NEL             ....   36
Dispersion correction           -0.001385705
FINAL SINGLE POINT ENERGY      -231.455251840318
Dispersion correction           -0.000235394
FINAL SINGLE POINT ENERGY      -115.723674313020

CARTESIAN COORDINATES (ANGSTROEM)
---------------------------------
  C     -3.289817    3.839313   -6.482746
  O     -4.185576    4.250906   -7.462851
  H     -4.707539    3.455339   -7.545012
  H     -3.645948    3.191517   -5.758856
  H     -2.405513    3.242529   -6.901142
  H     -2.662676    4.632680   -6.020365
  C      0.481502    6.241681   -7.023947
  O      0.373945    5.380980   -8.112084
  H     -0.160538    4.632278   -7.852249
  H     -0.384120    6.148558   -6.367482
  H      1.226206    5.973162   -6.270391
  H      0.597087    7.315156   -7.299775

 Multiplicity           Mult            ....    1
 Number of Electrons    NEL             ....   18
 Basis Dimension        Dim             ....  172

ORBITAL ENERGIES
----------------

  NO   OCC          E(Eh)            E(eV)
   0   2.0000     -19.233084      -523.3588
   1   2.0000     -10.313220      -280.6370
   2   2.0000      -1.145748       -31.1774
   3   2.0000      -0.796188       -21.6654
   4   2.0000      -0.624622       -16.9968
   5   2.0000      -0.536628       -14.6024
   6   2.0000      -0.529286       -14.4026
   7   2.0000      -0.434784       -11.8311
   8   2.0000      -0.370770       -10.0892
   9   0.0000       0.071360         1.9418
  10   0.0000       0.124049         3.3756
  11   0.0000       0.147719         4.0196
  12   0.0000       0.171243         4.6598
  13   0.0000       0.183401         4.9906

MULLIKEN ATOMIC CHARGES
-----------------------
   0 C :   -0.001292
   1 O :    0.000145
   2 H :    0.000005
   3 H :    0.000018
   4 H :   -0.000471
   5 H :    0.000634
   6 C :   -0.172506
   7 O :   -0.462298
   8 H :    0.317999
   9 H :    0.097596
  10 H :    0.098205
  11 H :    0.121963
Sum of atomic charges:    0.0000000

LOEWDIN ATOMIC CHARGES
----------------------
   0 C :   -0.001349
   1 O :   -0.000015
   2 H :   -0.000001
   3 H :   -0.000033
   4 H :   -0.000921
   5 H :   -0.001649
   6 C :   -0.410876
   7 O :   -0.054005
   8 H :    0.170382
   9 H :    0.093962
  10 H :    0.093057
  11 H :    0.111448

  Mayer bond orders larger than 0.1
B(  6-C ,  7-O ) :   1.0049 B(  6-C ,  9-H ) :   0.9845 B(  6-C , 10-H ) :   0.9688
B(  6-C , 11-H ) :   0.9730 B(  7-O ,  8-H ) :   0.8999

Dispersion correction           -0.000242950
FINAL SINGLE POINT ENERGY      -115.731014487209

DIPOLE MOMENT
-------------
                                X             Y             Z
Electronic contribution:      0.00068      -1.03469      -1.68674
Nuclear contribution   :     -0.32988       0.87069       2.28159
                        -----------------------------------------
Total Dipole Moment    :     -0.32920      -0.16400       0.59485
                        -----------------------------------------
Magnitude (a.u.)       :      0.69937
Magnitude (Debye)      :      1.77766

Rotational constants in cm-1:     4.418386     0.846760     0.805237
Rotational constants in MHz : 132459.871656 25385.232371 24140.399622

                             ****ORCA TERMINATED NORMALLY****
TOTAL RUN TIME: 0 days 0 hours 6 minutes 22 seconds 156 msec
