                         Program Version 4.1.2  - RELEASE  -
|  1> #Run DFT-D3 single point of the dimer
|  2> ! wB97X-D3 def2-TZVP TIGHTSCF CHELPG PMODEL PAL8
|  3>
|  4> %base "18-184_DFT_AB"
|  5>
|  6> %scf
|  7> MaxIter 1000
|  8> end
|  9>
| 10> * xyz 0 1
| 11>   C                      3.844604             7.891275             -9.190874
| 12>   O                      3.891841             8.428578             -7.932664
| 13>   H                      3.375586             7.949125             -7.310194
| 14>   H                      3.866787             6.794202             -9.148046
| 15>   H                      2.883099             8.128601             -9.731773
| 16>   H                      4.656236             8.212625             -9.847624
| 17>   C                      7.384537             8.978298             -6.958331
| 18>   O                      6.628071             7.894352             -6.560422
| 19>   H                      5.710435             8.133100             -6.679395
| 20>   H                      7.456695             9.801282             -6.271686
| 21>   H                      8.400785             8.605963             -7.111194
| 22>   H                      7.072223             9.311238             -7.908115
| 23> *
| 24>
| 25> #Run DFT-D3 single point of the molecule with dimer basis set
| 26> $new_job
| 27> %base "18-184_DFT_A"
| 28> ! wB97X-D3 def2-TZVP TIGHTSCF CHELPG PMODEL
| 29>
| 30> %scf
| 31> MaxIter 1000
| 32> end
| 33>
| 34> * xyz 0 1
| 35>   C                      3.844604             7.891275             -9.190874
| 36>   O                      3.891841             8.428578             -7.932664
| 37>   H                      3.375586             7.949125             -7.310194
| 38>   H                      3.866787             6.794202             -9.148046
| 39>   H                      2.883099             8.128601             -9.731773
| 40>   H                      4.656236             8.212625             -9.847624
| 41>   C                    : 7.384537             8.978298             -6.958331
| 42>   O                    : 6.628071             7.894352             -6.560422
| 43>   H                    : 5.710435             8.133100             -6.679395
| 44>   H                    : 7.456695             9.801282             -6.271686
| 45>   H                    : 8.400785             8.605963             -7.111194
| 46>   H                    : 7.072223             9.311238             -7.908115
| 47> *
| 48>
| 49> #Run DFT-D3 single point of the particle with dimer basis set
| 50> $new_job
| 51> %base "18-184_DFT_B"
| 52> ! wB97X-D3 def2-TZVP TIGHTSCF CHELPG PMODEL
| 53>
| 54> %scf
| 55> MaxIter 1000
| 56> end
| 57>
| 58> * xyz 0 1
| 59>   C                    : 3.844604             7.891275             -9.190874
| 60>   O                    : 3.891841             8.428578             -7.932664
| 61>   H                    : 3.375586             7.949125             -7.310194
| 62>   H                    : 3.866787             6.794202             -9.148046
| 63>   H                    : 2.883099             8.128601             -9.731773
| 64>   H                    : 4.656236             8.212625             -9.847624
| 65>   C                      7.384537             8.978298             -6.958331
| 66>   O                      6.628071             7.894352             -6.560422
| 67>   H                      5.710435             8.133100             -6.679395
| 68>   H                      7.456695             9.801282             -6.271686
| 69>   H                      8.400785             8.605963             -7.111194
| 70>   H                      7.072223             9.311238             -7.908115
| 71> *
| 72>
| 73>                          ****END OF INPUT****
 Total Charge           Charge          ....    0
 Multiplicity           Mult            ....    1
 Number of Electrons    NEL             ....   36
Dispersion correction           -0.001775761
FINAL SINGLE POINT ENERGY      -231.474669683306
Dispersion correction           -0.000239087
FINAL SINGLE POINT ENERGY      -115.733976467080

CARTESIAN COORDINATES (ANGSTROEM)
---------------------------------
  C      3.844604    7.891275   -9.190874
  O      3.891841    8.428578   -7.932664
  H      3.375586    7.949125   -7.310194
  H      3.866787    6.794202   -9.148046
  H      2.883099    8.128601   -9.731773
  H      4.656236    8.212625   -9.847624
  C      7.384537    8.978298   -6.958331
  O      6.628071    7.894352   -6.560422
  H      5.710435    8.133100   -6.679395
  H      7.456695    9.801282   -6.271686
  H      8.400785    8.605963   -7.111194
  H      7.072223    9.311238   -7.908115

 Multiplicity           Mult            ....    1
 Number of Electrons    NEL             ....   18
 Basis Dimension        Dim             ....  172

ORBITAL ENERGIES
----------------

  NO   OCC          E(Eh)            E(eV)
   0   2.0000     -19.230446      -523.2871
   1   2.0000     -10.302948      -280.3575
   2   2.0000      -1.148915       -31.2636
   3   2.0000      -0.799217       -21.7478
   4   2.0000      -0.619929       -16.8691
   5   2.0000      -0.553488       -15.0612
   6   2.0000      -0.528827       -14.3901
   7   2.0000      -0.430739       -11.7210
   8   2.0000      -0.375972       -10.2307
   9   0.0000       0.071648         1.9496
  10   0.0000       0.134088         3.6487
  11   0.0000       0.144130         3.9220
  12   0.0000       0.177259         4.8235
  13   0.0000       0.192798         5.2463

MULLIKEN ATOMIC CHARGES
-----------------------
   0 C :   -0.005139
   1 O :   -0.000956
   2 H :   -0.000355
   3 H :    0.000565
   4 H :   -0.000120
   5 H :    0.000471
   6 C :   -0.145406
   7 O :   -0.460958
   8 H :    0.310325
   9 H :    0.097540
  10 H :    0.108784
  11 H :    0.095249
Sum of atomic charges:   -0.0000000

LOEWDIN ATOMIC CHARGES
----------------------
   0 C :   -0.003409
   1 O :   -0.009264
   2 H :   -0.001833
   3 H :   -0.000194
   4 H :   -0.000098
   5 H :   -0.000243
   6 C :   -0.403123
   7 O :   -0.039263
   8 H :    0.171170
   9 H :    0.089207
  10 H :    0.110573
  11 H :    0.086477

  Mayer bond orders larger than 0.1
B(  6-C ,  7-O ) :   1.0060 B(  6-C ,  9-H ) :   0.9753 B(  6-C , 10-H ) :   0.9777
B(  6-C , 11-H ) :   0.9834 B(  7-O ,  8-H ) :   0.9081

Dispersion correction           -0.000220495
FINAL SINGLE POINT ENERGY      -115.734339206009

DIPOLE MOMENT
-------------
                                X             Y             Z
Electronic contribution:     -0.95739      -1.41680       0.60984
Nuclear contribution   :      0.67579       1.97255      -0.85499
                        -----------------------------------------
Total Dipole Moment    :     -0.28160       0.55575      -0.24515
                        -----------------------------------------
Magnitude (a.u.)       :      0.66952
Magnitude (Debye)      :      1.70178

Rotational constants in cm-1:     4.460999     0.867853     0.838657
Rotational constants in MHz : 133737.381826 26017.587139 25142.302148

                             ****ORCA TERMINATED NORMALLY****
TOTAL RUN TIME: 0 days 0 hours 1 minutes 0 seconds 707 msec
