                         Program Version 4.1.2  - RELEASE  -
|  1> #Run DFT-D3 single point of the dimer
|  2> ! wB97X-D3 def2-TZVP TIGHTSCF  CHELPG PAL8
|  3>
|  4> %base "36_charges"
|  5>
|  6> %scf
|  7> MaxIter 1000
|  8> end
|  9> %output
| 10>   Print[ P_Mayer ] 1
| 11>   Print[ P_NatPop ] 1
| 12>   Print[ P_Hirshfeld ] 1
| 13>   Print[ P_Mulliken ] 1
| 14>   Print [ P_Loewdin ] 1
| 15> end
| 16>
| 17> * xyz 0 1
| 18>   C                      0.157398             0.580276             -9.787253
| 19>   O                      -0.820625            0.833063             -10.814872
| 20>   H                      -0.872331            1.781570             -10.827657
| 21>   H                      0.059788             1.158303             -8.828569
| 22>   H                      0.161638             -0.455494            -9.457156
| 23>   H                      1.138848             0.815064             -10.173976
| 24> *
| 25>
| 26>                          ****END OF INPUT****

CARTESIAN COORDINATES (ANGSTROEM)
---------------------------------
  C      0.157398    0.580276   -9.787253
  O     -0.820625    0.833063  -10.814872
  H     -0.872331    1.781570  -10.827657
  H      0.059788    1.158303   -8.828569
  H      0.161638   -0.455494   -9.457156
  H      1.138848    0.815064  -10.173976

 Total Charge           Charge          ....    0
 Multiplicity           Mult            ....    1
 Number of Electrons    NEL             ....   18
 Basis Dimension        Dim             ....   86

ORBITAL ENERGIES
----------------

  NO   OCC          E(Eh)            E(eV)
   0   2.0000     -19.233568      -523.3720
   1   2.0000     -10.316369      -280.7227
   2   2.0000      -1.134752       -30.8782
   3   2.0000      -0.796440       -21.6722
   4   2.0000      -0.607025       -16.5180
   5   2.0000      -0.540630       -14.7113
   6   2.0000      -0.521017       -14.1776
   7   2.0000      -0.442180       -12.0323
   8   2.0000      -0.376403       -10.2424
   9   0.0000       0.116543         3.1713
  10   0.0000       0.151032         4.1098
  11   0.0000       0.196956         5.3594
  12   0.0000       0.208177         5.6648
  13   0.0000       0.225732         6.1425

MULLIKEN ATOMIC CHARGES
-----------------------
   0 C :   -0.184021
   1 O :   -0.461524
   2 H :    0.311563
   3 H :    0.103533
   4 H :    0.123791
   5 H :    0.106659
Sum of atomic charges:    0.0000000

LOEWDIN ATOMIC CHARGES
----------------------
   0 C :   -0.375253
   1 O :   -0.087071
   2 H :    0.163262
   3 H :    0.100395
   4 H :    0.106424
   5 H :    0.092243

  Mayer bond orders larger than 0.1
B(  0-C ,  1-O ) :   0.9997 B(  0-C ,  3-H ) :   0.9705 B(  0-C ,  4-H ) :   0.9734
B(  0-C ,  5-H ) :   0.9795 B(  1-O ,  2-H ) :   0.9059

Dispersion correction           -0.000252400
FINAL SINGLE POINT ENERGY      -115.733052358831

DIPOLE MOMENT
-------------
                                X             Y             Z
Electronic contribution:     -1.34866       0.15220      -1.39744
Nuclear contribution   :      1.70925       0.33011       1.80452
                        -----------------------------------------
Total Dipole Moment    :      0.36059       0.48231       0.40709
                        -----------------------------------------
Magnitude (a.u.)       :      0.72689
Magnitude (Debye)      :      1.84760

Rotational constants in cm-1:     4.354932     0.802407     0.774270
Rotational constants in MHz : 130557.561957 24055.561321 23212.038505

                             ****ORCA TERMINATED NORMALLY****
TOTAL RUN TIME: 0 days 0 hours 0 minutes 41 seconds 521 msec
