                         Program Version 4.1.2  - RELEASE  -
|  1> #Run DFT-D3 single point of the dimer
|  2> ! wB97X-D3 def2-TZVP TIGHTSCF CHELPG PMODEL PAL8
|  3>
|  4> %base "14-200_DFT_AB"
|  5>
|  6> %scf
|  7> MaxIter 1000
|  8> end
|  9>
| 10> * xyz 0 1
| 11>   C                      -0.902070            -3.157981            3.493314
| 12>   O                      0.133759             -2.613469            2.684156
| 13>   H                      0.577743             -3.368369            2.322678
| 14>   H                      -0.511078            -4.028069            4.052424
| 15>   H                      -1.286494            -2.302959            4.148782
| 16>   H                      -1.672193            -3.504648            2.850024
| 17>   C                      1.734911             0.716800             4.327203
| 18>   O                      0.791648             -0.304132            4.276472
| 19>   H                      1.048376             -0.965579            3.642560
| 20>   H                      2.449839             0.542115             3.497208
| 21>   H                      1.264994             1.720495             4.343686
| 22>   H                      2.275467             0.636369             5.293535
| 23> *
| 24>
| 25> #Run DFT-D3 single point of the molecule with dimer basis set
| 26> $new_job
| 27> %base "14-200_DFT_A"
| 28> ! wB97X-D3 def2-TZVP TIGHTSCF CHELPG PMODEL
| 29>
| 30> %scf
| 31> MaxIter 1000
| 32> end
| 33>
| 34> * xyz 0 1
| 35>   C                      -0.902070            -3.157981            3.493314
| 36>   O                      0.133759             -2.613469            2.684156
| 37>   H                      0.577743             -3.368369            2.322678
| 38>   H                      -0.511078            -4.028069            4.052424
| 39>   H                      -1.286494            -2.302959            4.148782
| 40>   H                      -1.672193            -3.504648            2.850024
| 41>   C                    : 1.734911             0.716800             4.327203
| 42>   O                    : 0.791648             -0.304132            4.276472
| 43>   H                    : 1.048376             -0.965579            3.642560
| 44>   H                    : 2.449839             0.542115             3.497208
| 45>   H                    : 1.264994             1.720495             4.343686
| 46>   H                    : 2.275467             0.636369             5.293535
| 47> *
| 48>
| 49> #Run DFT-D3 single point of the particle with dimer basis set
| 50> $new_job
| 51> %base "14-200_DFT_B"
| 52> ! wB97X-D3 def2-TZVP TIGHTSCF CHELPG PMODEL
| 53>
| 54> %scf
| 55> MaxIter 1000
| 56> end
| 57>
| 58> * xyz 0 1
| 59>   C                    : -0.902070            -3.157981            3.493314
| 60>   O                    : 0.133759             -2.613469            2.684156
| 61>   H                    : 0.577743             -3.368369            2.322678
| 62>   H                    : -0.511078            -4.028069            4.052424
| 63>   H                    : -1.286494            -2.302959            4.148782
| 64>   H                    : -1.672193            -3.504648            2.850024
| 65>   C                      1.734911             0.716800             4.327203
| 66>   O                      0.791648             -0.304132            4.276472
| 67>   H                      1.048376             -0.965579            3.642560
| 68>   H                      2.449839             0.542115             3.497208
| 69>   H                      1.264994             1.720495             4.343686
| 70>   H                      2.275467             0.636369             5.293535
| 71> *
| 72>
| 73>                          ****END OF INPUT****
 Total Charge           Charge          ....    0
 Multiplicity           Mult            ....    1
 Number of Electrons    NEL             ....   36
Dispersion correction           -0.001563795
FINAL SINGLE POINT ENERGY      -231.473025576394
Dispersion correction           -0.000216984
FINAL SINGLE POINT ENERGY      -115.732851328942

CARTESIAN COORDINATES (ANGSTROEM)
---------------------------------
  C     -0.902070   -3.157981    3.493314
  O      0.133759   -2.613469    2.684156
  H      0.577743   -3.368369    2.322678
  H     -0.511078   -4.028069    4.052424
  H     -1.286494   -2.302959    4.148782
  H     -1.672193   -3.504648    2.850024
  C      1.734911    0.716800    4.327203
  O      0.791648   -0.304132    4.276472
  H      1.048376   -0.965579    3.642560
  H      2.449839    0.542115    3.497208
  H      1.264994    1.720495    4.343686
  H      2.275467    0.636369    5.293535

 Multiplicity           Mult            ....    1
 Number of Electrons    NEL             ....   18
 Basis Dimension        Dim             ....  172

ORBITAL ENERGIES
----------------

  NO   OCC          E(Eh)            E(eV)
   0   2.0000     -19.226447      -523.1782
   1   2.0000     -10.316368      -280.7226
   2   2.0000      -1.143609       -31.1192
   3   2.0000      -0.791947       -21.5500
   4   2.0000      -0.615044       -16.7362
   5   2.0000      -0.540303       -14.7024
   6   2.0000      -0.535827       -14.5806
   7   2.0000      -0.428838       -11.6693
   8   2.0000      -0.367754       -10.0071
   9   0.0000       0.079075         2.1517
  10   0.0000       0.124650         3.3919
  11   0.0000       0.157738         4.2923
  12   0.0000       0.175392         4.7727
  13   0.0000       0.198037         5.3889

MULLIKEN ATOMIC CHARGES
-----------------------
   0 C :   -0.000591
   1 O :   -0.000695
   2 H :   -0.000087
   3 H :    0.000121
   4 H :   -0.003781
   5 H :    0.000041
   6 C :   -0.165044
   7 O :   -0.457852
   8 H :    0.313867
   9 H :    0.100635
  10 H :    0.111938
  11 H :    0.101450
Sum of atomic charges:    0.0000000

LOEWDIN ATOMIC CHARGES
----------------------
   0 C :   -0.005819
   1 O :   -0.012192
   2 H :   -0.000658
   3 H :   -0.000074
   4 H :   -0.003686
   5 H :   -0.000059
   6 C :   -0.401596
   7 O :   -0.050982
   8 H :    0.171413
   9 H :    0.099991
  10 H :    0.104513
  11 H :    0.099150

  Mayer bond orders larger than 0.1
B(  6-C ,  7-O ) :   1.0077 B(  6-C ,  9-H ) :   0.9900 B(  6-C , 10-H ) :   0.9710
B(  6-C , 11-H ) :   0.9768 B(  7-O ,  8-H ) :   0.8996

Dispersion correction           -0.000235125
FINAL SINGLE POINT ENERGY      -115.732783392192

DIPOLE MOMENT
-------------
                                X             Y             Z
Electronic contribution:     -1.30668      -1.17947      -0.05842
Nuclear contribution   :      1.84165       1.14004      -0.34123
                        -----------------------------------------
Total Dipole Moment    :      0.53497      -0.03943      -0.39965
                        -----------------------------------------
Magnitude (a.u.)       :      0.66893
Magnitude (Debye)      :      1.70029

Rotational constants in cm-1:     4.185458     0.859853     0.820505
Rotational constants in MHz : 125476.877153 25777.750773 24598.110191

                             ****ORCA TERMINATED NORMALLY****
TOTAL RUN TIME: 0 days 0 hours 1 minutes 9 seconds 405 msec
