                         Program Version 4.1.2  - RELEASE  -
|  1> #Run DFT-D3 single point of the dimer
|  2> ! wB97X-D3 def2-TZVP TIGHTSCF CHELPG PMODEL PAL8
|  3>
|  4> %base "17-17_DFT_AB"
|  5>
|  6> %scf
|  7> MaxIter 1000
|  8> end
|  9>
| 10> * xyz 0 1
| 11>   C                      -4.021581            2.799748             -3.951247
| 12>   O                      -3.968984            3.408857             -2.693875
| 13>   H                      -3.428997            4.133400             -2.976944
| 14>   H                      -4.837682            2.116741             -4.115847
| 15>   H                      -4.388551            3.544017             -4.698766
| 16>   H                      -3.031499            2.512948             -4.232440
| 17>   C                      -1.304668            6.825085             -1.251012
| 18>   O                      -1.780940            5.692923             -0.579004
| 19>   H                      -2.721488            5.823928             -0.475654
| 20>   H                      -1.420874            7.771139             -0.682283
| 21>   H                      -0.269965            6.629542             -1.463105
| 22>   H                      -1.886430            6.968404             -2.148956
| 23> *
| 24>
| 25> #Run DFT-D3 single point of the molecule with dimer basis set
| 26> $new_job
| 27> %base "17-17_DFT_A"
| 28> ! wB97X-D3 def2-TZVP TIGHTSCF CHELPG PMODEL
| 29>
| 30> %scf
| 31> MaxIter 1000
| 32> end
| 33>
| 34> * xyz 0 1
| 35>   C                      -4.021581            2.799748             -3.951247
| 36>   O                      -3.968984            3.408857             -2.693875
| 37>   H                      -3.428997            4.133400             -2.976944
| 38>   H                      -4.837682            2.116741             -4.115847
| 39>   H                      -4.388551            3.544017             -4.698766
| 40>   H                      -3.031499            2.512948             -4.232440
| 41>   C                    : -1.304668            6.825085             -1.251012
| 42>   O                    : -1.780940            5.692923             -0.579004
| 43>   H                    : -2.721488            5.823928             -0.475654
| 44>   H                    : -1.420874            7.771139             -0.682283
| 45>   H                    : -0.269965            6.629542             -1.463105
| 46>   H                    : -1.886430            6.968404             -2.148956
| 47> *
| 48>
| 49> #Run DFT-D3 single point of the particle with dimer basis set
| 50> $new_job
| 51> %base "17-17_DFT_B"
| 52> ! wB97X-D3 def2-TZVP TIGHTSCF CHELPG PMODEL
| 53>
| 54> %scf
| 55> MaxIter 1000
| 56> end
| 57>
| 58> * xyz 0 1
| 59>   C                    : -4.021581            2.799748             -3.951247
| 60>   O                    : -3.968984            3.408857             -2.693875
| 61>   H                    : -3.428997            4.133400             -2.976944
| 62>   H                    : -4.837682            2.116741             -4.115847
| 63>   H                    : -4.388551            3.544017             -4.698766
| 64>   H                    : -3.031499            2.512948             -4.232440
| 65>   C                      -1.304668            6.825085             -1.251012
| 66>   O                      -1.780940            5.692923             -0.579004
| 67>   H                      -2.721488            5.823928             -0.475654
| 68>   H                      -1.420874            7.771139             -0.682283
| 69>   H                      -0.269965            6.629542             -1.463105
| 70>   H                      -1.886430            6.968404             -2.148956
| 71> *
| 72>
| 73>                          ****END OF INPUT****
 Total Charge           Charge          ....    0
 Multiplicity           Mult            ....    1
 Number of Electrons    NEL             ....   36
Dispersion correction           -0.001058807
FINAL SINGLE POINT ENERGY      -231.458382978328
Dispersion correction           -0.000191094
FINAL SINGLE POINT ENERGY      -115.721646523979

CARTESIAN COORDINATES (ANGSTROEM)
---------------------------------
  C     -4.021581    2.799748   -3.951247
  O     -3.968984    3.408857   -2.693875
  H     -3.428997    4.133400   -2.976944
  H     -4.837682    2.116741   -4.115847
  H     -4.388551    3.544017   -4.698766
  H     -3.031499    2.512948   -4.232440
  C     -1.304668    6.825085   -1.251012
  O     -1.780940    5.692923   -0.579004
  H     -2.721488    5.823928   -0.475654
  H     -1.420874    7.771139   -0.682283
  H     -0.269965    6.629542   -1.463105
  H     -1.886430    6.968404   -2.148956

 Multiplicity           Mult            ....    1
 Number of Electrons    NEL             ....   18
 Basis Dimension        Dim             ....  172

ORBITAL ENERGIES
----------------

  NO   OCC          E(Eh)            E(eV)
   0   2.0000     -19.229522      -523.2619
   1   2.0000     -10.309473      -280.5350
   2   2.0000      -1.143191       -31.1078
   3   2.0000      -0.794995       -21.6329
   4   2.0000      -0.617730       -16.8093
   5   2.0000      -0.540249       -14.7009
   6   2.0000      -0.528939       -14.3932
   7   2.0000      -0.441234       -12.0066
   8   2.0000      -0.371154       -10.0996
   9   0.0000       0.086640         2.3576
  10   0.0000       0.116429         3.1682
  11   0.0000       0.158045         4.3006
  12   0.0000       0.179418         4.8822
  13   0.0000       0.197773         5.3817

MULLIKEN ATOMIC CHARGES
-----------------------
   0 C :    0.000743
   1 O :    0.000007
   2 H :   -0.004445
   3 H :    0.000031
   4 H :   -0.000010
   5 H :   -0.000145
   6 C :   -0.159179
   7 O :   -0.467406
   8 H :    0.311635
   9 H :    0.098638
  10 H :    0.119619
  11 H :    0.100512
Sum of atomic charges:    0.0000000

LOEWDIN ATOMIC CHARGES
----------------------
   0 C :   -0.000051
   1 O :   -0.000774
   2 H :   -0.002620
   3 H :   -0.000001
   4 H :   -0.000002
   5 H :   -0.000008
   6 C :   -0.392337
   7 O :   -0.062996
   8 H :    0.166236
   9 H :    0.095533
  10 H :    0.105990
  11 H :    0.091033

  Mayer bond orders larger than 0.1
B(  6-C ,  7-O ) :   0.9994 B(  6-C ,  9-H ) :   0.9725 B(  6-C , 10-H ) :   0.9760
B(  6-C , 11-H ) :   0.9810 B(  7-O ,  8-H ) :   0.9026

Dispersion correction           -0.000217670
FINAL SINGLE POINT ENERGY      -115.735819832624

DIPOLE MOMENT
-------------
                                X             Y             Z
Electronic contribution:     -0.40830      -1.51018       0.86189
Nuclear contribution   :      0.00360       2.02506      -1.06238
                        -----------------------------------------
Total Dipole Moment    :     -0.40469       0.51488      -0.20049
                        -----------------------------------------
Magnitude (a.u.)       :      0.68489
Magnitude (Debye)      :      1.74085

Rotational constants in cm-1:     4.269765     0.857891     0.819533
Rotational constants in MHz : 128004.328106 25718.938874 24568.969100

                             ****ORCA TERMINATED NORMALLY****
TOTAL RUN TIME: 0 days 0 hours 1 minutes 7 seconds 58 msec
