                         Program Version 4.1.2  - RELEASE  -
|  1> #Run DFT-D3 single point of the dimer
|  2> ! wB97X-D3 def2-TZVP TIGHTSCF CHELPG PMODEL PAL8
|  3>
|  4> %base "19-98_DFT_AB"
|  5>
|  6> %scf
|  7> MaxIter 1000
|  8> end
|  9>
| 10> * xyz 0 1
| 11>   C                      6.919625             2.237632             2.945838
| 12>   O                      7.105568             3.614791             3.004067
| 13>   H                      7.927648             3.903414             2.617584
| 14>   H                      7.422164             1.719098             3.729250
| 15>   H                      5.841692             1.966989             3.041488
| 16>   H                      7.318918             1.785904             1.953686
| 17>   C                      9.581174             -0.124281            1.928332
| 18>   O                      10.051812            1.201590             2.096946
| 19>   H                      10.500482            1.227346             2.926965
| 20>   H                      9.334964             -0.559037            2.868613
| 21>   H                      8.723279             -0.226228            1.277449
| 22>   H                      10.398617            -0.819547            1.598314
| 23> *
| 24>
| 25> #Run DFT-D3 single point of the molecule with dimer basis set
| 26> $new_job
| 27> %base "19-98_DFT_A"
| 28> ! wB97X-D3 def2-TZVP TIGHTSCF CHELPG PMODEL
| 29>
| 30> %scf
| 31> MaxIter 1000
| 32> end
| 33>
| 34> * xyz 0 1
| 35>   C                      6.919625             2.237632             2.945838
| 36>   O                      7.105568             3.614791             3.004067
| 37>   H                      7.927648             3.903414             2.617584
| 38>   H                      7.422164             1.719098             3.729250
| 39>   H                      5.841692             1.966989             3.041488
| 40>   H                      7.318918             1.785904             1.953686
| 41>   C                    : 9.581174             -0.124281            1.928332
| 42>   O                    : 10.051812            1.201590             2.096946
| 43>   H                    : 10.500482            1.227346             2.926965
| 44>   H                    : 9.334964             -0.559037            2.868613
| 45>   H                    : 8.723279             -0.226228            1.277449
| 46>   H                    : 10.398617            -0.819547            1.598314
| 47> *
| 48>
| 49> #Run DFT-D3 single point of the particle with dimer basis set
| 50> $new_job
| 51> %base "19-98_DFT_B"
| 52> ! wB97X-D3 def2-TZVP TIGHTSCF CHELPG PMODEL
| 53>
| 54> %scf
| 55> MaxIter 1000
| 56> end
| 57>
| 58> * xyz 0 1
| 59>   C                    : 6.919625             2.237632             2.945838
| 60>   O                    : 7.105568             3.614791             3.004067
| 61>   H                    : 7.927648             3.903414             2.617584
| 62>   H                    : 7.422164             1.719098             3.729250
| 63>   H                    : 5.841692             1.966989             3.041488
| 64>   H                    : 7.318918             1.785904             1.953686
| 65>   C                      9.581174             -0.124281            1.928332
| 66>   O                      10.051812            1.201590             2.096946
| 67>   H                      10.500482            1.227346             2.926965
| 68>   H                      9.334964             -0.559037            2.868613
| 69>   H                      8.723279             -0.226228            1.277449
| 70>   H                      10.398617            -0.819547            1.598314
| 71> *
| 72>
| 73>                          ****END OF INPUT****
 Total Charge           Charge          ....    0
 Multiplicity           Mult            ....    1
 Number of Electrons    NEL             ....   36
Dispersion correction           -0.002072464
FINAL SINGLE POINT ENERGY      -231.468141351851
Dispersion correction           -0.000256335
FINAL SINGLE POINT ENERGY      -115.732751661720

CARTESIAN COORDINATES (ANGSTROEM)
---------------------------------
  C      6.919625    2.237632    2.945838
  O      7.105568    3.614791    3.004067
  H      7.927648    3.903414    2.617584
  H      7.422164    1.719098    3.729250
  H      5.841692    1.966989    3.041488
  H      7.318918    1.785904    1.953686
  C      9.581174   -0.124281    1.928332
  O     10.051812    1.201590    2.096946
  H     10.500482    1.227346    2.926965
  H      9.334964   -0.559037    2.868613
  H      8.723279   -0.226228    1.277449
  H     10.398617   -0.819547    1.598314

 Multiplicity           Mult            ....    1
 Number of Electrons    NEL             ....   18
 Basis Dimension        Dim             ....  172

ORBITAL ENERGIES
----------------

  NO   OCC          E(Eh)            E(eV)
   0   2.0000     -19.231233      -523.3084
   1   2.0000     -10.312954      -280.6297
   2   2.0000      -1.140733       -31.0409
   3   2.0000      -0.799296       -21.7500
   4   2.0000      -0.618023       -16.8173
   5   2.0000      -0.538234       -14.6461
   6   2.0000      -0.528913       -14.3925
   7   2.0000      -0.440283       -11.9807
   8   2.0000      -0.372327       -10.1315
   9   0.0000       0.090974         2.4755
  10   0.0000       0.128772         3.5041
  11   0.0000       0.147050         4.0014
  12   0.0000       0.180801         4.9198
  13   0.0000       0.188539         5.1304

MULLIKEN ATOMIC CHARGES
-----------------------
   0 C :    0.004646
   1 O :    0.000177
   2 H :   -0.001794
   3 H :   -0.005701
   4 H :   -0.000166
   5 H :   -0.001053
   6 C :   -0.178783
   7 O :   -0.468942
   8 H :    0.313556
   9 H :    0.107397
  10 H :    0.125666
  11 H :    0.104996
Sum of atomic charges:    0.0000000

LOEWDIN ATOMIC CHARGES
----------------------
   0 C :   -0.009108
   1 O :   -0.000146
   2 H :   -0.001259
   3 H :   -0.002156
   4 H :   -0.000091
   5 H :   -0.004436
   6 C :   -0.381570
   7 O :   -0.060037
   8 H :    0.161027
   9 H :    0.090096
  10 H :    0.106127
  11 H :    0.101552

  Mayer bond orders larger than 0.1
B(  6-C ,  7-O ) :   0.9880 B(  6-C ,  9-H ) :   0.9863 B(  6-C , 10-H ) :   0.9752
B(  6-C , 11-H ) :   0.9709 B(  7-O ,  8-H ) :   0.9025

Dispersion correction           -0.000238226
FINAL SINGLE POINT ENERGY      -115.732737943223

DIPOLE MOMENT
-------------
                                X             Y             Z
Electronic contribution:      0.44886       1.85423       0.02241
Nuclear contribution   :     -0.35983      -2.37649       0.47054
                        -----------------------------------------
Total Dipole Moment    :      0.08903      -0.52226       0.49295
                        -----------------------------------------
Magnitude (a.u.)       :      0.72366
Magnitude (Debye)      :      1.83940

Rotational constants in cm-1:     4.420443     0.827088     0.794166
Rotational constants in MHz : 132521.536398 24795.472356 23808.512625

                             ****ORCA TERMINATED NORMALLY****
TOTAL RUN TIME: 0 days 0 hours 0 minutes 35 seconds 272 msec
