                         Program Version 4.1.2  - RELEASE  -
|  1> #Run DFT-D3 single point of the dimer
|  2> ! wB97X-D3 def2-TZVP TIGHTSCF CHELPG PMODEL PAL8
|  3>
|  4> %base "9-197_DFT_AB"
|  5>
|  6> %scf
|  7> MaxIter 1000
|  8> end
|  9>
| 10> * xyz 0 1
| 11>   C                      -10.667900           -2.676694            -9.261045
| 12>   O                      -10.091336           -3.275970            -8.068997
| 13>   H                      -9.999850            -4.232679            -8.199208
| 14>   H                      -11.752914           -2.897693            -9.329886
| 15>   H                      -10.726048           -1.600290            -9.227443
| 16>   H                      -10.228046           -3.013178            -10.188570
| 17>   C                      -8.738837            -1.335997            -5.019116
| 18>   O                      -8.838069            -1.696355            -6.417131
| 19>   H                      -9.184487            -2.523988            -6.605745
| 20>   H                      -8.285534            -0.334798            -4.854895
| 21>   H                      -9.699945            -1.314421            -4.538570
| 22>   H                      -8.130867            -2.108910            -4.444958
| 23> *
| 24>
| 25> #Run DFT-D3 single point of the molecule with dimer basis set
| 26> $new_job
| 27> %base "9-197_DFT_A"
| 28> ! wB97X-D3 def2-TZVP TIGHTSCF CHELPG PMODEL
| 29>
| 30> %scf
| 31> MaxIter 1000
| 32> end
| 33>
| 34> * xyz 0 1
| 35>   C                      -10.667900           -2.676694            -9.261045
| 36>   O                      -10.091336           -3.275970            -8.068997
| 37>   H                      -9.999850            -4.232679            -8.199208
| 38>   H                      -11.752914           -2.897693            -9.329886
| 39>   H                      -10.726048           -1.600290            -9.227443
| 40>   H                      -10.228046           -3.013178            -10.188570
| 41>   C                    : -8.738837            -1.335997            -5.019116
| 42>   O                    : -8.838069            -1.696355            -6.417131
| 43>   H                    : -9.184487            -2.523988            -6.605745
| 44>   H                    : -8.285534            -0.334798            -4.854895
| 45>   H                    : -9.699945            -1.314421            -4.538570
| 46>   H                    : -8.130867            -2.108910            -4.444958
| 47> *
| 48>
| 49> #Run DFT-D3 single point of the particle with dimer basis set
| 50> $new_job
| 51> %base "9-197_DFT_B"
| 52> ! wB97X-D3 def2-TZVP TIGHTSCF CHELPG PMODEL
| 53>
| 54> %scf
| 55> MaxIter 1000
| 56> end
| 57>
| 58> * xyz 0 1
| 59>   C                    : -10.667900           -2.676694            -9.261045
| 60>   O                    : -10.091336           -3.275970            -8.068997
| 61>   H                    : -9.999850            -4.232679            -8.199208
| 62>   H                    : -11.752914           -2.897693            -9.329886
| 63>   H                    : -10.726048           -1.600290            -9.227443
| 64>   H                    : -10.228046           -3.013178            -10.188570
| 65>   C                      -8.738837            -1.335997            -5.019116
| 66>   O                      -8.838069            -1.696355            -6.417131
| 67>   H                      -9.184487            -2.523988            -6.605745
| 68>   H                      -8.285534            -0.334798            -4.854895
| 69>   H                      -9.699945            -1.314421            -4.538570
| 70>   H                      -8.130867            -2.108910            -4.444958
| 71> *
| 72>
| 73>                          ****END OF INPUT****
 Total Charge           Charge          ....    0
 Multiplicity           Mult            ....    1
 Number of Electrons    NEL             ....   36
Dispersion correction           -0.001540318
FINAL SINGLE POINT ENERGY      -231.465286579475
Dispersion correction           -0.000273112
FINAL SINGLE POINT ENERGY      -115.731898992272

CARTESIAN COORDINATES (ANGSTROEM)
---------------------------------
  C    -10.667900   -2.676694   -9.261045
  O    -10.091336   -3.275970   -8.068997
  H     -9.999850   -4.232679   -8.199208
  H    -11.752914   -2.897693   -9.329886
  H    -10.726048   -1.600290   -9.227443
  H    -10.228046   -3.013178  -10.188570
  C     -8.738837   -1.335997   -5.019116
  O     -8.838069   -1.696355   -6.417131
  H     -9.184487   -2.523988   -6.605745
  H     -8.285534   -0.334798   -4.854895
  H     -9.699945   -1.314421   -4.538570
  H     -8.130867   -2.108910   -4.444958

 Multiplicity           Mult            ....    1
 Number of Electrons    NEL             ....   18
 Basis Dimension        Dim             ....  172

ORBITAL ENERGIES
----------------

  NO   OCC          E(Eh)            E(eV)
   0   2.0000     -19.224362      -523.1215
   1   2.0000     -10.323674      -280.9215
   2   2.0000      -1.130327       -30.7578
   3   2.0000      -0.802768       -21.8444
   4   2.0000      -0.613308       -16.6890
   5   2.0000      -0.532139       -14.4802
   6   2.0000      -0.528718       -14.3872
   7   2.0000      -0.426771       -11.6130
   8   2.0000      -0.374704       -10.1962
   9   0.0000       0.081411         2.2153
  10   0.0000       0.128988         3.5099
  11   0.0000       0.148376         4.0375
  12   0.0000       0.174617         4.7516
  13   0.0000       0.198185         5.3929

MULLIKEN ATOMIC CHARGES
-----------------------
   0 C :   -0.001892
   1 O :   -0.002488
   2 H :   -0.000277
   3 H :    0.000167
   4 H :   -0.002223
   5 H :   -0.000026
   6 C :   -0.164479
   7 O :   -0.477011
   8 H :    0.306560
   9 H :    0.128842
  10 H :    0.110441
  11 H :    0.102385
Sum of atomic charges:   -0.0000000

LOEWDIN ATOMIC CHARGES
----------------------
   0 C :   -0.004831
   1 O :   -0.024491
   2 H :   -0.001292
   3 H :   -0.000052
   4 H :   -0.001310
   5 H :   -0.000076
   6 C :   -0.356899
   7 O :   -0.064348
   8 H :    0.145286
   9 H :    0.114235
  10 H :    0.090665
  11 H :    0.103113

  Mayer bond orders larger than 0.1
B(  6-C ,  7-O ) :   0.9858 B(  6-C ,  9-H ) :   0.9691 B(  6-C , 10-H ) :   0.9730
B(  6-C , 11-H ) :   0.9785 B(  7-O ,  8-H ) :   0.9044

Dispersion correction           -0.000280891
FINAL SINGLE POINT ENERGY      -115.729980226886

DIPOLE MOMENT
-------------
                                X             Y             Z
Electronic contribution:     -0.10306      -0.28363      -1.80606
Nuclear contribution   :     -0.09798      -0.09638       2.30782
                        -----------------------------------------
Total Dipole Moment    :     -0.20104      -0.38001       0.50177
                        -----------------------------------------
Magnitude (a.u.)       :      0.66075
Magnitude (Debye)      :      1.67950

Rotational constants in cm-1:     4.437111     0.785096     0.760194
Rotational constants in MHz : 133021.228542 23536.574749 22790.029519

                             ****ORCA TERMINATED NORMALLY****
TOTAL RUN TIME: 0 days 0 hours 0 minutes 44 seconds 629 msec
