                         Program Version 4.1.2  - RELEASE  -
|  1> #Run DFT-D3 single point of the dimer
|  2> ! wB97X-D3 def2-TZVP TIGHTSCF CHELPG PMODEL PAL8
|  3>
|  4> %base "12-51_DFT_AB"
|  5>
|  6> %scf
|  7> MaxIter 1000
|  8> end
|  9>
| 10> * xyz 0 1
| 11>   C                      -2.565252            4.718114             -0.085181
| 12>   O                      -2.001019            4.805665             -1.430314
| 13>   H                      -1.240345            5.338943             -1.221299
| 14>   H                      -1.779562            4.387065             0.613376
| 15>   H                      -2.893558            5.626545             0.347260
| 16>   H                      -3.394099            4.098800             0.009473
| 17>   C                      0.291117             7.152671             2.904466
| 18>   O                      0.770029             8.084464             1.947282
| 19>   H                      1.747909             8.077446             1.964323
| 20>   H                      1.031792             6.918922             3.673868
| 21>   H                      -0.641739            7.632905             3.339170
| 22>   H                      0.051420             6.234753             2.473588
| 23> *
| 24>
| 25> #Run DFT-D3 single point of the molecule with dimer basis set
| 26> $new_job
| 27> %base "12-51_DFT_A"
| 28> ! wB97X-D3 def2-TZVP TIGHTSCF CHELPG PMODEL
| 29>
| 30> %scf
| 31> MaxIter 1000
| 32> end
| 33>
| 34> * xyz 0 1
| 35>   C                      -2.565252            4.718114             -0.085181
| 36>   O                      -2.001019            4.805665             -1.430314
| 37>   H                      -1.240345            5.338943             -1.221299
| 38>   H                      -1.779562            4.387065             0.613376
| 39>   H                      -2.893558            5.626545             0.347260
| 40>   H                      -3.394099            4.098800             0.009473
| 41>   C                    : 0.291117             7.152671             2.904466
| 42>   O                    : 0.770029             8.084464             1.947282
| 43>   H                    : 1.747909             8.077446             1.964323
| 44>   H                    : 1.031792             6.918922             3.673868
| 45>   H                    : -0.641739            7.632905             3.339170
| 46>   H                    : 0.051420             6.234753             2.473588
| 47> *
| 48>
| 49> #Run DFT-D3 single point of the particle with dimer basis set
| 50> $new_job
| 51> %base "12-51_DFT_B"
| 52> ! wB97X-D3 def2-TZVP TIGHTSCF CHELPG PMODEL
| 53>
| 54> %scf
| 55> MaxIter 1000
| 56> end
| 57>
| 58> * xyz 0 1
| 59>   C                    : -2.565252            4.718114             -0.085181
| 60>   O                    : -2.001019            4.805665             -1.430314
| 61>   H                    : -1.240345            5.338943             -1.221299
| 62>   H                    : -1.779562            4.387065             0.613376
| 63>   H                    : -2.893558            5.626545             0.347260
| 64>   H                    : -3.394099            4.098800             0.009473
| 65>   C                      0.291117             7.152671             2.904466
| 66>   O                      0.770029             8.084464             1.947282
| 67>   H                      1.747909             8.077446             1.964323
| 68>   H                      1.031792             6.918922             3.673868
| 69>   H                      -0.641739            7.632905             3.339170
| 70>   H                      0.051420             6.234753             2.473588
| 71> *
| 72>
| 73>                          ****END OF INPUT****
 Total Charge           Charge          ....    0
 Multiplicity           Mult            ....    1
 Number of Electrons    NEL             ....   36
Dispersion correction           -0.000957748
FINAL SINGLE POINT ENERGY      -231.459958238203
Dispersion correction           -0.000233859
FINAL SINGLE POINT ENERGY      -115.726966333056

CARTESIAN COORDINATES (ANGSTROEM)
---------------------------------
  C     -2.565252    4.718114   -0.085181
  O     -2.001019    4.805665   -1.430314
  H     -1.240345    5.338943   -1.221299
  H     -1.779562    4.387065    0.613376
  H     -2.893558    5.626545    0.347260
  H     -3.394099    4.098800    0.009473
  C      0.291117    7.152671    2.904466
  O      0.770029    8.084464    1.947282
  H      1.747909    8.077446    1.964323
  H      1.031792    6.918922    3.673868
  H     -0.641739    7.632905    3.339170
  H      0.051420    6.234753    2.473588

 Multiplicity           Mult            ....    1
 Number of Electrons    NEL             ....   18
 Basis Dimension        Dim             ....  172

ORBITAL ENERGIES
----------------

  NO   OCC          E(Eh)            E(eV)
   0   2.0000     -19.229238      -523.2542
   1   2.0000     -10.311315      -280.5852
   2   2.0000      -1.129752       -30.7421
   3   2.0000      -0.794765       -21.6267
   4   2.0000      -0.611676       -16.6445
   5   2.0000      -0.541846       -14.7444
   6   2.0000      -0.519937       -14.1482
   7   2.0000      -0.434422       -11.8212
   8   2.0000      -0.371689       -10.1142
   9   0.0000       0.087116         2.3706
  10   0.0000       0.114399         3.1130
  11   0.0000       0.153761         4.1841
  12   0.0000       0.170369         4.6360
  13   0.0000       0.189115         5.1461

MULLIKEN ATOMIC CHARGES
-----------------------
   0 C :    0.000207
   1 O :   -0.000009
   2 H :   -0.000078
   3 H :   -0.000062
   4 H :    0.000009
   5 H :    0.000063
   6 C :   -0.163190
   7 O :   -0.477464
   8 H :    0.314240
   9 H :    0.105961
  10 H :    0.111414
  11 H :    0.108909
Sum of atomic charges:    0.0000000

LOEWDIN ATOMIC CHARGES
----------------------
   0 C :   -0.000267
   1 O :   -0.000005
   2 H :   -0.000050
   3 H :   -0.000570
   4 H :   -0.000040
   5 H :   -0.000001
   6 C :   -0.378976
   7 O :   -0.091529
   8 H :    0.177270
   9 H :    0.095781
  10 H :    0.115834
  11 H :    0.082553

  Mayer bond orders larger than 0.1
B(  6-C ,  7-O ) :   1.0049 B(  6-C ,  9-H ) :   0.9822 B(  6-C , 10-H ) :   0.9781
B(  6-C , 11-H ) :   0.9696 B(  7-O ,  8-H ) :   0.8990

Dispersion correction           -0.000243828
FINAL SINGLE POINT ENERGY      -115.732072691635

DIPOLE MOMENT
-------------
                                X             Y             Z
Electronic contribution:      0.50294       1.13957      -1.25959
Nuclear contribution   :     -0.05375      -1.53142       1.64965
                        -----------------------------------------
Total Dipole Moment    :      0.44919      -0.39185       0.39006
                        -----------------------------------------
Magnitude (a.u.)       :      0.71236
Magnitude (Debye)      :      1.81068

Rotational constants in cm-1:     4.246856     0.834650     0.794358
Rotational constants in MHz : 127317.542448 25022.187163 23814.262427

                             ****ORCA TERMINATED NORMALLY****
TOTAL RUN TIME: 0 days 0 hours 0 minutes 56 seconds 78 msec
