                         Program Version 4.1.2  - RELEASE  -
|  1> #Run DFT-D3 single point of the dimer
|  2> ! wB97X-D3 def2-TZVP TIGHTSCF CHELPG PMODEL PAL8
|  3>
|  4> %base "10-113_DFT_AB"
|  5>
|  6> %scf
|  7> MaxIter 1000
|  8> end
|  9>
| 10> * xyz 0 1
| 11>   C                      -7.366661            -2.963687            2.761216
| 12>   O                      -7.991004            -1.877299            2.184801
| 13>   H                      -8.630948            -1.490112            2.772157
| 14>   H                      -8.031490            -3.775481            2.924278
| 15>   H                      -6.620792            -3.428823            2.136483
| 16>   H                      -6.995310            -2.677469            3.725112
| 17>   C                      -5.166520            -2.157854            5.731922
| 18>   O                      -4.352424            -2.878573            4.845293
| 19>   H                      -4.531012            -2.479481            4.001761
| 20>   H                      -6.255409            -2.274834            5.542018
| 21>   H                      -4.978157            -2.425634            6.797351
| 22>   H                      -5.056658            -1.138531            5.729317
| 23> *
| 24>
| 25> #Run DFT-D3 single point of the molecule with dimer basis set
| 26> $new_job
| 27> %base "10-113_DFT_A"
| 28> ! wB97X-D3 def2-TZVP TIGHTSCF CHELPG PMODEL
| 29>
| 30> %scf
| 31> MaxIter 1000
| 32> end
| 33>
| 34> * xyz 0 1
| 35>   C                      -7.366661            -2.963687            2.761216
| 36>   O                      -7.991004            -1.877299            2.184801
| 37>   H                      -8.630948            -1.490112            2.772157
| 38>   H                      -8.031490            -3.775481            2.924278
| 39>   H                      -6.620792            -3.428823            2.136483
| 40>   H                      -6.995310            -2.677469            3.725112
| 41>   C                    : -5.166520            -2.157854            5.731922
| 42>   O                    : -4.352424            -2.878573            4.845293
| 43>   H                    : -4.531012            -2.479481            4.001761
| 44>   H                    : -6.255409            -2.274834            5.542018
| 45>   H                    : -4.978157            -2.425634            6.797351
| 46>   H                    : -5.056658            -1.138531            5.729317
| 47> *
| 48>
| 49> #Run DFT-D3 single point of the particle with dimer basis set
| 50> $new_job
| 51> %base "10-113_DFT_B"
| 52> ! wB97X-D3 def2-TZVP TIGHTSCF CHELPG PMODEL
| 53>
| 54> %scf
| 55> MaxIter 1000
| 56> end
| 57>
| 58> * xyz 0 1
| 59>   C                    : -7.366661            -2.963687            2.761216
| 60>   O                    : -7.991004            -1.877299            2.184801
| 61>   H                    : -8.630948            -1.490112            2.772157
| 62>   H                    : -8.031490            -3.775481            2.924278
| 63>   H                    : -6.620792            -3.428823            2.136483
| 64>   H                    : -6.995310            -2.677469            3.725112
| 65>   C                      -5.166520            -2.157854            5.731922
| 66>   O                      -4.352424            -2.878573            4.845293
| 67>   H                      -4.531012            -2.479481            4.001761
| 68>   H                      -6.255409            -2.274834            5.542018
| 69>   H                      -4.978157            -2.425634            6.797351
| 70>   H                      -5.056658            -1.138531            5.729317
| 71> *
| 72>
| 73>                          ****END OF INPUT****
 Total Charge           Charge          ....    0
 Multiplicity           Mult            ....    1
 Number of Electrons    NEL             ....   36
Dispersion correction           -0.001808528
FINAL SINGLE POINT ENERGY      -231.462991001643
Dispersion correction           -0.000218071
FINAL SINGLE POINT ENERGY      -115.731848350324

CARTESIAN COORDINATES (ANGSTROEM)
---------------------------------
  C     -7.366661   -2.963687    2.761216
  O     -7.991004   -1.877299    2.184801
  H     -8.630948   -1.490112    2.772157
  H     -8.031490   -3.775481    2.924278
  H     -6.620792   -3.428823    2.136483
  H     -6.995310   -2.677469    3.725112
  C     -5.166520   -2.157854    5.731922
  O     -4.352424   -2.878573    4.845293
  H     -4.531012   -2.479481    4.001761
  H     -6.255409   -2.274834    5.542018
  H     -4.978157   -2.425634    6.797351
  H     -5.056658   -1.138531    5.729317

 Multiplicity           Mult            ....    1
 Number of Electrons    NEL             ....   18
 Basis Dimension        Dim             ....  172

ORBITAL ENERGIES
----------------

  NO   OCC          E(Eh)            E(eV)
   0   2.0000     -19.235930      -523.4363
   1   2.0000     -10.308338      -280.5041
   2   2.0000      -1.147032       -31.2123
   3   2.0000      -0.800543       -21.7839
   4   2.0000      -0.621879       -16.9222
   5   2.0000      -0.540106       -14.6970
   6   2.0000      -0.526953       -14.3391
   7   2.0000      -0.441674       -12.0186
   8   2.0000      -0.376246       -10.2382
   9   0.0000       0.077739         2.1154
  10   0.0000       0.132473         3.6048
  11   0.0000       0.146096         3.9755
  12   0.0000       0.172070         4.6823
  13   0.0000       0.192362         5.2344

MULLIKEN ATOMIC CHARGES
-----------------------
   0 C :   -0.005451
   1 O :    0.000155
   2 H :   -0.000000
   3 H :   -0.000208
   4 H :    0.000054
   5 H :    0.006321
   6 C :   -0.188605
   7 O :   -0.452801
   8 H :    0.313987
   9 H :    0.089087
  10 H :    0.120518
  11 H :    0.116944
Sum of atomic charges:   -0.0000000

LOEWDIN ATOMIC CHARGES
----------------------
   0 C :   -0.006822
   1 O :   -0.000032
   2 H :   -0.000026
   3 H :   -0.000060
   4 H :   -0.000628
   5 H :   -0.010614
   6 C :   -0.393998
   7 O :   -0.050710
   8 H :    0.167521
   9 H :    0.101672
  10 H :    0.114489
  11 H :    0.079208

  Mayer bond orders larger than 0.1
B(  6-C ,  7-O ) :   1.0072 B(  6-C ,  9-H ) :   0.9776 B(  6-C , 10-H ) :   0.9789
B(  6-C , 11-H ) :   0.9756 B(  7-O ,  8-H ) :   0.9036

Dispersion correction           -0.000234008
FINAL SINGLE POINT ENERGY      -115.730445486684

DIPOLE MOMENT
-------------
                                X             Y             Z
Electronic contribution:      1.24897      -1.04290      -1.14273
Nuclear contribution   :     -1.64658       1.60163       0.95214
                        -----------------------------------------
Total Dipole Moment    :     -0.39761       0.55872      -0.19060
                        -----------------------------------------
Magnitude (a.u.)       :      0.71176
Magnitude (Debye)      :      1.80914

Rotational constants in cm-1:     4.502921     0.839982     0.802101
Rotational constants in MHz : 134994.170182 25182.038481 24046.378764

                             ****ORCA TERMINATED NORMALLY****
TOTAL RUN TIME: 0 days 0 hours 1 minutes 0 seconds 943 msec
