                         Program Version 4.1.2  - RELEASE  -
|  1> #Run DFT-D3 single point of the dimer
|  2> ! wB97X-D3 def2-TZVP TIGHTSCF CHELPG PMODEL PAL8
|  3>
|  4> %base "20-202_DFT_AB"
|  5>
|  6> %scf
|  7> MaxIter 1000
|  8> end
|  9>
| 10> * xyz 0 1
| 11>   C                      6.941858             4.561202             3.819420
| 12>   O                      6.036226             3.829826             4.629647
| 13>   H                      6.490337             3.212845             5.236488
| 14>   H                      7.585249             5.221053             4.391091
| 15>   H                      7.546627             3.978698             3.156488
| 16>   H                      6.367427             5.198605             3.139385
| 17>   C                      7.356633             -0.427867            5.014311
| 18>   O                      7.640773             0.095332             6.288135
| 19>   H                      6.963374             0.785339             6.456965
| 20>   H                      8.218673             -0.569521            4.371192
| 21>   H                      6.895203             -1.361880            5.066783
| 22>   H                      6.580939             0.181751             4.566550
| 23> *
| 24>
| 25> #Run DFT-D3 single point of the molecule with dimer basis set
| 26> $new_job
| 27> %base "20-202_DFT_A"
| 28> ! wB97X-D3 def2-TZVP TIGHTSCF CHELPG PMODEL
| 29>
| 30> %scf
| 31> MaxIter 1000
| 32> end
| 33>
| 34> * xyz 0 1
| 35>   C                      6.941858             4.561202             3.819420
| 36>   O                      6.036226             3.829826             4.629647
| 37>   H                      6.490337             3.212845             5.236488
| 38>   H                      7.585249             5.221053             4.391091
| 39>   H                      7.546627             3.978698             3.156488
| 40>   H                      6.367427             5.198605             3.139385
| 41>   C                    : 7.356633             -0.427867            5.014311
| 42>   O                    : 7.640773             0.095332             6.288135
| 43>   H                    : 6.963374             0.785339             6.456965
| 44>   H                    : 8.218673             -0.569521            4.371192
| 45>   H                    : 6.895203             -1.361880            5.066783
| 46>   H                    : 6.580939             0.181751             4.566550
| 47> *
| 48>
| 49> #Run DFT-D3 single point of the particle with dimer basis set
| 50> $new_job
| 51> %base "20-202_DFT_B"
| 52> ! wB97X-D3 def2-TZVP TIGHTSCF CHELPG PMODEL
| 53>
| 54> %scf
| 55> MaxIter 1000
| 56> end
| 57>
| 58> * xyz 0 1
| 59>   C                    : 6.941858             4.561202             3.819420
| 60>   O                    : 6.036226             3.829826             4.629647
| 61>   H                    : 6.490337             3.212845             5.236488
| 62>   H                    : 7.585249             5.221053             4.391091
| 63>   H                    : 7.546627             3.978698             3.156488
| 64>   H                    : 6.367427             5.198605             3.139385
| 65>   C                      7.356633             -0.427867            5.014311
| 66>   O                      7.640773             0.095332             6.288135
| 67>   H                      6.963374             0.785339             6.456965
| 68>   H                      8.218673             -0.569521            4.371192
| 69>   H                      6.895203             -1.361880            5.066783
| 70>   H                      6.580939             0.181751             4.566550
| 71> *
| 72>
| 73>                          ****END OF INPUT****
 Total Charge           Charge          ....    0
 Multiplicity           Mult            ....    1
 Number of Electrons    NEL             ....   36
Dispersion correction           -0.001191241
FINAL SINGLE POINT ENERGY      -231.465326100959
Dispersion correction           -0.000263671
FINAL SINGLE POINT ENERGY      -115.735492179382

CARTESIAN COORDINATES (ANGSTROEM)
---------------------------------
  C      6.941858    4.561202    3.819420
  O      6.036226    3.829826    4.629647
  H      6.490337    3.212845    5.236488
  H      7.585249    5.221053    4.391091
  H      7.546627    3.978698    3.156488
  H      6.367427    5.198605    3.139385
  C      7.356633   -0.427867    5.014311
  O      7.640773    0.095332    6.288135
  H      6.963374    0.785339    6.456965
  H      8.218673   -0.569521    4.371192
  H      6.895203   -1.361880    5.066783
  H      6.580939    0.181751    4.566550

 Multiplicity           Mult            ....    1
 Number of Electrons    NEL             ....   18
 Basis Dimension        Dim             ....  172

ORBITAL ENERGIES
----------------

  NO   OCC          E(Eh)            E(eV)
   0   2.0000     -19.231260      -523.3092
   1   2.0000     -10.304202      -280.3916
   2   2.0000      -1.135539       -30.8996
   3   2.0000      -0.798888       -21.7388
   4   2.0000      -0.613176       -16.6854
   5   2.0000      -0.539520       -14.6811
   6   2.0000      -0.537516       -14.6265
   7   2.0000      -0.433468       -11.7953
   8   2.0000      -0.371630       -10.1126
   9   0.0000       0.075563         2.0562
  10   0.0000       0.112766         3.0685
  11   0.0000       0.153435         4.1752
  12   0.0000       0.180820         4.9204
  13   0.0000       0.195006         5.3064

MULLIKEN ATOMIC CHARGES
-----------------------
   0 C :    0.000230
   1 O :    0.000339
   2 H :   -0.002977
   3 H :   -0.000016
   4 H :   -0.000014
   5 H :    0.000000
   6 C :   -0.168180
   7 O :   -0.470473
   8 H :    0.319652
   9 H :    0.112503
  10 H :    0.109308
  11 H :    0.099629
Sum of atomic charges:    0.0000000

LOEWDIN ATOMIC CHARGES
----------------------
   0 C :   -0.000094
   1 O :   -0.000106
   2 H :   -0.001962
   3 H :   -0.000002
   4 H :   -0.000020
   5 H :   -0.000001
   6 C :   -0.386405
   7 O :   -0.080571
   8 H :    0.184563
   9 H :    0.101733
  10 H :    0.086561
  11 H :    0.096305

  Mayer bond orders larger than 0.1
B(  6-C ,  7-O ) :   1.0083 B(  6-C ,  9-H ) :   0.9734 B(  6-C , 10-H ) :   0.9780
B(  6-C , 11-H ) :   0.9940 B(  7-O ,  8-H ) :   0.8988

Dispersion correction           -0.000230173
FINAL SINGLE POINT ENERGY      -115.729831336805

DIPOLE MOMENT
-------------
                                X             Y             Z
Electronic contribution:      0.59757       0.57926       1.64916
Nuclear contribution   :     -1.16009      -0.36407      -2.04609
                        -----------------------------------------
Total Dipole Moment    :     -0.56251       0.21519      -0.39692
                        -----------------------------------------
Magnitude (a.u.)       :      0.72130
Magnitude (Debye)      :      1.83341

Rotational constants in cm-1:     4.446759     0.847940     0.804922
Rotational constants in MHz : 133310.473086 25420.616142 24130.953017

                             ****ORCA TERMINATED NORMALLY****
TOTAL RUN TIME: 0 days 0 hours 0 minutes 54 seconds 905 msec
