                         Program Version 4.1.2  - RELEASE  -
|  1> #Run DFT-D3 single point of the dimer
|  2> ! wB97X-D3 def2-TZVP TIGHTSCF CHELPG PMODEL PAL8
|  3>
|  4> %base "13-3_DFT_AB"
|  5>
|  6> %scf
|  7> MaxIter 1000
|  8> end
|  9>
| 10> * xyz 0 1
| 11>   C                      -2.257604            -6.993449            -0.918277
| 12>   O                      -2.080523            -8.395982            -0.827367
| 13>   H                      -2.059170            -8.743386            0.111713
| 14>   H                      -1.423130            -6.407729            -0.539471
| 15>   H                      -2.370768            -6.724110            -2.003700
| 16>   H                      -3.147931            -6.621619            -0.383193
| 17>   C                      -5.844480            -6.625047            -2.749340
| 18>   O                      -5.017358            -6.194426            -3.857765
| 19>   H                      -5.008790            -5.271032            -4.088305
| 20>   H                      -5.698650            -7.714798            -2.622161
| 21>   H                      -5.572286            -6.151671            -1.749440
| 22>   H                      -6.872306            -6.378046            -2.941820
| 23> *
| 24>
| 25> #Run DFT-D3 single point of the molecule with dimer basis set
| 26> $new_job
| 27> %base "13-3_DFT_A"
| 28> ! wB97X-D3 def2-TZVP TIGHTSCF CHELPG PMODEL
| 29>
| 30> %scf
| 31> MaxIter 1000
| 32> end
| 33>
| 34> * xyz 0 1
| 35>   C                      -2.257604            -6.993449            -0.918277
| 36>   O                      -2.080523            -8.395982            -0.827367
| 37>   H                      -2.059170            -8.743386            0.111713
| 38>   H                      -1.423130            -6.407729            -0.539471
| 39>   H                      -2.370768            -6.724110            -2.003700
| 40>   H                      -3.147931            -6.621619            -0.383193
| 41>   C                    : -5.844480            -6.625047            -2.749340
| 42>   O                    : -5.017358            -6.194426            -3.857765
| 43>   H                    : -5.008790            -5.271032            -4.088305
| 44>   H                    : -5.698650            -7.714798            -2.622161
| 45>   H                    : -5.572286            -6.151671            -1.749440
| 46>   H                    : -6.872306            -6.378046            -2.941820
| 47> *
| 48>
| 49> #Run DFT-D3 single point of the particle with dimer basis set
| 50> $new_job
| 51> %base "13-3_DFT_B"
| 52> ! wB97X-D3 def2-TZVP TIGHTSCF CHELPG PMODEL
| 53>
| 54> %scf
| 55> MaxIter 1000
| 56> end
| 57>
| 58> * xyz 0 1
| 59>   C                    : -2.257604            -6.993449            -0.918277
| 60>   O                    : -2.080523            -8.395982            -0.827367
| 61>   H                    : -2.059170            -8.743386            0.111713
| 62>   H                    : -1.423130            -6.407729            -0.539471
| 63>   H                    : -2.370768            -6.724110            -2.003700
| 64>   H                    : -3.147931            -6.621619            -0.383193
| 65>   C                      -5.844480            -6.625047            -2.749340
| 66>   O                      -5.017358            -6.194426            -3.857765
| 67>   H                      -5.008790            -5.271032            -4.088305
| 68>   H                      -5.698650            -7.714798            -2.622161
| 69>   H                      -5.572286            -6.151671            -1.749440
| 70>   H                      -6.872306            -6.378046            -2.941820
| 71> *
| 72>
| 73>                          ****END OF INPUT****
 Total Charge           Charge          ....    0
 Multiplicity           Mult            ....    1
 Number of Electrons    NEL             ....   36
Dispersion correction           -0.001601607
FINAL SINGLE POINT ENERGY      -231.466768510598
Dispersion correction           -0.000274567
FINAL SINGLE POINT ENERGY      -115.733774196621

CARTESIAN COORDINATES (ANGSTROEM)
---------------------------------
  C     -2.257604   -6.993449   -0.918277
  O     -2.080523   -8.395982   -0.827367
  H     -2.059170   -8.743386    0.111713
  H     -1.423130   -6.407729   -0.539471
  H     -2.370768   -6.724110   -2.003700
  H     -3.147931   -6.621619   -0.383193
  C     -5.844480   -6.625047   -2.749340
  O     -5.017358   -6.194426   -3.857765
  H     -5.008790   -5.271032   -4.088305
  H     -5.698650   -7.714798   -2.622161
  H     -5.572286   -6.151671   -1.749440
  H     -6.872306   -6.378046   -2.941820

 Multiplicity           Mult            ....    1
 Number of Electrons    NEL             ....   18
 Basis Dimension        Dim             ....  172

ORBITAL ENERGIES
----------------

  NO   OCC          E(Eh)            E(eV)
   0   2.0000     -19.225135      -523.1425
   1   2.0000     -10.322582      -280.8917
   2   2.0000      -1.120729       -30.4966
   3   2.0000      -0.799385       -21.7524
   4   2.0000      -0.607945       -16.5430
   5   2.0000      -0.537206       -14.6181
   6   2.0000      -0.520349       -14.1594
   7   2.0000      -0.424066       -11.5394
   8   2.0000      -0.373127       -10.1533
   9   0.0000       0.088721         2.4142
  10   0.0000       0.121186         3.2976
  11   0.0000       0.149001         4.0545
  12   0.0000       0.168739         4.5916
  13   0.0000       0.188815         5.1379

MULLIKEN ATOMIC CHARGES
-----------------------
   0 C :    0.002366
   1 O :   -0.000072
   2 H :   -0.000010
   3 H :    0.000035
   4 H :   -0.004378
   5 H :   -0.000657
   6 C :   -0.153279
   7 O :   -0.507746
   8 H :    0.317706
   9 H :    0.128911
  10 H :    0.099937
  11 H :    0.117187
Sum of atomic charges:    0.0000000

LOEWDIN ATOMIC CHARGES
----------------------
   0 C :   -0.001545
   1 O :   -0.000021
   2 H :   -0.000003
   3 H :   -0.000002
   4 H :   -0.002692
   5 H :   -0.001432
   6 C :   -0.357957
   7 O :   -0.101657
   8 H :    0.156704
   9 H :    0.114515
  10 H :    0.102335
  11 H :    0.091755

  Mayer bond orders larger than 0.1
B(  6-C ,  7-O ) :   0.9741 B(  6-C ,  9-H ) :   0.9723 B(  6-C , 10-H ) :   0.9717
B(  6-C , 11-H ) :   0.9735 B(  7-O ,  8-H ) :   0.8928

Dispersion correction           -0.000288615
FINAL SINGLE POINT ENERGY      -115.731926124697

DIPOLE MOMENT
-------------
                                X             Y             Z
Electronic contribution:      0.98498       0.41792      -1.41571
Nuclear contribution   :     -1.35857       0.00337       1.73729
                        -----------------------------------------
Total Dipole Moment    :     -0.37359       0.42129       0.32158
                        -----------------------------------------
Magnitude (a.u.)       :      0.64843
Magnitude (Debye)      :      1.64819

Rotational constants in cm-1:     4.359074     0.784405     0.759992
Rotational constants in MHz : 130681.747616 23515.862231 22783.995981

                             ****ORCA TERMINATED NORMALLY****
TOTAL RUN TIME: 0 days 0 hours 1 minutes 9 seconds 505 msec
