                         Program Version 4.1.2  - RELEASE  -
|  1> #Run DFT-D3 single point of the dimer
|  2> ! wB97X-D3 def2-TZVP TIGHTSCF CHELPG PMODEL PAL8
|  3>
|  4> %base "3-47_DFT_AB"
|  5>
|  6> %scf
|  7> MaxIter 1000
|  8> end
|  9>
| 10> * xyz 0 1
| 11>   C                      -3.289817            3.839313             -6.482746
| 12>   O                      -4.185576            4.250906             -7.462851
| 13>   H                      -4.707539            3.455339             -7.545012
| 14>   H                      -3.645948            3.191517             -5.758856
| 15>   H                      -2.405513            3.242529             -6.901142
| 16>   H                      -2.662676            4.632680             -6.020365
| 17>   C                      -0.791894            0.153209             -7.293953
| 18>   O                      -0.429146            0.665434             -6.098540
| 19>   H                      -0.963668            0.273240             -5.400980
| 20>   H                      -1.837251            0.451589             -7.599444
| 21>   H                      -0.115426            0.306201             -8.126156
| 22>   H                      -0.855482            -0.922665            -7.269317
| 23> *
| 24>
| 25> #Run DFT-D3 single point of the molecule with dimer basis set
| 26> $new_job
| 27> %base "3-47_DFT_A"
| 28> ! wB97X-D3 def2-TZVP TIGHTSCF CHELPG PMODEL
| 29>
| 30> %scf
| 31> MaxIter 1000
| 32> end
| 33>
| 34> * xyz 0 1
| 35>   C                      -3.289817            3.839313             -6.482746
| 36>   O                      -4.185576            4.250906             -7.462851
| 37>   H                      -4.707539            3.455339             -7.545012
| 38>   H                      -3.645948            3.191517             -5.758856
| 39>   H                      -2.405513            3.242529             -6.901142
| 40>   H                      -2.662676            4.632680             -6.020365
| 41>   C                    : -0.791894            0.153209             -7.293953
| 42>   O                    : -0.429146            0.665434             -6.098540
| 43>   H                    : -0.963668            0.273240             -5.400980
| 44>   H                    : -1.837251            0.451589             -7.599444
| 45>   H                    : -0.115426            0.306201             -8.126156
| 46>   H                    : -0.855482            -0.922665            -7.269317
| 47> *
| 48>
| 49> #Run DFT-D3 single point of the particle with dimer basis set
| 50> $new_job
| 51> %base "3-47_DFT_B"
| 52> ! wB97X-D3 def2-TZVP TIGHTSCF CHELPG PMODEL
| 53>
| 54> %scf
| 55> MaxIter 1000
| 56> end
| 57>
| 58> * xyz 0 1
| 59>   C                    : -3.289817            3.839313             -6.482746
| 60>   O                    : -4.185576            4.250906             -7.462851
| 61>   H                    : -4.707539            3.455339             -7.545012
| 62>   H                    : -3.645948            3.191517             -5.758856
| 63>   H                    : -2.405513            3.242529             -6.901142
| 64>   H                    : -2.662676            4.632680             -6.020365
| 65>   C                      -0.791894            0.153209             -7.293953
| 66>   O                      -0.429146            0.665434             -6.098540
| 67>   H                      -0.963668            0.273240             -5.400980
| 68>   H                      -1.837251            0.451589             -7.599444
| 69>   H                      -0.115426            0.306201             -8.126156
| 70>   H                      -0.855482            -0.922665            -7.269317
| 71> *
| 72>
| 73>                          ****END OF INPUT****
 Total Charge           Charge          ....    0
 Multiplicity           Mult            ....    1
 Number of Electrons    NEL             ....   36
Dispersion correction           -0.001221682
FINAL SINGLE POINT ENERGY      -231.454728082324
Dispersion correction           -0.000235394
FINAL SINGLE POINT ENERGY      -115.723676547119

CARTESIAN COORDINATES (ANGSTROEM)
---------------------------------
  C     -3.289817    3.839313   -6.482746
  O     -4.185576    4.250906   -7.462851
  H     -4.707539    3.455339   -7.545012
  H     -3.645948    3.191517   -5.758856
  H     -2.405513    3.242529   -6.901142
  H     -2.662676    4.632680   -6.020365
  C     -0.791894    0.153209   -7.293953
  O     -0.429146    0.665434   -6.098540
  H     -0.963668    0.273240   -5.400980
  H     -1.837251    0.451589   -7.599444
  H     -0.115426    0.306201   -8.126156
  H     -0.855482   -0.922665   -7.269317

 Multiplicity           Mult            ....    1
 Number of Electrons    NEL             ....   18
 Basis Dimension        Dim             ....  172

ORBITAL ENERGIES
----------------

  NO   OCC          E(Eh)            E(eV)
   0   2.0000     -19.233196      -523.3619
   1   2.0000     -10.308883      -280.5190
   2   2.0000      -1.158030       -31.5116
   3   2.0000      -0.795665       -21.6512
   4   2.0000      -0.628241       -17.0953
   5   2.0000      -0.547519       -14.8987
   6   2.0000      -0.536802       -14.6071
   7   2.0000      -0.426950       -11.6179
   8   2.0000      -0.368570       -10.0293
   9   0.0000       0.085996         2.3401
  10   0.0000       0.120664         3.2834
  11   0.0000       0.151736         4.1289
  12   0.0000       0.172022         4.6810
  13   0.0000       0.192348         5.2341

MULLIKEN ATOMIC CHARGES
-----------------------
   0 C :   -0.001071
   1 O :    0.000008
   2 H :   -0.000017
   3 H :   -0.000258
   4 H :    0.000840
   5 H :    0.000022
   6 C :   -0.164061
   7 O :   -0.460473
   8 H :    0.323032
   9 H :    0.082451
  10 H :    0.119817
  11 H :    0.099709
Sum of atomic charges:    0.0000000

LOEWDIN ATOMIC CHARGES
----------------------
   0 C :   -0.001075
   1 O :   -0.000020
   2 H :   -0.000033
   3 H :   -0.000121
   4 H :   -0.001348
   5 H :   -0.000015
   6 C :   -0.442513
   7 O :   -0.025357
   8 H :    0.180067
   9 H :    0.094917
  10 H :    0.106405
  11 H :    0.089093

  Mayer bond orders larger than 0.1
B(  6-C ,  7-O ) :   1.0055 B(  6-C ,  9-H ) :   0.9792 B(  6-C , 10-H ) :   0.9694
B(  6-C , 11-H ) :   0.9848 B(  7-O ,  8-H ) :   0.8909

Dispersion correction           -0.000224110
FINAL SINGLE POINT ENERGY      -115.730269518669

DIPOLE MOMENT
-------------
                                X             Y             Z
Electronic contribution:      0.73162       0.89619       1.62066
Nuclear contribution   :     -1.17230      -1.36949      -1.59182
                        -----------------------------------------
Total Dipole Moment    :     -0.44068      -0.47330       0.02883
                        -----------------------------------------
Magnitude (a.u.)       :      0.64734
Magnitude (Debye)      :      1.64540

Rotational constants in cm-1:     4.458004     0.880615     0.847968
Rotational constants in MHz : 133647.591927 26400.187874 25421.453858

                             ****ORCA TERMINATED NORMALLY****
TOTAL RUN TIME: 0 days 0 hours 6 minutes 23 seconds 256 msec
