                         Program Version 4.1.2  - RELEASE  -
|  1> #Run DFT-D3 single point of the dimer
|  2> ! wB97X-D3 def2-TZVP TIGHTSCF CHELPG PMODEL PAL8
|  3>
|  4> %base "10-170_DFT_AB"
|  5>
|  6> %scf
|  7> MaxIter 1000
|  8> end
|  9>
| 10> * xyz 0 1
| 11>   C                      11.089585            5.097447             4.611890
| 12>   O                      10.322646            6.224895             4.525903
| 13>   H                      9.858087             6.349834             5.355066
| 14>   H                      12.137140            5.173628             5.015755
| 15>   H                      10.557357            4.253865             5.087310
| 16>   H                      11.324609            4.716682             3.663376
| 17>   C                      7.628669             7.630412             5.588731
| 18>   O                      8.218989             6.613648             6.386838
| 19>   H                      8.132977             7.093867             7.249354
| 20>   H                      8.419939             8.255814             5.241938
| 21>   H                      7.138700             7.150735             4.705548
| 22>   H                      6.885957             8.177862             6.120765
| 23> *
| 24>
| 25> #Run DFT-D3 single point of the molecule with dimer basis set
| 26> $new_job
| 27> %base "10-170_DFT_A"
| 28> ! wB97X-D3 def2-TZVP TIGHTSCF CHELPG PMODEL
| 29>
| 30> %scf
| 31> MaxIter 1000
| 32> end
| 33>
| 34> * xyz 0 1
| 35>   C                      11.089585            5.097447             4.611890
| 36>   O                      10.322646            6.224895             4.525903
| 37>   H                      9.858087             6.349834             5.355066
| 38>   H                      12.137140            5.173628             5.015755
| 39>   H                      10.557357            4.253865             5.087310
| 40>   H                      11.324609            4.716682             3.663376
| 41>   C                    : 7.628669             7.630412             5.588731
| 42>   O                    : 8.218989             6.613648             6.386838
| 43>   H                    : 8.132977             7.093867             7.249354
| 44>   H                    : 8.419939             8.255814             5.241938
| 45>   H                    : 7.138700             7.150735             4.705548
| 46>   H                    : 6.885957             8.177862             6.120765
| 47> *
| 48>
| 49> #Run DFT-D3 single point of the particle with dimer basis set
| 50> $new_job
| 51> %base "10-170_DFT_B"
| 52> ! wB97X-D3 def2-TZVP TIGHTSCF CHELPG PMODEL
| 53>
| 54> %scf
| 55> MaxIter 1000
| 56> end
| 57>
| 58> * xyz 0 1
| 59>   C                    : 11.089585            5.097447             4.611890
| 60>   O                    : 10.322646            6.224895             4.525903
| 61>   H                    : 9.858087             6.349834             5.355066
| 62>   H                    : 12.137140            5.173628             5.015755
| 63>   H                    : 10.557357            4.253865             5.087310
| 64>   H                    : 11.324609            4.716682             3.663376
| 65>   C                      7.628669             7.630412             5.588731
| 66>   O                      8.218989             6.613648             6.386838
| 67>   H                      8.132977             7.093867             7.249354
| 68>   H                      8.419939             8.255814             5.241938
| 69>   H                      7.138700             7.150735             4.705548
| 70>   H                      6.885957             8.177862             6.120765
| 71> *
| 72>
| 73>                          ****END OF INPUT****
 Total Charge           Charge          ....    0
 Multiplicity           Mult            ....    1
 Number of Electrons    NEL             ....   36
Dispersion correction           -0.001726582
FINAL SINGLE POINT ENERGY      -231.468125490817
Dispersion correction           -0.000250598
FINAL SINGLE POINT ENERGY      -115.730437429267

CARTESIAN COORDINATES (ANGSTROEM)
---------------------------------
  C     11.089585    5.097447    4.611890
  O     10.322646    6.224895    4.525903
  H      9.858087    6.349834    5.355066
  H     12.137140    5.173628    5.015755
  H     10.557357    4.253865    5.087310
  H     11.324609    4.716682    3.663376
  C      7.628669    7.630412    5.588731
  O      8.218989    6.613648    6.386838
  H      8.132977    7.093867    7.249354
  H      8.419939    8.255814    5.241938
  H      7.138700    7.150735    4.705548
  H      6.885957    8.177862    6.120765

 Multiplicity           Mult            ....    1
 Number of Electrons    NEL             ....   18
 Basis Dimension        Dim             ....  172

ORBITAL ENERGIES
----------------

  NO   OCC          E(Eh)            E(eV)
   0   2.0000     -19.233864      -523.3800
   1   2.0000     -10.309881      -280.5461
   2   2.0000      -1.136399       -30.9230
   3   2.0000      -0.789803       -21.4916
   4   2.0000      -0.608440       -16.5565
   5   2.0000      -0.550397       -14.9771
   6   2.0000      -0.517905       -14.0929
   7   2.0000      -0.445522       -12.1233
   8   2.0000      -0.373366       -10.1598
   9   0.0000       0.097021         2.6401
  10   0.0000       0.118021         3.2115
  11   0.0000       0.156022         4.2456
  12   0.0000       0.185111         5.0371
  13   0.0000       0.195405         5.3172

MULLIKEN ATOMIC CHARGES
-----------------------
   0 C :    0.001429
   1 O :    0.000389
   2 H :   -0.006869
   3 H :   -0.000081
   4 H :   -0.001059
   5 H :   -0.000136
   6 C :   -0.184741
   7 O :   -0.458289
   8 H :    0.313087
   9 H :    0.113801
  10 H :    0.110961
  11 H :    0.111506
Sum of atomic charges:    0.0000000

LOEWDIN ATOMIC CHARGES
----------------------
   0 C :   -0.001766
   1 O :   -0.005067
   2 H :   -0.038732
   3 H :   -0.000015
   4 H :   -0.000414
   5 H :   -0.000021
   6 C :   -0.381509
   7 O :   -0.061116
   8 H :    0.192284
   9 H :    0.094007
  10 H :    0.111784
  11 H :    0.090565

  Mayer bond orders larger than 0.1
B(  6-C ,  7-O ) :   0.9851 B(  6-C ,  9-H ) :   0.9822 B(  6-C , 10-H ) :   0.9759
B(  6-C , 11-H ) :   0.9796 B(  7-O ,  8-H ) :   0.9015

Dispersion correction           -0.000206242
FINAL SINGLE POINT ENERGY      -115.729488820857

DIPOLE MOMENT
-------------
                                X             Y             Z
Electronic contribution:      0.75400      -1.34176       0.91721
Nuclear contribution   :     -1.05020       2.02604      -0.70050
                        -----------------------------------------
Total Dipole Moment    :     -0.29620       0.68428       0.21671
                        -----------------------------------------
Magnitude (a.u.)       :      0.77649
Magnitude (Debye)      :      1.97369

Rotational constants in cm-1:     4.146828     0.847593     0.810932
Rotational constants in MHz : 124318.783199 25410.202154 24311.132205

                             ****ORCA TERMINATED NORMALLY****
TOTAL RUN TIME: 0 days 0 hours 1 minutes 8 seconds 679 msec
