                         Program Version 4.1.2  - RELEASE  -
|  1> #Run DFT-D3 single point of the dimer
|  2> ! wB97X-D3 def2-TZVP TIGHTSCF CHELPG PMODEL PAL8
|  3>
|  4> %base "19-19_DFT_AB"
|  5>
|  6> %scf
|  7> MaxIter 1000
|  8> end
|  9>
| 10> * xyz 0 1
| 11>   C                      9.121018             -8.002332            -6.658130
| 12>   O                      10.161908            -7.980103            -7.581041
| 13>   H                      10.228390            -8.853579            -7.970329
| 14>   H                      8.705024             -7.045005            -6.526222
| 15>   H                      8.234115             -8.471532            -7.034247
| 16>   H                      9.419755             -8.306082            -5.708888
| 17>   C                      8.510157             -10.398250           -10.235309
| 18>   O                      7.254456             -9.948081            -9.737780
| 19>   H                      6.666623             -9.857314            -10.452136
| 20>   H                      9.022312             -9.775662            -10.903889
| 21>   H                      9.198642             -10.657259           -9.413913
| 22>   H                      8.344879             -11.349580           -10.776448
| 23> *
| 24>
| 25> #Run DFT-D3 single point of the molecule with dimer basis set
| 26> $new_job
| 27> %base "19-19_DFT_A"
| 28> ! wB97X-D3 def2-TZVP TIGHTSCF CHELPG PMODEL
| 29>
| 30> %scf
| 31> MaxIter 1000
| 32> end
| 33>
| 34> * xyz 0 1
| 35>   C                      9.121018             -8.002332            -6.658130
| 36>   O                      10.161908            -7.980103            -7.581041
| 37>   H                      10.228390            -8.853579            -7.970329
| 38>   H                      8.705024             -7.045005            -6.526222
| 39>   H                      8.234115             -8.471532            -7.034247
| 40>   H                      9.419755             -8.306082            -5.708888
| 41>   C                    : 8.510157             -10.398250           -10.235309
| 42>   O                    : 7.254456             -9.948081            -9.737780
| 43>   H                    : 6.666623             -9.857314            -10.452136
| 44>   H                    : 9.022312             -9.775662            -10.903889
| 45>   H                    : 9.198642             -10.657259           -9.413913
| 46>   H                    : 8.344879             -11.349580           -10.776448
| 47> *
| 48>
| 49> #Run DFT-D3 single point of the particle with dimer basis set
| 50> $new_job
| 51> %base "19-19_DFT_B"
| 52> ! wB97X-D3 def2-TZVP TIGHTSCF CHELPG PMODEL
| 53>
| 54> %scf
| 55> MaxIter 1000
| 56> end
| 57>
| 58> * xyz 0 1
| 59>   C                    : 9.121018             -8.002332            -6.658130
| 60>   O                    : 10.161908            -7.980103            -7.581041
| 61>   H                    : 10.228390            -8.853579            -7.970329
| 62>   H                    : 8.705024             -7.045005            -6.526222
| 63>   H                    : 8.234115             -8.471532            -7.034247
| 64>   H                    : 9.419755             -8.306082            -5.708888
| 65>   C                      8.510157             -10.398250           -10.235309
| 66>   O                      7.254456             -9.948081            -9.737780
| 67>   H                      6.666623             -9.857314            -10.452136
| 68>   H                      9.022312             -9.775662            -10.903889
| 69>   H                      9.198642             -10.657259           -9.413913
| 70>   H                      8.344879             -11.349580           -10.776448
| 71> *
| 72>
| 73>                          ****END OF INPUT****
 Total Charge           Charge          ....    0
 Multiplicity           Mult            ....    1
 Number of Electrons    NEL             ....   36
Dispersion correction           -0.001599217
FINAL SINGLE POINT ENERGY      -231.463591159456
Dispersion correction           -0.000227595
FINAL SINGLE POINT ENERGY      -115.729317807085

CARTESIAN COORDINATES (ANGSTROEM)
---------------------------------
  C      9.121018   -8.002332   -6.658130
  O     10.161908   -7.980103   -7.581041
  H     10.228390   -8.853579   -7.970329
  H      8.705024   -7.045005   -6.526222
  H      8.234115   -8.471532   -7.034247
  H      9.419755   -8.306082   -5.708888
  C      8.510157  -10.398250  -10.235309
  O      7.254456   -9.948081   -9.737780
  H      6.666623   -9.857314  -10.452136
  H      9.022312   -9.775662  -10.903889
  H      9.198642  -10.657259   -9.413913
  H      8.344879  -11.349580  -10.776448

 Multiplicity           Mult            ....    1
 Number of Electrons    NEL             ....   18
 Basis Dimension        Dim             ....  172

ORBITAL ENERGIES
----------------

  NO   OCC          E(Eh)            E(eV)
   0   2.0000     -19.228922      -523.2456
   1   2.0000     -10.311365      -280.5865
   2   2.0000      -1.139713       -31.0132
   3   2.0000      -0.802446       -21.8357
   4   2.0000      -0.616792       -16.7838
   5   2.0000      -0.540698       -14.7131
   6   2.0000      -0.527638       -14.3578
   7   2.0000      -0.435618       -11.8538
   8   2.0000      -0.375685       -10.2229
   9   0.0000       0.095538         2.5997
  10   0.0000       0.124022         3.3748
  11   0.0000       0.148955         4.0533
  12   0.0000       0.183656         4.9975
  13   0.0000       0.200200         5.4477

MULLIKEN ATOMIC CHARGES
-----------------------
   0 C :    0.000316
   1 O :    0.000143
   2 H :   -0.000236
   3 H :    0.000028
   4 H :   -0.003159
   5 H :   -0.000046
   6 C :   -0.174454
   7 O :   -0.466696
   8 H :    0.307928
   9 H :    0.109673
  10 H :    0.123782
  11 H :    0.102724
Sum of atomic charges:    0.0000000

LOEWDIN ATOMIC CHARGES
----------------------
   0 C :   -0.001031
   1 O :   -0.000130
   2 H :   -0.003007
   3 H :   -0.000009
   4 H :   -0.002082
   5 H :   -0.000011
   6 C :   -0.373669
   7 O :   -0.064226
   8 H :    0.147928
   9 H :    0.083602
  10 H :    0.113506
  11 H :    0.099130

  Mayer bond orders larger than 0.1
B(  6-C ,  7-O ) :   0.9947 B(  6-C ,  9-H ) :   0.9677 B(  6-C , 10-H ) :   0.9736
B(  6-C , 11-H ) :   0.9831 B(  7-O ,  8-H ) :   0.9058

Dispersion correction           -0.000243574
FINAL SINGLE POINT ENERGY      -115.732757412941

DIPOLE MOMENT
-------------
                                X             Y             Z
Electronic contribution:     -1.54586       0.74784       0.75262
Nuclear contribution   :      1.68118      -0.87855      -1.42459
                        -----------------------------------------
Total Dipole Moment    :      0.13532      -0.13071      -0.67197
                        -----------------------------------------
Magnitude (a.u.)       :      0.69781
Magnitude (Debye)      :      1.77369

Rotational constants in cm-1:     4.494114     0.819159     0.789468
Rotational constants in MHz : 134730.143481 24557.766172 23667.642117

                             ****ORCA TERMINATED NORMALLY****
TOTAL RUN TIME: 0 days 0 hours 1 minutes 36 seconds 988 msec
