                         Program Version 4.1.2  - RELEASE  -
|  1> #Run DFT-D3 single point of the dimer
|  2> ! wB97X-D3 def2-TZVP TIGHTSCF  CHELPG PAL8
|  3>
|  4> %base "90_charges"
|  5>
|  6> %scf
|  7> MaxIter 1000
|  8> end
|  9> %output
| 10>   Print[ P_Mayer ] 1
| 11>   Print[ P_NatPop ] 1
| 12>   Print[ P_Hirshfeld ] 1
| 13>   Print[ P_Mulliken ] 1
| 14>   Print [ P_Loewdin ] 1
| 15> end
| 16>
| 17> * xyz 0 1
| 18>   C                      2.112352             0.842794             8.504853
| 19>   O                      1.948106             1.410628             9.780327
| 20>   H                      2.770766             1.732949             10.176207
| 21>   H                      2.763896             -0.023255            8.603675
| 22>   H                      1.203472             0.463934             7.921283
| 23>   H                      2.618795             1.606458             7.814890
| 24> *
| 25>
| 26>                          ****END OF INPUT****

CARTESIAN COORDINATES (ANGSTROEM)
---------------------------------
  C      2.112352    0.842794    8.504853
  O      1.948106    1.410628    9.780327
  H      2.770766    1.732949   10.176207
  H      2.763896   -0.023255    8.603675
  H      1.203472    0.463934    7.921283
  H      2.618795    1.606458    7.814890

 Total Charge           Charge          ....    0
 Multiplicity           Mult            ....    1
 Number of Electrons    NEL             ....   18
 Basis Dimension        Dim             ....   86

ORBITAL ENERGIES
----------------

  NO   OCC          E(Eh)            E(eV)
   0   2.0000     -19.228938      -523.2460
   1   2.0000     -10.324309      -280.9387
   2   2.0000      -1.134082       -30.8599
   3   2.0000      -0.790391       -21.5076
   4   2.0000      -0.610488       -16.6122
   5   2.0000      -0.539663       -14.6850
   6   2.0000      -0.529666       -14.4130
   7   2.0000      -0.417306       -11.3555
   8   2.0000      -0.370025       -10.0689
   9   0.0000       0.113626         3.0919
  10   0.0000       0.146102         3.9756
  11   0.0000       0.198948         5.4136
  12   0.0000       0.205898         5.6028
  13   0.0000       0.219416         5.9706

MULLIKEN ATOMIC CHARGES
-----------------------
   0 C :   -0.164584
   1 O :   -0.488931
   2 H :    0.325591
   3 H :    0.105360
   4 H :    0.124733
   5 H :    0.097831
Sum of atomic charges:   -0.0000000

LOEWDIN ATOMIC CHARGES
----------------------
   0 C :   -0.403950
   1 O :   -0.082845
   2 H :    0.175968
   3 H :    0.091253
   4 H :    0.118729
   5 H :    0.100844

  Mayer bond orders larger than 0.1
B(  0-C ,  1-O ) :   0.9865 B(  0-C ,  3-H ) :   0.9804 B(  0-C ,  4-H ) :   0.9637
B(  0-C ,  5-H ) :   0.9796 B(  1-O ,  2-H ) :   0.8855

Dispersion correction           -0.000260207
FINAL SINGLE POINT ENERGY      -115.727095390738

DIPOLE MOMENT
-------------
                                X             Y             Z
Electronic contribution:     -0.45180       0.68731       1.72468
Nuclear contribution   :      1.05040      -0.72462      -1.97343
                        -----------------------------------------
Total Dipole Moment    :      0.59860      -0.03731      -0.24875
                        -----------------------------------------
Magnitude (a.u.)       :      0.64930
Magnitude (Debye)      :      1.65040

Rotational constants in cm-1:     4.280612     0.815443     0.790942
Rotational constants in MHz : 128329.526047 24446.365851 23711.859176

                             ****ORCA TERMINATED NORMALLY****
TOTAL RUN TIME: 0 days 0 hours 0 minutes 41 seconds 53 msec
