                         Program Version 4.1.2  - RELEASE  -
|  1> #Run DFT-D3 single point of the dimer
|  2> ! wB97X-D3 def2-TZVP TIGHTSCF CHELPG PMODEL PAL8
|  3>
|  4> %base "5-12_DFT_AB"
|  5>
|  6> %scf
|  7> MaxIter 1000
|  8> end
|  9>
| 10> * xyz 0 1
| 11>   C                      4.682052             -4.285258            7.565120
| 12>   O                      4.866444             -3.775011            6.253769
| 13>   H                      4.430609             -2.921144            6.243393
| 14>   H                      4.396078             -3.482571            8.277853
| 15>   H                      3.896837             -5.017560            7.602140
| 16>   H                      5.548066             -4.676643            7.981622
| 17>   C                      6.493591             -7.114689            5.665414
| 18>   O                      7.749158             -7.200561            5.023627
| 19>   H                      8.417499             -7.256658            5.702624
| 20>   H                      6.411173             -7.828988            6.442911
| 21>   H                      6.322881             -6.124128            6.161306
| 22>   H                      5.695959             -7.314876            5.013645
| 23> *
| 24>
| 25> #Run DFT-D3 single point of the molecule with dimer basis set
| 26> $new_job
| 27> %base "5-12_DFT_A"
| 28> ! wB97X-D3 def2-TZVP TIGHTSCF CHELPG PMODEL
| 29>
| 30> %scf
| 31> MaxIter 1000
| 32> end
| 33>
| 34> * xyz 0 1
| 35>   C                      4.682052             -4.285258            7.565120
| 36>   O                      4.866444             -3.775011            6.253769
| 37>   H                      4.430609             -2.921144            6.243393
| 38>   H                      4.396078             -3.482571            8.277853
| 39>   H                      3.896837             -5.017560            7.602140
| 40>   H                      5.548066             -4.676643            7.981622
| 41>   C                    : 6.493591             -7.114689            5.665414
| 42>   O                    : 7.749158             -7.200561            5.023627
| 43>   H                    : 8.417499             -7.256658            5.702624
| 44>   H                    : 6.411173             -7.828988            6.442911
| 45>   H                    : 6.322881             -6.124128            6.161306
| 46>   H                    : 5.695959             -7.314876            5.013645
| 47> *
| 48>
| 49> #Run DFT-D3 single point of the particle with dimer basis set
| 50> $new_job
| 51> %base "5-12_DFT_B"
| 52> ! wB97X-D3 def2-TZVP TIGHTSCF CHELPG PMODEL
| 53>
| 54> %scf
| 55> MaxIter 1000
| 56> end
| 57>
| 58> * xyz 0 1
| 59>   C                    : 4.682052             -4.285258            7.565120
| 60>   O                    : 4.866444             -3.775011            6.253769
| 61>   H                    : 4.430609             -2.921144            6.243393
| 62>   H                    : 4.396078             -3.482571            8.277853
| 63>   H                    : 3.896837             -5.017560            7.602140
| 64>   H                    : 5.548066             -4.676643            7.981622
| 65>   C                      6.493591             -7.114689            5.665414
| 66>   O                      7.749158             -7.200561            5.023627
| 67>   H                      8.417499             -7.256658            5.702624
| 68>   H                      6.411173             -7.828988            6.442911
| 69>   H                      6.322881             -6.124128            6.161306
| 70>   H                      5.695959             -7.314876            5.013645
| 71> *
| 72>
| 73>                          ****END OF INPUT****
 Total Charge           Charge          ....    0
 Multiplicity           Mult            ....    1
 Number of Electrons    NEL             ....   36
Dispersion correction           -0.001564780
FINAL SINGLE POINT ENERGY      -231.466912581941
Dispersion correction           -0.000239376
FINAL SINGLE POINT ENERGY      -115.732580722444

CARTESIAN COORDINATES (ANGSTROEM)
---------------------------------
  C      4.682052   -4.285258    7.565120
  O      4.866444   -3.775011    6.253769
  H      4.430609   -2.921144    6.243393
  H      4.396078   -3.482571    8.277853
  H      3.896837   -5.017560    7.602140
  H      5.548066   -4.676643    7.981622
  C      6.493591   -7.114689    5.665414
  O      7.749158   -7.200561    5.023627
  H      8.417499   -7.256658    5.702624
  H      6.411173   -7.828988    6.442911
  H      6.322881   -6.124128    6.161306
  H      5.695959   -7.314876    5.013645

 Multiplicity           Mult            ....    1
 Number of Electrons    NEL             ....   18
 Basis Dimension        Dim             ....  172

ORBITAL ENERGIES
----------------

  NO   OCC          E(Eh)            E(eV)
   0   2.0000     -19.230188      -523.2800
   1   2.0000     -10.307385      -280.4782
   2   2.0000      -1.137933       -30.9647
   3   2.0000      -0.801638       -21.8137
   4   2.0000      -0.614427       -16.7194
   5   2.0000      -0.539290       -14.6748
   6   2.0000      -0.533518       -14.5178
   7   2.0000      -0.437402       -11.9023
   8   2.0000      -0.373160       -10.1542
   9   0.0000       0.083338         2.2678
  10   0.0000       0.117938         3.2093
  11   0.0000       0.154581         4.2064
  12   0.0000       0.168367         4.5815
  13   0.0000       0.187828         5.1110

MULLIKEN ATOMIC CHARGES
-----------------------
   0 C :   -0.002402
   1 O :    0.000627
   2 H :    0.000004
   3 H :   -0.000227
   4 H :    0.000286
   5 H :   -0.000961
   6 C :   -0.162533
   7 O :   -0.474599
   8 H :    0.314480
   9 H :    0.105118
  10 H :    0.097213
  11 H :    0.122994
Sum of atomic charges:   -0.0000000

LOEWDIN ATOMIC CHARGES
----------------------
   0 C :   -0.009889
   1 O :   -0.002096
   2 H :   -0.000126
   3 H :   -0.000124
   4 H :   -0.000465
   5 H :   -0.003354
   6 C :   -0.376424
   7 O :   -0.069879
   8 H :    0.166292
   9 H :    0.088882
  10 H :    0.107546
  11 H :    0.099638

  Mayer bond orders larger than 0.1
B(  6-C ,  7-O ) :   0.9931 B(  6-C ,  9-H ) :   0.9824 B(  6-C , 10-H ) :   0.9787
B(  6-C , 11-H ) :   0.9694 B(  7-O ,  8-H ) :   0.9012

Dispersion correction           -0.000235109
FINAL SINGLE POINT ENERGY      -115.733911963590

DIPOLE MOMENT
-------------
                                X             Y             Z
Electronic contribution:      1.54452      -0.14355      -1.05273
Nuclear contribution   :     -1.62767       0.10626       1.73783
                        -----------------------------------------
Total Dipole Moment    :     -0.08316      -0.03729       0.68510
                        -----------------------------------------
Magnitude (a.u.)       :      0.69114
Magnitude (Debye)      :      1.75673

Rotational constants in cm-1:     4.474906     0.830584     0.803300
Rotational constants in MHz : 134154.310583 24900.282434 24082.338874

                             ****ORCA TERMINATED NORMALLY****
TOTAL RUN TIME: 0 days 0 hours 1 minutes 2 seconds 502 msec
