                         Program Version 4.1.2  - RELEASE  -
|  1> #Run DFT-D3 single point of the dimer
|  2> ! wB97X-D3 def2-TZVP TIGHTSCF CHELPG PMODEL PAL8
|  3>
|  4> %base "22-85_DFT_AB"
|  5>
|  6> %scf
|  7> MaxIter 1000
|  8> end
|  9>
| 10> * xyz 0 1
| 11>   C                      2.808889             0.844054             -8.414163
| 12>   O                      2.751306             -0.322919            -7.643315
| 13>   H                      2.321928             -0.062151            -6.767259
| 14>   H                      3.391022             0.885911             -9.374107
| 15>   H                      1.750066             0.987597             -8.760820
| 16>   H                      3.044555             1.683032             -7.747926
| 17>   C                      5.841575             5.538677             -8.971014
| 18>   O                      5.937929             5.637680             -10.311734
| 19>   H                      6.324297             4.832202             -10.653868
| 20>   H                      5.247490             6.394668             -8.527192
| 21>   H                      5.280921             4.660592             -8.722857
| 22>   H                      6.775231             5.503065             -8.381655
| 23> *
| 24>
| 25> #Run DFT-D3 single point of the molecule with dimer basis set
| 26> $new_job
| 27> %base "22-85_DFT_A"
| 28> ! wB97X-D3 def2-TZVP TIGHTSCF CHELPG PMODEL
| 29>
| 30> %scf
| 31> MaxIter 1000
| 32> end
| 33>
| 34> * xyz 0 1
| 35>   C                      2.808889             0.844054             -8.414163
| 36>   O                      2.751306             -0.322919            -7.643315
| 37>   H                      2.321928             -0.062151            -6.767259
| 38>   H                      3.391022             0.885911             -9.374107
| 39>   H                      1.750066             0.987597             -8.760820
| 40>   H                      3.044555             1.683032             -7.747926
| 41>   C                    : 5.841575             5.538677             -8.971014
| 42>   O                    : 5.937929             5.637680             -10.311734
| 43>   H                    : 6.324297             4.832202             -10.653868
| 44>   H                    : 5.247490             6.394668             -8.527192
| 45>   H                    : 5.280921             4.660592             -8.722857
| 46>   H                    : 6.775231             5.503065             -8.381655
| 47> *
| 48>
| 49> #Run DFT-D3 single point of the particle with dimer basis set
| 50> $new_job
| 51> %base "22-85_DFT_B"
| 52> ! wB97X-D3 def2-TZVP TIGHTSCF CHELPG PMODEL
| 53>
| 54> %scf
| 55> MaxIter 1000
| 56> end
| 57>
| 58> * xyz 0 1
| 59>   C                    : 2.808889             0.844054             -8.414163
| 60>   O                    : 2.751306             -0.322919            -7.643315
| 61>   H                    : 2.321928             -0.062151            -6.767259
| 62>   H                    : 3.391022             0.885911             -9.374107
| 63>   H                    : 1.750066             0.987597             -8.760820
| 64>   H                    : 3.044555             1.683032             -7.747926
| 65>   C                      5.841575             5.538677             -8.971014
| 66>   O                      5.937929             5.637680             -10.311734
| 67>   H                      6.324297             4.832202             -10.653868
| 68>   H                      5.247490             6.394668             -8.527192
| 69>   H                      5.280921             4.660592             -8.722857
| 70>   H                      6.775231             5.503065             -8.381655
| 71> *
| 72>
| 73>                          ****END OF INPUT****
 Total Charge           Charge          ....    0
 Multiplicity           Mult            ....    1
 Number of Electrons    NEL             ....   36
Dispersion correction           -0.000628314
FINAL SINGLE POINT ENERGY      -231.455416041053
Dispersion correction           -0.000226306
FINAL SINGLE POINT ENERGY      -115.723706864511

CARTESIAN COORDINATES (ANGSTROEM)
---------------------------------
  C      2.808889    0.844054   -8.414163
  O      2.751306   -0.322919   -7.643315
  H      2.321928   -0.062151   -6.767259
  H      3.391022    0.885911   -9.374107
  H      1.750066    0.987597   -8.760820
  H      3.044555    1.683032   -7.747926
  C      5.841575    5.538677   -8.971014
  O      5.937929    5.637680  -10.311734
  H      6.324297    4.832202  -10.653868
  H      5.247490    6.394668   -8.527192
  H      5.280921    4.660592   -8.722857
  H      6.775231    5.503065   -8.381655

 Multiplicity           Mult            ....    1
 Number of Electrons    NEL             ....   18
 Basis Dimension        Dim             ....  172

ORBITAL ENERGIES
----------------

  NO   OCC          E(Eh)            E(eV)
   0   2.0000     -19.232040      -523.3304
   1   2.0000     -10.309187      -280.5272
   2   2.0000      -1.160221       -31.5712
   3   2.0000      -0.792684       -21.5700
   4   2.0000      -0.627009       -17.0618
   5   2.0000      -0.550189       -14.9714
   6   2.0000      -0.533838       -14.5265
   7   2.0000      -0.424195       -11.5429
   8   2.0000      -0.371607       -10.1119
   9   0.0000       0.082320         2.2400
  10   0.0000       0.115393         3.1400
  11   0.0000       0.149995         4.0816
  12   0.0000       0.163403         4.4464
  13   0.0000       0.183065         4.9815

MULLIKEN ATOMIC CHARGES
-----------------------
   0 C :    0.000063
   1 O :   -0.000001
   2 H :   -0.000000
   3 H :    0.000005
   4 H :   -0.000011
   5 H :   -0.000209
   6 C :   -0.159756
   7 O :   -0.455559
   8 H :    0.319316
   9 H :    0.110311
  10 H :    0.097260
  11 H :    0.088580
Sum of atomic charges:    0.0000000

LOEWDIN ATOMIC CHARGES
----------------------
   0 C :   -0.000102
   1 O :   -0.000002
   2 H :   -0.000000
   3 H :   -0.000013
   4 H :   -0.000001
   5 H :   -0.000155
   6 C :   -0.446221
   7 O :   -0.022152
   8 H :    0.174706
   9 H :    0.115485
  10 H :    0.087513
  11 H :    0.090941

  Mayer bond orders larger than 0.1
B(  6-C ,  7-O ) :   1.0112 B(  6-C ,  9-H ) :   0.9710 B(  6-C , 10-H ) :   0.9885
B(  6-C , 11-H ) :   0.9679 B(  7-O ,  8-H ) :   0.8935

Dispersion correction           -0.000225161
FINAL SINGLE POINT ENERGY      -115.731520514590

DIPOLE MOMENT
-------------
                                X             Y             Z
Electronic contribution:      0.16282       0.24754      -1.92502
Nuclear contribution   :      0.03462      -0.81114       2.17318
                        -----------------------------------------
Total Dipole Moment    :      0.19744      -0.56360       0.24815
                        -----------------------------------------
Magnitude (a.u.)       :      0.64669
Magnitude (Debye)      :      1.64376

Rotational constants in cm-1:     4.388107     0.887228     0.852618
Rotational constants in MHz : 131552.144579 26598.438271 25560.848355

                             ****ORCA TERMINATED NORMALLY****
TOTAL RUN TIME: 0 days 0 hours 0 minutes 49 seconds 769 msec
