                         Program Version 4.1.2  - RELEASE  -
|  1> #Run DFT-D3 single point of the dimer
|  2> ! wB97X-D3 def2-TZVP TIGHTSCF CHELPG PMODEL PAL8
|  3>
|  4> %base "15-44_DFT_AB"
|  5>
|  6> %scf
|  7> MaxIter 1000
|  8> end
|  9>
| 10> * xyz 0 1
| 11>   C                      7.027536             3.700445             1.588677
| 12>   O                      7.121738             4.093266             0.247516
| 13>   H                      7.366341             3.333908             -0.299382
| 14>   H                      8.023769             3.471064             2.076743
| 15>   H                      6.544191             4.464693             2.197487
| 16>   H                      6.420623             2.848499             1.708700
| 17>   C                      7.303674             0.687426             6.517185
| 18>   O                      7.707774             1.463133             5.439199
| 19>   H                      7.376451             2.362845             5.531690
| 20>   H                      7.904835             -0.202361            6.651812
| 21>   H                      7.412063             1.245180             7.486515
| 22>   H                      6.233770             0.467527             6.340801
| 23> *
| 24>
| 25> #Run DFT-D3 single point of the molecule with dimer basis set
| 26> $new_job
| 27> %base "15-44_DFT_A"
| 28> ! wB97X-D3 def2-TZVP TIGHTSCF CHELPG PMODEL
| 29>
| 30> %scf
| 31> MaxIter 1000
| 32> end
| 33>
| 34> * xyz 0 1
| 35>   C                      7.027536             3.700445             1.588677
| 36>   O                      7.121738             4.093266             0.247516
| 37>   H                      7.366341             3.333908             -0.299382
| 38>   H                      8.023769             3.471064             2.076743
| 39>   H                      6.544191             4.464693             2.197487
| 40>   H                      6.420623             2.848499             1.708700
| 41>   C                    : 7.303674             0.687426             6.517185
| 42>   O                    : 7.707774             1.463133             5.439199
| 43>   H                    : 7.376451             2.362845             5.531690
| 44>   H                    : 7.904835             -0.202361            6.651812
| 45>   H                    : 7.412063             1.245180             7.486515
| 46>   H                    : 6.233770             0.467527             6.340801
| 47> *
| 48>
| 49> #Run DFT-D3 single point of the particle with dimer basis set
| 50> $new_job
| 51> %base "15-44_DFT_B"
| 52> ! wB97X-D3 def2-TZVP TIGHTSCF CHELPG PMODEL
| 53>
| 54> %scf
| 55> MaxIter 1000
| 56> end
| 57>
| 58> * xyz 0 1
| 59>   C                    : 7.027536             3.700445             1.588677
| 60>   O                    : 7.121738             4.093266             0.247516
| 61>   H                    : 7.366341             3.333908             -0.299382
| 62>   H                    : 8.023769             3.471064             2.076743
| 63>   H                    : 6.544191             4.464693             2.197487
| 64>   H                    : 6.420623             2.848499             1.708700
| 65>   C                      7.303674             0.687426             6.517185
| 66>   O                      7.707774             1.463133             5.439199
| 67>   H                      7.376451             2.362845             5.531690
| 68>   H                      7.904835             -0.202361            6.651812
| 69>   H                      7.412063             1.245180             7.486515
| 70>   H                      6.233770             0.467527             6.340801
| 71> *
| 72>
| 73>                          ****END OF INPUT****
 Total Charge           Charge          ....    0
 Multiplicity           Mult            ....    1
 Number of Electrons    NEL             ....   36
Dispersion correction           -0.000795007
FINAL SINGLE POINT ENERGY      -231.468406897135
Dispersion correction           -0.000247625
FINAL SINGLE POINT ENERGY      -115.734434522300

CARTESIAN COORDINATES (ANGSTROEM)
---------------------------------
  C      7.027536    3.700445    1.588677
  O      7.121738    4.093266    0.247516
  H      7.366341    3.333908   -0.299382
  H      8.023769    3.471064    2.076743
  H      6.544191    4.464693    2.197487
  H      6.420623    2.848499    1.708700
  C      7.303674    0.687426    6.517185
  O      7.707774    1.463133    5.439199
  H      7.376451    2.362845    5.531690
  H      7.904835   -0.202361    6.651812
  H      7.412063    1.245180    7.486515
  H      6.233770    0.467527    6.340801

 Multiplicity           Mult            ....    1
 Number of Electrons    NEL             ....   18
 Basis Dimension        Dim             ....  172

ORBITAL ENERGIES
----------------

  NO   OCC          E(Eh)            E(eV)
   0   2.0000     -19.227247      -523.2000
   1   2.0000     -10.314222      -280.6643
   2   2.0000      -1.141895       -31.0726
   3   2.0000      -0.792192       -21.5566
   4   2.0000      -0.611749       -16.6465
   5   2.0000      -0.551053       -14.9949
   6   2.0000      -0.529011       -14.3951
   7   2.0000      -0.425649       -11.5825
   8   2.0000      -0.369146       -10.0450
   9   0.0000       0.085743         2.3332
  10   0.0000       0.116412         3.1677
  11   0.0000       0.151492         4.1223
  12   0.0000       0.175127         4.7655
  13   0.0000       0.194549         5.2940

MULLIKEN ATOMIC CHARGES
-----------------------
   0 C :   -0.000155
   1 O :   -0.000012
   2 H :   -0.000006
   3 H :   -0.000455
   4 H :    0.000015
   5 H :   -0.000475
   6 C :   -0.154174
   7 O :   -0.478451
   8 H :    0.321148
   9 H :    0.120003
  10 H :    0.093908
  11 H :    0.098654
Sum of atomic charges:   -0.0000000

LOEWDIN ATOMIC CHARGES
----------------------
   0 C :   -0.000473
   1 O :   -0.000007
   2 H :   -0.000001
   3 H :   -0.000237
   4 H :   -0.000020
   5 H :   -0.000206
   6 C :   -0.405224
   7 O :   -0.066163
   8 H :    0.173056
   9 H :    0.104303
  10 H :    0.097627
  11 H :    0.097346

  Mayer bond orders larger than 0.1
B(  6-C ,  7-O ) :   0.9949 B(  6-C ,  9-H ) :   0.9682 B(  6-C , 10-H ) :   0.9802
B(  6-C , 11-H ) :   0.9832 B(  7-O ,  8-H ) :   0.8922

Dispersion correction           -0.000226494
FINAL SINGLE POINT ENERGY      -115.733360432541

DIPOLE MOMENT
-------------
                                X             Y             Z
Electronic contribution:      0.64372       0.80092      -1.48201
Nuclear contribution   :     -0.98991      -0.52688       1.96445
                        -----------------------------------------
Total Dipole Moment    :     -0.34619       0.27403       0.48243
                        -----------------------------------------
Magnitude (a.u.)       :      0.65398
Magnitude (Debye)      :      1.66228

Rotational constants in cm-1:     4.226952     0.852232     0.827374
Rotational constants in MHz : 126720.821879 25549.285543 24804.060189

                             ****ORCA TERMINATED NORMALLY****
TOTAL RUN TIME: 0 days 0 hours 0 minutes 59 seconds 79 msec
