                         Program Version 4.1.2  - RELEASE  -
|  1> #Run DFT-D3 single point of the dimer
|  2> ! wB97X-D3 def2-TZVP TIGHTSCF  CHELPG PAL8
|  3>
|  4> %base "85_charges"
|  5>
|  6> %scf
|  7> MaxIter 1000
|  8> end
|  9> %output
| 10>   Print[ P_Mayer ] 1
| 11>   Print[ P_NatPop ] 1
| 12>   Print[ P_Hirshfeld ] 1
| 13>   Print[ P_Mulliken ] 1
| 14>   Print [ P_Loewdin ] 1
| 15> end
| 16>
| 17> * xyz 0 1
| 18>   C                      2.594781             -0.872630            0.355973
| 19>   O                      1.539850             -0.951352            1.278940
| 20>   H                      1.416107             -1.843204            1.590498
| 21>   H                      2.885022             -1.886449            0.044580
| 22>   H                      2.304109             -0.329739            -0.509654
| 23>   H                      3.479134             -0.392441            0.820942
| 24> *
| 25>
| 26>                          ****END OF INPUT****

CARTESIAN COORDINATES (ANGSTROEM)
---------------------------------
  C      2.594781   -0.872630    0.355973
  O      1.539850   -0.951352    1.278940
  H      1.416107   -1.843204    1.590498
  H      2.885022   -1.886449    0.044580
  H      2.304109   -0.329739   -0.509654
  H      3.479134   -0.392441    0.820942

 Total Charge           Charge          ....    0
 Multiplicity           Mult            ....    1
 Number of Electrons    NEL             ....   18
 Basis Dimension        Dim             ....   86

ORBITAL ENERGIES
----------------

  NO   OCC          E(Eh)            E(eV)
   0   2.0000     -19.225770      -523.1598
   1   2.0000     -10.310863      -280.5729
   2   2.0000      -1.137350       -30.9489
   3   2.0000      -0.797249       -21.6942
   4   2.0000      -0.613479       -16.6936
   5   2.0000      -0.543850       -14.7989
   6   2.0000      -0.531441       -14.4613
   7   2.0000      -0.427136       -11.6230
   8   2.0000      -0.372059       -10.1242
   9   0.0000       0.114153         3.1063
  10   0.0000       0.157556         4.2873
  11   0.0000       0.198779         5.4090
  12   0.0000       0.212353         5.7784
  13   0.0000       0.234495         6.3809

MULLIKEN ATOMIC CHARGES
-----------------------
   0 C :   -0.146640
   1 O :   -0.479615
   2 H :    0.318197
   3 H :    0.093180
   4 H :    0.115046
   5 H :    0.099832
Sum of atomic charges:   -0.0000000

LOEWDIN ATOMIC CHARGES
----------------------
   0 C :   -0.384629
   1 O :   -0.071312
   2 H :    0.164161
   3 H :    0.096494
   4 H :    0.095297
   5 H :    0.099989

  Mayer bond orders larger than 0.1
B(  0-C ,  1-O ) :   1.0083 B(  0-C ,  3-H ) :   0.9893 B(  0-C ,  4-H ) :   0.9742
B(  0-C ,  5-H ) :   0.9753 B(  1-O ,  2-H ) :   0.8984

Dispersion correction           -0.000241221
FINAL SINGLE POINT ENERGY      -115.734860153368

DIPOLE MOMENT
-------------
                                X             Y             Z
Electronic contribution:     -1.39742       0.06703       1.11408
Nuclear contribution   :      1.72730      -0.64102      -1.29435
                        -----------------------------------------
Total Dipole Moment    :      0.32987      -0.57399      -0.18027
                        -----------------------------------------
Magnitude (a.u.)       :      0.68613
Magnitude (Debye)      :      1.74401

Rotational constants in cm-1:     4.343656     0.839672     0.812391
Rotational constants in MHz : 130219.528188 25172.730257 24354.875004

                             ****ORCA TERMINATED NORMALLY****
TOTAL RUN TIME: 0 days 0 hours 0 minutes 40 seconds 363 msec
