                         Program Version 4.1.2  - RELEASE  -
|  1> #Run DFT-D3 single point of the dimer
|  2> ! wB97X-D3 def2-TZVP TIGHTSCF CHELPG PMODEL PAL8
|  3>
|  4> %base "12-207_DFT_AB"
|  5>
|  6> %scf
|  7> MaxIter 1000
|  8> end
|  9>
| 10> * xyz 0 1
| 11>   C                      -11.080017           -0.871185            3.257404
| 12>   O                      -10.361286           -1.402677            2.164674
| 13>   H                      -9.749079            -2.027279            2.644126
| 14>   H                      -10.470056           -0.077454            3.599917
| 15>   H                      -12.139159           -0.623412            2.937376
| 16>   H                      -11.228174           -1.632528            4.075493
| 17>   C                      -9.568364            -5.001076            3.076248
| 18>   O                      -10.585887           -4.060923            2.674553
| 19>   H                      -11.053646           -4.224473            1.849552
| 20>   H                      -9.040090            -4.562394            3.969071
| 21>   H                      -10.042803           -5.937623            3.339550
| 22>   H                      -8.880770            -5.128281            2.263875
| 23> *
| 24>
| 25> #Run DFT-D3 single point of the molecule with dimer basis set
| 26> $new_job
| 27> %base "12-207_DFT_A"
| 28> ! wB97X-D3 def2-TZVP TIGHTSCF CHELPG PMODEL
| 29>
| 30> %scf
| 31> MaxIter 1000
| 32> end
| 33>
| 34> * xyz 0 1
| 35>   C                      -11.080017           -0.871185            3.257404
| 36>   O                      -10.361286           -1.402677            2.164674
| 37>   H                      -9.749079            -2.027279            2.644126
| 38>   H                      -10.470056           -0.077454            3.599917
| 39>   H                      -12.139159           -0.623412            2.937376
| 40>   H                      -11.228174           -1.632528            4.075493
| 41>   C                    : -9.568364            -5.001076            3.076248
| 42>   O                    : -10.585887           -4.060923            2.674553
| 43>   H                    : -11.053646           -4.224473            1.849552
| 44>   H                    : -9.040090            -4.562394            3.969071
| 45>   H                    : -10.042803           -5.937623            3.339550
| 46>   H                    : -8.880770            -5.128281            2.263875
| 47> *
| 48>
| 49> #Run DFT-D3 single point of the particle with dimer basis set
| 50> $new_job
| 51> %base "12-207_DFT_B"
| 52> ! wB97X-D3 def2-TZVP TIGHTSCF CHELPG PMODEL
| 53>
| 54> %scf
| 55> MaxIter 1000
| 56> end
| 57>
| 58> * xyz 0 1
| 59>   C                    : -11.080017           -0.871185            3.257404
| 60>   O                    : -10.361286           -1.402677            2.164674
| 61>   H                    : -9.749079            -2.027279            2.644126
| 62>   H                    : -10.470056           -0.077454            3.599917
| 63>   H                    : -12.139159           -0.623412            2.937376
| 64>   H                    : -11.228174           -1.632528            4.075493
| 65>   C                      -9.568364            -5.001076            3.076248
| 66>   O                      -10.585887           -4.060923            2.674553
| 67>   H                      -11.053646           -4.224473            1.849552
| 68>   H                      -9.040090            -4.562394            3.969071
| 69>   H                      -10.042803           -5.937623            3.339550
| 70>   H                      -8.880770            -5.128281            2.263875
| 71> *
| 72>
| 73>                          ****END OF INPUT****
 Total Charge           Charge          ....    0
 Multiplicity           Mult            ....    1
 Number of Electrons    NEL             ....   36
Dispersion correction           -0.001934327
FINAL SINGLE POINT ENERGY      -231.462826402130
Dispersion correction           -0.000212839
FINAL SINGLE POINT ENERGY      -115.727516332664

CARTESIAN COORDINATES (ANGSTROEM)
---------------------------------
  C    -11.080017   -0.871185    3.257404
  O    -10.361286   -1.402677    2.164674
  H     -9.749079   -2.027279    2.644126
  H    -10.470056   -0.077454    3.599917
  H    -12.139159   -0.623412    2.937376
  H    -11.228174   -1.632528    4.075493
  C     -9.568364   -5.001076    3.076248
  O    -10.585887   -4.060923    2.674553
  H    -11.053646   -4.224473    1.849552
  H     -9.040090   -4.562394    3.969071
  H    -10.042803   -5.937623    3.339550
  H     -8.880770   -5.128281    2.263875

 Multiplicity           Mult            ....    1
 Number of Electrons    NEL             ....   18
 Basis Dimension        Dim             ....  172

ORBITAL ENERGIES
----------------

  NO   OCC          E(Eh)            E(eV)
   0   2.0000     -19.222293      -523.0652
   1   2.0000     -10.317104      -280.7427
   2   2.0000      -1.119148       -30.4536
   3   2.0000      -0.799051       -21.7433
   4   2.0000      -0.604438       -16.4476
   5   2.0000      -0.544768       -14.8239
   6   2.0000      -0.524047       -14.2601
   7   2.0000      -0.420386       -11.4393
   8   2.0000      -0.371907       -10.1201
   9   0.0000       0.098927         2.6919
  10   0.0000       0.130527         3.5518
  11   0.0000       0.148868         4.0509
  12   0.0000       0.190884         5.1942
  13   0.0000       0.197617         5.3774

MULLIKEN ATOMIC CHARGES
-----------------------
   0 C :    0.002758
   1 O :    0.004823
   2 H :   -0.011962
   3 H :   -0.000549
   4 H :   -0.000360
   5 H :   -0.005847
   6 C :   -0.139039
   7 O :   -0.506963
   8 H :    0.316713
   9 H :    0.124320
  10 H :    0.107255
  11 H :    0.108852
Sum of atomic charges:    0.0000000

LOEWDIN ATOMIC CHARGES
----------------------
   0 C :   -0.009167
   1 O :   -0.013774
   2 H :   -0.022567
   3 H :   -0.000141
   4 H :   -0.000190
   5 H :   -0.004235
   6 C :   -0.351169
   7 O :   -0.068642
   8 H :    0.163596
   9 H :    0.119231
  10 H :    0.095105
  11 H :    0.091954

  Mayer bond orders larger than 0.1
B(  6-C ,  7-O ) :   0.9640 B(  6-C ,  9-H ) :   0.9728 B(  6-C , 10-H ) :   0.9745
B(  6-C , 11-H ) :   0.9785 B(  7-O ,  8-H ) :   0.8904

Dispersion correction           -0.000258195
FINAL SINGLE POINT ENERGY      -115.732945880786

DIPOLE MOMENT
-------------
                                X             Y             Z
Electronic contribution:     -1.14347       1.08816      -0.39930
Nuclear contribution   :      1.28937      -1.63047       0.02600
                        -----------------------------------------
Total Dipole Moment    :      0.14590      -0.54231      -0.37330
                        -----------------------------------------
Magnitude (a.u.)       :      0.67434
Magnitude (Debye)      :      1.71405

Rotational constants in cm-1:     4.315537     0.802012     0.775789
Rotational constants in MHz : 129376.557473 24043.700911 23257.554924

                             ****ORCA TERMINATED NORMALLY****
TOTAL RUN TIME: 0 days 0 hours 1 minutes 13 seconds 111 msec
