                         Program Version 4.1.2  - RELEASE  -
|  1> #Run DFT-D3 single point of the dimer
|  2> ! wB97X-D3 def2-TZVP TIGHTSCF CHELPG PMODEL PAL8
|  3>
|  4> %base "18-189_DFT_AB"
|  5>
|  6> %scf
|  7> MaxIter 1000
|  8> end
|  9>
| 10> * xyz 0 1
| 11>   C                      5.252981             -0.803003            7.182503
| 12>   O                      5.599119             -0.796855            5.796567
| 13>   H                      4.741925             -0.668005            5.308270
| 14>   H                      5.988763             -1.259529            7.777616
| 15>   H                      5.132993             0.267707             7.477022
| 16>   H                      4.233948             -1.214135            7.383336
| 17>   C                      8.421190             1.028016             5.687879
| 18>   O                      8.383752             -0.244949            5.106068
| 19>   H                      7.462672             -0.245862            4.804727
| 20>   H                      9.285839             1.134991             6.240488
| 21>   H                      8.316216             1.900837             5.046537
| 22>   H                      7.621045             1.036768             6.430238
| 23> *
| 24>
| 25> #Run DFT-D3 single point of the molecule with dimer basis set
| 26> $new_job
| 27> %base "18-189_DFT_A"
| 28> ! wB97X-D3 def2-TZVP TIGHTSCF CHELPG PMODEL
| 29>
| 30> %scf
| 31> MaxIter 1000
| 32> end
| 33>
| 34> * xyz 0 1
| 35>   C                      5.252981             -0.803003            7.182503
| 36>   O                      5.599119             -0.796855            5.796567
| 37>   H                      4.741925             -0.668005            5.308270
| 38>   H                      5.988763             -1.259529            7.777616
| 39>   H                      5.132993             0.267707             7.477022
| 40>   H                      4.233948             -1.214135            7.383336
| 41>   C                    : 8.421190             1.028016             5.687879
| 42>   O                    : 8.383752             -0.244949            5.106068
| 43>   H                    : 7.462672             -0.245862            4.804727
| 44>   H                    : 9.285839             1.134991             6.240488
| 45>   H                    : 8.316216             1.900837             5.046537
| 46>   H                    : 7.621045             1.036768             6.430238
| 47> *
| 48>
| 49> #Run DFT-D3 single point of the particle with dimer basis set
| 50> $new_job
| 51> %base "18-189_DFT_B"
| 52> ! wB97X-D3 def2-TZVP TIGHTSCF CHELPG PMODEL
| 53>
| 54> %scf
| 55> MaxIter 1000
| 56> end
| 57>
| 58> * xyz 0 1
| 59>   C                    : 5.252981             -0.803003            7.182503
| 60>   O                    : 5.599119             -0.796855            5.796567
| 61>   H                    : 4.741925             -0.668005            5.308270
| 62>   H                    : 5.988763             -1.259529            7.777616
| 63>   H                    : 5.132993             0.267707             7.477022
| 64>   H                    : 4.233948             -1.214135            7.383336
| 65>   C                      8.421190             1.028016             5.687879
| 66>   O                      8.383752             -0.244949            5.106068
| 67>   H                      7.462672             -0.245862            4.804727
| 68>   H                      9.285839             1.134991             6.240488
| 69>   H                      8.316216             1.900837             5.046537
| 70>   H                      7.621045             1.036768             6.430238
| 71> *
| 72>
| 73>                          ****END OF INPUT****
 Total Charge           Charge          ....    0
 Multiplicity           Mult            ....    1
 Number of Electrons    NEL             ....   36
Dispersion correction           -0.002012822
FINAL SINGLE POINT ENERGY      -231.466499037547
Dispersion correction           -0.000237328
FINAL SINGLE POINT ENERGY      -115.731275149368

CARTESIAN COORDINATES (ANGSTROEM)
---------------------------------
  C      5.252981   -0.803003    7.182503
  O      5.599119   -0.796855    5.796567
  H      4.741925   -0.668005    5.308270
  H      5.988763   -1.259529    7.777616
  H      5.132993    0.267707    7.477022
  H      4.233948   -1.214135    7.383336
  C      8.421190    1.028016    5.687879
  O      8.383752   -0.244949    5.106068
  H      7.462672   -0.245862    4.804727
  H      9.285839    1.134991    6.240488
  H      8.316216    1.900837    5.046537
  H      7.621045    1.036768    6.430238

 Multiplicity           Mult            ....    1
 Number of Electrons    NEL             ....   18
 Basis Dimension        Dim             ....  172

ORBITAL ENERGIES
----------------

  NO   OCC          E(Eh)            E(eV)
   0   2.0000     -19.235098      -523.4136
   1   2.0000     -10.304379      -280.3964
   2   2.0000      -1.146628       -31.2013
   3   2.0000      -0.797726       -21.7072
   4   2.0000      -0.612758       -16.6740
   5   2.0000      -0.548128       -14.9153
   6   2.0000      -0.533017       -14.5041
   7   2.0000      -0.443272       -12.0620
   8   2.0000      -0.374795       -10.1987
   9   0.0000       0.072244         1.9659
  10   0.0000       0.130836         3.5602
  11   0.0000       0.148151         4.0314
  12   0.0000       0.171697         4.6721
  13   0.0000       0.189975         5.1695

MULLIKEN ATOMIC CHARGES
-----------------------
   0 C :    0.001971
   1 O :   -0.004951
   2 H :   -0.000325
   3 H :   -0.000643
   4 H :   -0.001270
   5 H :    0.000096
   6 C :   -0.169598
   7 O :   -0.454083
   8 H :    0.315428
   9 H :    0.119639
  10 H :    0.103382
  11 H :    0.090355
Sum of atomic charges:   -0.0000000

LOEWDIN ATOMIC CHARGES
----------------------
   0 C :   -0.004999
   1 O :   -0.013385
   2 H :   -0.000731
   3 H :   -0.000456
   4 H :   -0.001213
   5 H :   -0.000040
   6 C :   -0.393051
   7 O :   -0.055880
   8 H :    0.183706
   9 H :    0.094043
  10 H :    0.093974
  11 H :    0.098032

  Mayer bond orders larger than 0.1
B(  6-C ,  7-O ) :   1.0082 B(  6-C ,  9-H ) :   0.9770 B(  6-C , 10-H ) :   0.9736
B(  6-C , 11-H ) :   0.9887 B(  7-O ,  8-H ) :   0.9065

Dispersion correction           -0.000206523
FINAL SINGLE POINT ENERGY      -115.729514163270

DIPOLE MOMENT
-------------
                                X             Y             Z
Electronic contribution:      0.23340      -1.66837      -0.84082
Nuclear contribution   :     -0.74895       2.14195       0.89774
                        -----------------------------------------
Total Dipole Moment    :     -0.51555       0.47358       0.05692
                        -----------------------------------------
Magnitude (a.u.)       :      0.70236
Magnitude (Debye)      :      1.78526

Rotational constants in cm-1:     4.395168     0.856376     0.827562
Rotational constants in MHz : 131763.832270 25673.510529 24809.689971

                             ****ORCA TERMINATED NORMALLY****
TOTAL RUN TIME: 0 days 0 hours 1 minutes 5 seconds 771 msec
