                         Program Version 4.1.2  - RELEASE  -
|  1> #Run DFT-D3 single point of the dimer
|  2> ! wB97X-D3 def2-TZVP TIGHTSCF CHELPG PMODEL PAL8
|  3>
|  4> %base "12-108_DFT_AB"
|  5>
|  6> %scf
|  7> MaxIter 1000
|  8> end
|  9>
| 10> * xyz 0 1
| 11>   C                      0.660958             5.234501             6.568248
| 12>   O                      1.793988             4.917370             7.403906
| 13>   H                      1.654328             3.934204             7.551554
| 14>   H                      0.805839             4.909714             5.553898
| 15>   H                      -0.204570            4.628391             6.807331
| 16>   H                      0.475641             6.293078             6.607980
| 17>   C                      2.788778             7.113822             10.181854
| 18>   O                      3.801655             6.976364             9.220775
| 19>   H                      4.465584             6.400968             9.529224
| 20>   H                      2.109126             6.241315             10.280435
| 21>   H                      3.263922             7.233564             11.141851
| 22>   H                      2.128043             7.959936             9.959660
| 23> *
| 24>
| 25> #Run DFT-D3 single point of the molecule with dimer basis set
| 26> $new_job
| 27> %base "12-108_DFT_A"
| 28> ! wB97X-D3 def2-TZVP TIGHTSCF CHELPG PMODEL
| 29>
| 30> %scf
| 31> MaxIter 1000
| 32> end
| 33>
| 34> * xyz 0 1
| 35>   C                      0.660958             5.234501             6.568248
| 36>   O                      1.793988             4.917370             7.403906
| 37>   H                      1.654328             3.934204             7.551554
| 38>   H                      0.805839             4.909714             5.553898
| 39>   H                      -0.204570            4.628391             6.807331
| 40>   H                      0.475641             6.293078             6.607980
| 41>   C                    : 2.788778             7.113822             10.181854
| 42>   O                    : 3.801655             6.976364             9.220775
| 43>   H                    : 4.465584             6.400968             9.529224
| 44>   H                    : 2.109126             6.241315             10.280435
| 45>   H                    : 3.263922             7.233564             11.141851
| 46>   H                    : 2.128043             7.959936             9.959660
| 47> *
| 48>
| 49> #Run DFT-D3 single point of the particle with dimer basis set
| 50> $new_job
| 51> %base "12-108_DFT_B"
| 52> ! wB97X-D3 def2-TZVP TIGHTSCF CHELPG PMODEL
| 53>
| 54> %scf
| 55> MaxIter 1000
| 56> end
| 57>
| 58> * xyz 0 1
| 59>   C                    : 0.660958             5.234501             6.568248
| 60>   O                    : 1.793988             4.917370             7.403906
| 61>   H                    : 1.654328             3.934204             7.551554
| 62>   H                    : 0.805839             4.909714             5.553898
| 63>   H                    : -0.204570            4.628391             6.807331
| 64>   H                    : 0.475641             6.293078             6.607980
| 65>   C                      2.788778             7.113822             10.181854
| 66>   O                      3.801655             6.976364             9.220775
| 67>   H                      4.465584             6.400968             9.529224
| 68>   H                      2.109126             6.241315             10.280435
| 69>   H                      3.263922             7.233564             11.141851
| 70>   H                      2.128043             7.959936             9.959660
| 71> *
| 72>
| 73>                          ****END OF INPUT****
 Total Charge           Charge          ....    0
 Multiplicity           Mult            ....    1
 Number of Electrons    NEL             ....   36
Dispersion correction           -0.001354895
FINAL SINGLE POINT ENERGY      -231.463035759261
Dispersion correction           -0.000230112
FINAL SINGLE POINT ENERGY      -115.729979486590

CARTESIAN COORDINATES (ANGSTROEM)
---------------------------------
  C      0.660958    5.234501    6.568248
  O      1.793988    4.917370    7.403906
  H      1.654328    3.934204    7.551554
  H      0.805839    4.909714    5.553898
  H     -0.204570    4.628391    6.807331
  H      0.475641    6.293078    6.607980
  C      2.788778    7.113822   10.181854
  O      3.801655    6.976364    9.220775
  H      4.465584    6.400968    9.529224
  H      2.109126    6.241315   10.280435
  H      3.263922    7.233564   11.141851
  H      2.128043    7.959936    9.959660

 Multiplicity           Mult            ....    1
 Number of Electrons    NEL             ....   18
 Basis Dimension        Dim             ....  172

ORBITAL ENERGIES
----------------

  NO   OCC          E(Eh)            E(eV)
   0   2.0000     -19.227105      -523.1961
   1   2.0000     -10.312969      -280.6301
   2   2.0000      -1.144371       -31.1399
   3   2.0000      -0.798995       -21.7418
   4   2.0000      -0.618635       -16.8339
   5   2.0000      -0.543702       -14.7949
   6   2.0000      -0.529420       -14.4062
   7   2.0000      -0.432591       -11.7714
   8   2.0000      -0.372218       -10.1286
   9   0.0000       0.087894         2.3917
  10   0.0000       0.121709         3.3119
  11   0.0000       0.154111         4.1936
  12   0.0000       0.168107         4.5744
  13   0.0000       0.193064         5.2535

MULLIKEN ATOMIC CHARGES
-----------------------
   0 C :   -0.000400
   1 O :   -0.000735
   2 H :   -0.000109
   3 H :    0.000026
   4 H :   -0.000044
   5 H :   -0.000025
   6 C :   -0.162637
   7 O :   -0.471653
   8 H :    0.311464
   9 H :    0.097673
  10 H :    0.105283
  11 H :    0.121157
Sum of atomic charges:   -0.0000000

LOEWDIN ATOMIC CHARGES
----------------------
   0 C :   -0.000447
   1 O :   -0.002528
   2 H :   -0.000169
   3 H :   -0.000003
   4 H :   -0.000013
   5 H :   -0.000047
   6 C :   -0.391187
   7 O :   -0.053618
   8 H :    0.150659
   9 H :    0.094841
  10 H :    0.092896
  11 H :    0.109615

  Mayer bond orders larger than 0.1
B(  6-C ,  7-O ) :   0.9941 B(  6-C ,  9-H ) :   0.9703 B(  6-C , 10-H ) :   0.9864
B(  6-C , 11-H ) :   0.9737 B(  7-O ,  8-H ) :   0.9038

Dispersion correction           -0.000238967
FINAL SINGLE POINT ENERGY      -115.734451092061

DIPOLE MOMENT
-------------
                                X             Y             Z
Electronic contribution:      1.26894      -0.05375      -1.34918
Nuclear contribution   :     -1.22520      -0.25123       1.94435
                        -----------------------------------------
Total Dipole Moment    :      0.04374      -0.30498       0.59516
                        -----------------------------------------
Magnitude (a.u.)       :      0.67018
Magnitude (Debye)      :      1.70346

Rotational constants in cm-1:     4.417692     0.838872     0.807034
Rotational constants in MHz : 132439.071103 25148.735778 24194.285003

                             ****ORCA TERMINATED NORMALLY****
TOTAL RUN TIME: 0 days 0 hours 0 minutes 59 seconds 896 msec
