                         Program Version 4.1.2  - RELEASE  -
|  1> #Run DFT-D3 single point of the dimer
|  2> ! wB97X-D3 def2-TZVP TIGHTSCF CHELPG PMODEL PAL8
|  3>
|  4> %base "21-182_DFT_AB"
|  5>
|  6> %scf
|  7> MaxIter 1000
|  8> end
|  9>
| 10> * xyz 0 1
| 11>   C                      -0.209073            7.246687             3.659188
| 12>   O                      -1.346885            8.025318             3.141750
| 13>   H                      -1.003598            8.635182             2.472548
| 14>   H                      0.609450             7.974867             3.989157
| 15>   H                      -0.527729            6.725133             4.575650
| 16>   H                      0.160751             6.566100             2.895262
| 17>   C                      1.064836             10.403060            1.959708
| 18>   O                      0.921461             9.305629             1.099116
| 19>   H                      1.660101             8.748959             1.207532
| 20>   H                      1.417389             10.046724            2.966692
| 21>   H                      1.741924             11.090266            1.572753
| 22>   H                      0.205987             11.068615            2.164938
| 23> *
| 24>
| 25> #Run DFT-D3 single point of the molecule with dimer basis set
| 26> $new_job
| 27> %base "21-182_DFT_A"
| 28> ! wB97X-D3 def2-TZVP TIGHTSCF CHELPG PMODEL
| 29>
| 30> %scf
| 31> MaxIter 1000
| 32> end
| 33>
| 34> * xyz 0 1
| 35>   C                      -0.209073            7.246687             3.659188
| 36>   O                      -1.346885            8.025318             3.141750
| 37>   H                      -1.003598            8.635182             2.472548
| 38>   H                      0.609450             7.974867             3.989157
| 39>   H                      -0.527729            6.725133             4.575650
| 40>   H                      0.160751             6.566100             2.895262
| 41>   C                    : 1.064836             10.403060            1.959708
| 42>   O                    : 0.921461             9.305629             1.099116
| 43>   H                    : 1.660101             8.748959             1.207532
| 44>   H                    : 1.417389             10.046724            2.966692
| 45>   H                    : 1.741924             11.090266            1.572753
| 46>   H                    : 0.205987             11.068615            2.164938
| 47> *
| 48>
| 49> #Run DFT-D3 single point of the particle with dimer basis set
| 50> $new_job
| 51> %base "21-182_DFT_B"
| 52> ! wB97X-D3 def2-TZVP TIGHTSCF CHELPG PMODEL
| 53>
| 54> %scf
| 55> MaxIter 1000
| 56> end
| 57>
| 58> * xyz 0 1
| 59>   C                    : -0.209073            7.246687             3.659188
| 60>   O                    : -1.346885            8.025318             3.141750
| 61>   H                    : -1.003598            8.635182             2.472548
| 62>   H                    : 0.609450             7.974867             3.989157
| 63>   H                    : -0.527729            6.725133             4.575650
| 64>   H                    : 0.160751             6.566100             2.895262
| 65>   C                      1.064836             10.403060            1.959708
| 66>   O                      0.921461             9.305629             1.099116
| 67>   H                      1.660101             8.748959             1.207532
| 68>   H                      1.417389             10.046724            2.966692
| 69>   H                      1.741924             11.090266            1.572753
| 70>   H                      0.205987             11.068615            2.164938
| 71> *
| 72>
| 73>                          ****END OF INPUT****
 Total Charge           Charge          ....    0
 Multiplicity           Mult            ....    1
 Number of Electrons    NEL             ....   36
Dispersion correction           -0.002382671
FINAL SINGLE POINT ENERGY      -231.466872660433
Dispersion correction           -0.000262623
FINAL SINGLE POINT ENERGY      -115.733629095441

CARTESIAN COORDINATES (ANGSTROEM)
---------------------------------
  C     -0.209073    7.246687    3.659188
  O     -1.346885    8.025318    3.141750
  H     -1.003598    8.635182    2.472548
  H      0.609450    7.974867    3.989157
  H     -0.527729    6.725133    4.575650
  H      0.160751    6.566100    2.895262
  C      1.064836   10.403060    1.959708
  O      0.921461    9.305629    1.099116
  H      1.660101    8.748959    1.207532
  H      1.417389   10.046724    2.966692
  H      1.741924   11.090266    1.572753
  H      0.205987   11.068615    2.164938

 Multiplicity           Mult            ....    1
 Number of Electrons    NEL             ....   18
 Basis Dimension        Dim             ....  172

ORBITAL ENERGIES
----------------

  NO   OCC          E(Eh)            E(eV)
   0   2.0000     -19.229636      -523.2650
   1   2.0000     -10.312085      -280.6061
   2   2.0000      -1.146818       -31.2065
   3   2.0000      -0.801948       -21.8221
   4   2.0000      -0.617124       -16.7928
   5   2.0000      -0.549118       -14.9423
   6   2.0000      -0.534111       -14.5339
   7   2.0000      -0.426203       -11.5976
   8   2.0000      -0.375434       -10.2161
   9   0.0000       0.088594         2.4108
  10   0.0000       0.136350         3.7103
  11   0.0000       0.147205         4.0056
  12   0.0000       0.173978         4.7342
  13   0.0000       0.196628         5.3505

MULLIKEN ATOMIC CHARGES
-----------------------
   0 C :   -0.007444
   1 O :    0.001236
   2 H :   -0.001042
   3 H :    0.001431
   4 H :   -0.000465
   5 H :   -0.000854
   6 C :   -0.177466
   7 O :   -0.467232
   8 H :    0.315941
   9 H :    0.095087
  10 H :    0.119597
  11 H :    0.121209
Sum of atomic charges:    0.0000000

LOEWDIN ATOMIC CHARGES
----------------------
   0 C :   -0.007718
   1 O :   -0.001274
   2 H :   -0.011668
   3 H :   -0.003076
   4 H :   -0.000140
   5 H :   -0.001245
   6 C :   -0.390583
   7 O :   -0.039736
   8 H :    0.154810
   9 H :    0.102876
  10 H :    0.084687
  11 H :    0.113068

  Mayer bond orders larger than 0.1
B(  6-C ,  7-O ) :   0.9790 B(  6-C ,  9-H ) :   0.9859 B(  6-C , 10-H ) :   0.9790
B(  6-C , 11-H ) :   0.9727 B(  7-O ,  8-H ) :   0.9004

Dispersion correction           -0.000235713
FINAL SINGLE POINT ENERGY      -115.728001501472

DIPOLE MOMENT
-------------
                                X             Y             Z
Electronic contribution:     -0.35229      -1.39798      -1.27674
Nuclear contribution   :      0.89549       1.50915       1.66609
                        -----------------------------------------
Total Dipole Moment    :      0.54320       0.11116       0.38935
                        -----------------------------------------
Magnitude (a.u.)       :      0.67751
Magnitude (Debye)      :      1.72209

Rotational constants in cm-1:     4.554110     0.834230     0.803698
Rotational constants in MHz : 136528.791539 25009.586418 24094.274877

                             ****ORCA TERMINATED NORMALLY****
TOTAL RUN TIME: 0 days 0 hours 1 minutes 8 seconds 750 msec
