                         Program Version 4.1.2  - RELEASE  -
|  1> #Run DFT-D3 single point of the dimer
|  2> ! wB97X-D3 def2-TZVP TIGHTSCF CHELPG PMODEL PAL8
|  3>
|  4> %base "8-31_DFT_AB"
|  5>
|  6> %scf
|  7> MaxIter 1000
|  8> end
|  9>
| 10> * xyz 0 1
| 11>   C                      1.242681             -1.490844            -1.242399
| 12>   O                      2.017750             -2.223303            -0.392427
| 13>   H                      2.854270             -2.385998            -0.915143
| 14>   H                      0.235646             -1.382705            -0.890573
| 15>   H                      1.563453             -0.460555            -1.422829
| 16>   H                      1.015853             -1.921014            -2.215583
| 17>   C                      3.730995             2.317189             -1.471593
| 18>   O                      3.017207             2.651686             -0.297520
| 19>   H                      2.945211             1.813269             0.187518
| 20>   H                      4.037266             3.179614             -2.126624
| 21>   H                      4.642441             1.821646             -1.217812
| 22>   H                      3.195638             1.613887             -2.159709
| 23> *
| 24>
| 25> #Run DFT-D3 single point of the molecule with dimer basis set
| 26> $new_job
| 27> %base "8-31_DFT_A"
| 28> ! wB97X-D3 def2-TZVP TIGHTSCF CHELPG PMODEL
| 29>
| 30> %scf
| 31> MaxIter 1000
| 32> end
| 33>
| 34> * xyz 0 1
| 35>   C                      1.242681             -1.490844            -1.242399
| 36>   O                      2.017750             -2.223303            -0.392427
| 37>   H                      2.854270             -2.385998            -0.915143
| 38>   H                      0.235646             -1.382705            -0.890573
| 39>   H                      1.563453             -0.460555            -1.422829
| 40>   H                      1.015853             -1.921014            -2.215583
| 41>   C                    : 3.730995             2.317189             -1.471593
| 42>   O                    : 3.017207             2.651686             -0.297520
| 43>   H                    : 2.945211             1.813269             0.187518
| 44>   H                    : 4.037266             3.179614             -2.126624
| 45>   H                    : 4.642441             1.821646             -1.217812
| 46>   H                    : 3.195638             1.613887             -2.159709
| 47> *
| 48>
| 49> #Run DFT-D3 single point of the particle with dimer basis set
| 50> $new_job
| 51> %base "8-31_DFT_B"
| 52> ! wB97X-D3 def2-TZVP TIGHTSCF CHELPG PMODEL
| 53>
| 54> %scf
| 55> MaxIter 1000
| 56> end
| 57>
| 58> * xyz 0 1
| 59>   C                    : 1.242681             -1.490844            -1.242399
| 60>   O                    : 2.017750             -2.223303            -0.392427
| 61>   H                    : 2.854270             -2.385998            -0.915143
| 62>   H                    : 0.235646             -1.382705            -0.890573
| 63>   H                    : 1.563453             -0.460555            -1.422829
| 64>   H                    : 1.015853             -1.921014            -2.215583
| 65>   C                      3.730995             2.317189             -1.471593
| 66>   O                      3.017207             2.651686             -0.297520
| 67>   H                      2.945211             1.813269             0.187518
| 68>   H                      4.037266             3.179614             -2.126624
| 69>   H                      4.642441             1.821646             -1.217812
| 70>   H                      3.195638             1.613887             -2.159709
| 71> *
| 72>
| 73>                          ****END OF INPUT****
 Total Charge           Charge          ....    0
 Multiplicity           Mult            ....    1
 Number of Electrons    NEL             ....   36
Dispersion correction           -0.001246188
FINAL SINGLE POINT ENERGY      -231.463385732571
Dispersion correction           -0.000235095
FINAL SINGLE POINT ENERGY      -115.729745097917

CARTESIAN COORDINATES (ANGSTROEM)
---------------------------------
  C      1.242681   -1.490844   -1.242399
  O      2.017750   -2.223303   -0.392427
  H      2.854270   -2.385998   -0.915143
  H      0.235646   -1.382705   -0.890573
  H      1.563453   -0.460555   -1.422829
  H      1.015853   -1.921014   -2.215583
  C      3.730995    2.317189   -1.471593
  O      3.017207    2.651686   -0.297520
  H      2.945211    1.813269    0.187518
  H      4.037266    3.179614   -2.126624
  H      4.642441    1.821646   -1.217812
  H      3.195638    1.613887   -2.159709

 Multiplicity           Mult            ....    1
 Number of Electrons    NEL             ....   18
 Basis Dimension        Dim             ....  172

ORBITAL ENERGIES
----------------

  NO   OCC          E(Eh)            E(eV)
   0   2.0000     -19.235906      -523.4356
   1   2.0000     -10.316778      -280.7338
   2   2.0000      -1.138425       -30.9781
   3   2.0000      -0.792505       -21.5652
   4   2.0000      -0.611445       -16.6383
   5   2.0000      -0.538883       -14.6638
   6   2.0000      -0.527691       -14.3592
   7   2.0000      -0.435464       -11.8496
   8   2.0000      -0.374415       -10.1883
   9   0.0000       0.075503         2.0545
  10   0.0000       0.122306         3.3281
  11   0.0000       0.147159         4.0044
  12   0.0000       0.159665         4.3447
  13   0.0000       0.187546         5.1034

MULLIKEN ATOMIC CHARGES
-----------------------
   0 C :   -0.001783
   1 O :    0.000017
   2 H :   -0.000001
   3 H :    0.000001
   4 H :    0.002143
   5 H :    0.000191
   6 C :   -0.182833
   7 O :   -0.464724
   8 H :    0.318313
   9 H :    0.124019
  10 H :    0.108493
  11 H :    0.096162
Sum of atomic charges:    0.0000000

LOEWDIN ATOMIC CHARGES
----------------------
   0 C :   -0.000823
   1 O :   -0.000009
   2 H :   -0.000010
   3 H :   -0.000005
   4 H :   -0.001509
   5 H :   -0.000008
   6 C :   -0.398679
   7 O :   -0.078597
   8 H :    0.179626
   9 H :    0.114996
  10 H :    0.088684
  11 H :    0.096334

  Mayer bond orders larger than 0.1
B(  6-C ,  7-O ) :   1.0044 B(  6-C ,  9-H ) :   0.9727 B(  6-C , 10-H ) :   0.9824
B(  6-C , 11-H ) :   0.9696 B(  7-O ,  8-H ) :   0.8970

Dispersion correction           -0.000244687
FINAL SINGLE POINT ENERGY      -115.732580719421

DIPOLE MOMENT
-------------
                                X             Y             Z
Electronic contribution:     -0.99230       0.66501       1.58170
Nuclear contribution   :      1.24742      -1.31309      -1.72426
                        -----------------------------------------
Total Dipole Moment    :      0.25512      -0.64807      -0.14256
                        -----------------------------------------
Magnitude (a.u.)       :      0.71092
Magnitude (Debye)      :      1.80701

Rotational constants in cm-1:     4.324998     0.822580     0.789909
Rotational constants in MHz : 129660.174321 24660.340986 23680.889639

                             ****ORCA TERMINATED NORMALLY****
TOTAL RUN TIME: 0 days 0 hours 0 minutes 42 seconds 177 msec
