                         Program Version 4.1.2  - RELEASE  -
|  1> #Run DFT-D3 single point of the dimer
|  2> ! wB97X-D3 def2-TZVP TIGHTSCF CHELPG PMODEL PAL8
|  3>
|  4> %base "3-80_DFT_AB"
|  5>
|  6> %scf
|  7> MaxIter 1000
|  8> end
|  9>
| 10> * xyz 0 1
| 11>   C                      -4.944868            -6.379908            -6.736573
| 12>   O                      -6.142319            -5.643729            -6.610150
| 13>   H                      -6.328640            -5.442620            -7.501184
| 14>   H                      -4.130525            -5.985907            -6.044649
| 15>   H                      -5.172011            -7.357734            -6.328079
| 16>   H                      -4.478197            -6.584611            -7.685240
| 17>   C                      -4.685835            -4.218706            -1.905755
| 18>   O                      -5.620403            -4.875687            -1.045612
| 19>   H                      -6.175920            -5.416958            -1.549472
| 20>   H                      -3.776749            -4.781768            -1.666579
| 21>   H                      -4.911927            -4.250010            -2.974445
| 22>   H                      -4.583469            -3.144852            -1.605303
| 23> *
| 24>
| 25> #Run DFT-D3 single point of the molecule with dimer basis set
| 26> $new_job
| 27> %base "3-80_DFT_A"
| 28> ! wB97X-D3 def2-TZVP TIGHTSCF CHELPG PMODEL
| 29>
| 30> %scf
| 31> MaxIter 1000
| 32> end
| 33>
| 34> * xyz 0 1
| 35>   C                      -4.944868            -6.379908            -6.736573
| 36>   O                      -6.142319            -5.643729            -6.610150
| 37>   H                      -6.328640            -5.442620            -7.501184
| 38>   H                      -4.130525            -5.985907            -6.044649
| 39>   H                      -5.172011            -7.357734            -6.328079
| 40>   H                      -4.478197            -6.584611            -7.685240
| 41>   C                    : -4.685835            -4.218706            -1.905755
| 42>   O                    : -5.620403            -4.875687            -1.045612
| 43>   H                    : -6.175920            -5.416958            -1.549472
| 44>   H                    : -3.776749            -4.781768            -1.666579
| 45>   H                    : -4.911927            -4.250010            -2.974445
| 46>   H                    : -4.583469            -3.144852            -1.605303
| 47> *
| 48>
| 49> #Run DFT-D3 single point of the particle with dimer basis set
| 50> $new_job
| 51> %base "3-80_DFT_B"
| 52> ! wB97X-D3 def2-TZVP TIGHTSCF CHELPG PMODEL
| 53>
| 54> %scf
| 55> MaxIter 1000
| 56> end
| 57>
| 58> * xyz 0 1
| 59>   C                    : -4.944868            -6.379908            -6.736573
| 60>   O                    : -6.142319            -5.643729            -6.610150
| 61>   H                    : -6.328640            -5.442620            -7.501184
| 62>   H                    : -4.130525            -5.985907            -6.044649
| 63>   H                    : -5.172011            -7.357734            -6.328079
| 64>   H                    : -4.478197            -6.584611            -7.685240
| 65>   C                      -4.685835            -4.218706            -1.905755
| 66>   O                      -5.620403            -4.875687            -1.045612
| 67>   H                      -6.175920            -5.416958            -1.549472
| 68>   H                      -3.776749            -4.781768            -1.666579
| 69>   H                      -4.911927            -4.250010            -2.974445
| 70>   H                      -4.583469            -3.144852            -1.605303
| 71> *
| 72>
| 73>                          ****END OF INPUT****
 Total Charge           Charge          ....    0
 Multiplicity           Mult            ....    1
 Number of Electrons    NEL             ....   36
Dispersion correction           -0.000788631
FINAL SINGLE POINT ENERGY      -231.458225766245
Dispersion correction           -0.000252383
FINAL SINGLE POINT ENERGY      -115.726784139857

CARTESIAN COORDINATES (ANGSTROEM)
---------------------------------
  C     -4.944868   -6.379908   -6.736573
  O     -6.142319   -5.643729   -6.610150
  H     -6.328640   -5.442620   -7.501184
  H     -4.130525   -5.985907   -6.044649
  H     -5.172011   -7.357734   -6.328079
  H     -4.478197   -6.584611   -7.685240
  C     -4.685835   -4.218706   -1.905755
  O     -5.620403   -4.875687   -1.045612
  H     -6.175920   -5.416958   -1.549472
  H     -3.776749   -4.781768   -1.666579
  H     -4.911927   -4.250010   -2.974445
  H     -4.583469   -3.144852   -1.605303

 Multiplicity           Mult            ....    1
 Number of Electrons    NEL             ....   18
 Basis Dimension        Dim             ....  172

ORBITAL ENERGIES
----------------

  NO   OCC          E(Eh)            E(eV)
   0   2.0000     -19.222605      -523.0737
   1   2.0000     -10.316384      -280.7231
   2   2.0000      -1.136442       -30.9242
   3   2.0000      -0.796183       -21.6652
   4   2.0000      -0.612577       -16.6691
   5   2.0000      -0.542293       -14.7565
   6   2.0000      -0.517767       -14.0892
   7   2.0000      -0.437675       -11.9097
   8   2.0000      -0.369314       -10.0495
   9   0.0000       0.078165         2.1270
  10   0.0000       0.118532         3.2254
  11   0.0000       0.151011         4.1092
  12   0.0000       0.163499         4.4490
  13   0.0000       0.176957         4.8152

MULLIKEN ATOMIC CHARGES
-----------------------
   0 C :    0.000102
   1 O :   -0.000020
   2 H :   -0.000002
   3 H :   -0.000171
   4 H :   -0.000019
   5 H :   -0.000000
   6 C :   -0.176673
   7 O :   -0.473353
   8 H :    0.306552
   9 H :    0.115235
  10 H :    0.113663
  11 H :    0.114687
Sum of atomic charges:   -0.0000000

LOEWDIN ATOMIC CHARGES
----------------------
   0 C :   -0.000125
   1 O :   -0.000022
   2 H :   -0.000002
   3 H :   -0.000165
   4 H :   -0.000003
   5 H :   -0.000001
   6 C :   -0.372683
   7 O :   -0.076934
   8 H :    0.141164
   9 H :    0.104003
  10 H :    0.095830
  11 H :    0.108938

  Mayer bond orders larger than 0.1
B(  6-C ,  7-O ) :   0.9873 B(  6-C ,  9-H ) :   0.9868 B(  6-C , 10-H ) :   0.9718
B(  6-C , 11-H ) :   0.9699 B(  7-O ,  8-H ) :   0.9099

Dispersion correction           -0.000245941
FINAL SINGLE POINT ENERGY      -115.730402249834

DIPOLE MOMENT
-------------
                                X             Y             Z
Electronic contribution:     -1.16472      -0.72974       1.04992
Nuclear contribution   :      1.16662       0.63703      -1.74697
                        -----------------------------------------
Total Dipole Moment    :      0.00190      -0.09271      -0.69704
                        -----------------------------------------
Magnitude (a.u.)       :      0.70318
Magnitude (Debye)      :      1.78735

Rotational constants in cm-1:     4.251637     0.820546     0.795518
Rotational constants in MHz : 127460.866542 24599.336858 23849.031440

                             ****ORCA TERMINATED NORMALLY****
TOTAL RUN TIME: 0 days 0 hours 6 minutes 16 seconds 399 msec
