                         Program Version 4.1.2  - RELEASE  -
|  1> #Run DFT-D3 single point of the dimer
|  2> ! wB97X-D3 def2-TZVP TIGHTSCF CHELPG PMODEL PAL8
|  3>
|  4> %base "7-146_DFT_AB"
|  5>
|  6> %scf
|  7> MaxIter 1000
|  8> end
|  9>
| 10> * xyz 0 1
| 11>   C                      3.721256             2.865454             0.278842
| 12>   O                      3.810652             4.224513             0.718855
| 13>   H                      3.847158             4.251311             1.654711
| 14>   H                      4.630489             2.337793             0.330650
| 15>   H                      3.118835             2.213713             0.975832
| 16>   H                      3.309772             2.784025             -0.718189
| 17>   C                      4.556806             5.347333             -2.628685
| 18>   O                      3.423993             5.475076             -1.851315
| 19>   H                      3.701064             5.189540             -1.017325
| 20>   H                      4.699981             6.061713             -3.358107
| 21>   H                      5.501978             5.323743             -2.028070
| 22>   H                      4.491684             4.380159             -3.170814
| 23> *
| 24>
| 25> #Run DFT-D3 single point of the molecule with dimer basis set
| 26> $new_job
| 27> %base "7-146_DFT_A"
| 28> ! wB97X-D3 def2-TZVP TIGHTSCF CHELPG PMODEL
| 29>
| 30> %scf
| 31> MaxIter 1000
| 32> end
| 33>
| 34> * xyz 0 1
| 35>   C                      3.721256             2.865454             0.278842
| 36>   O                      3.810652             4.224513             0.718855
| 37>   H                      3.847158             4.251311             1.654711
| 38>   H                      4.630489             2.337793             0.330650
| 39>   H                      3.118835             2.213713             0.975832
| 40>   H                      3.309772             2.784025             -0.718189
| 41>   C                    : 4.556806             5.347333             -2.628685
| 42>   O                    : 3.423993             5.475076             -1.851315
| 43>   H                    : 3.701064             5.189540             -1.017325
| 44>   H                    : 4.699981             6.061713             -3.358107
| 45>   H                    : 5.501978             5.323743             -2.028070
| 46>   H                    : 4.491684             4.380159             -3.170814
| 47> *
| 48>
| 49> #Run DFT-D3 single point of the particle with dimer basis set
| 50> $new_job
| 51> %base "7-146_DFT_B"
| 52> ! wB97X-D3 def2-TZVP TIGHTSCF CHELPG PMODEL
| 53>
| 54> %scf
| 55> MaxIter 1000
| 56> end
| 57>
| 58> * xyz 0 1
| 59>   C                    : 3.721256             2.865454             0.278842
| 60>   O                    : 3.810652             4.224513             0.718855
| 61>   H                    : 3.847158             4.251311             1.654711
| 62>   H                    : 4.630489             2.337793             0.330650
| 63>   H                    : 3.118835             2.213713             0.975832
| 64>   H                    : 3.309772             2.784025             -0.718189
| 65>   C                      4.556806             5.347333             -2.628685
| 66>   O                      3.423993             5.475076             -1.851315
| 67>   H                      3.701064             5.189540             -1.017325
| 68>   H                      4.699981             6.061713             -3.358107
| 69>   H                      5.501978             5.323743             -2.028070
| 70>   H                      4.491684             4.380159             -3.170814
| 71> *
| 72>
| 73>                          ****END OF INPUT****
 Total Charge           Charge          ....    0
 Multiplicity           Mult            ....    1
 Number of Electrons    NEL             ....   36
Dispersion correction           -0.001987791
FINAL SINGLE POINT ENERGY      -231.468128501597
Dispersion correction           -0.000256119
FINAL SINGLE POINT ENERGY      -115.731447632094

CARTESIAN COORDINATES (ANGSTROEM)
---------------------------------
  C      3.721256    2.865454    0.278842
  O      3.810652    4.224513    0.718855
  H      3.847158    4.251311    1.654711
  H      4.630489    2.337793    0.330650
  H      3.118835    2.213713    0.975832
  H      3.309772    2.784025   -0.718189
  C      4.556806    5.347333   -2.628685
  O      3.423993    5.475076   -1.851315
  H      3.701064    5.189540   -1.017325
  H      4.699981    6.061713   -3.358107
  H      5.501978    5.323743   -2.028070
  H      4.491684    4.380159   -3.170814

 Multiplicity           Mult            ....    1
 Number of Electrons    NEL             ....   18
 Basis Dimension        Dim             ....  172

ORBITAL ENERGIES
----------------

  NO   OCC          E(Eh)            E(eV)
   0   2.0000     -19.230582      -523.2907
   1   2.0000     -10.308663      -280.5130
   2   2.0000      -1.159457       -31.5504
   3   2.0000      -0.799785       -21.7633
   4   2.0000      -0.622310       -16.9339
   5   2.0000      -0.548974       -14.9383
   6   2.0000      -0.537122       -14.6158
   7   2.0000      -0.438719       -11.9381
   8   2.0000      -0.372479       -10.1357
   9   0.0000       0.072353         1.9688
  10   0.0000       0.136078         3.7029
  11   0.0000       0.146908         3.9976
  12   0.0000       0.169308         4.6071
  13   0.0000       0.191252         5.2042

MULLIKEN ATOMIC CHARGES
-----------------------
   0 C :   -0.001920
   1 O :   -0.002509
   2 H :   -0.000208
   3 H :   -0.000050
   4 H :   -0.000297
   5 H :   -0.004615
   6 C :   -0.174736
   7 O :   -0.443467
   8 H :    0.310793
   9 H :    0.124132
  10 H :    0.095587
  11 H :    0.097290
Sum of atomic charges:   -0.0000000

LOEWDIN ATOMIC CHARGES
----------------------
   0 C :   -0.008521
   1 O :   -0.015736
   2 H :   -0.000637
   3 H :   -0.000119
   4 H :   -0.000120
   5 H :   -0.003780
   6 C :   -0.405405
   7 O :   -0.015402
   8 H :    0.159375
   9 H :    0.088239
  10 H :    0.101978
  11 H :    0.100128

  Mayer bond orders larger than 0.1
B(  6-C ,  7-O ) :   1.0027 B(  6-C ,  9-H ) :   0.9751 B(  6-C , 10-H ) :   0.9869
B(  6-C , 11-H ) :   0.9806 B(  7-O ,  8-H ) :   0.9120

Dispersion correction           -0.000217889
FINAL SINGLE POINT ENERGY      -115.728863121403

DIPOLE MOMENT
-------------
                                X             Y             Z
Electronic contribution:     -1.65008       0.39577       0.91361
Nuclear contribution   :      2.25153      -0.59429      -0.68004
                        -----------------------------------------
Total Dipole Moment    :      0.60145      -0.19852       0.23358
                        -----------------------------------------
Magnitude (a.u.)       :      0.67507
Magnitude (Debye)      :      1.71588

Rotational constants in cm-1:     4.435714     0.868564     0.835981
Rotational constants in MHz : 132979.373017 26038.895949 25062.072166

                             ****ORCA TERMINATED NORMALLY****
TOTAL RUN TIME: 0 days 0 hours 1 minutes 10 seconds 328 msec
