                         Program Version 4.1.2  - RELEASE  -
|  1> #Run DFT-D3 single point of the dimer
|  2> ! wB97X-D3 def2-TZVP TIGHTSCF CHELPG PMODEL PAL8
|  3>
|  4> %base "12-156_DFT_AB"
|  5>
|  6> %scf
|  7> MaxIter 1000
|  8> end
|  9>
| 10> * xyz 0 1
| 11>   C                      -0.386517            7.473457             -7.189764
| 12>   O                      -1.456874            6.859022             -6.368077
| 13>   H                      -2.191042            7.459436             -6.201093
| 14>   H                      -0.620523            7.533396             -8.242037
| 15>   H                      -0.079154            8.434100             -6.840839
| 16>   H                      0.476425             6.832288             -7.105463
| 17>   C                      -1.886966            3.401750             -6.044239
| 18>   O                      -0.921737            4.078071             -6.853895
| 19>   H                      -0.892529            4.940198             -6.472396
| 20>   H                      -2.806686            4.015178             -6.070793
| 21>   H                      -2.034100            2.396483             -6.525987
| 22>   H                      -1.610210            3.299918             -5.032761
| 23> *
| 24>
| 25> #Run DFT-D3 single point of the molecule with dimer basis set
| 26> $new_job
| 27> %base "12-156_DFT_A"
| 28> ! wB97X-D3 def2-TZVP TIGHTSCF CHELPG PMODEL
| 29>
| 30> %scf
| 31> MaxIter 1000
| 32> end
| 33>
| 34> * xyz 0 1
| 35>   C                      -0.386517            7.473457             -7.189764
| 36>   O                      -1.456874            6.859022             -6.368077
| 37>   H                      -2.191042            7.459436             -6.201093
| 38>   H                      -0.620523            7.533396             -8.242037
| 39>   H                      -0.079154            8.434100             -6.840839
| 40>   H                      0.476425             6.832288             -7.105463
| 41>   C                    : -1.886966            3.401750             -6.044239
| 42>   O                    : -0.921737            4.078071             -6.853895
| 43>   H                    : -0.892529            4.940198             -6.472396
| 44>   H                    : -2.806686            4.015178             -6.070793
| 45>   H                    : -2.034100            2.396483             -6.525987
| 46>   H                    : -1.610210            3.299918             -5.032761
| 47> *
| 48>
| 49> #Run DFT-D3 single point of the particle with dimer basis set
| 50> $new_job
| 51> %base "12-156_DFT_B"
| 52> ! wB97X-D3 def2-TZVP TIGHTSCF CHELPG PMODEL
| 53>
| 54> %scf
| 55> MaxIter 1000
| 56> end
| 57>
| 58> * xyz 0 1
| 59>   C                    : -0.386517            7.473457             -7.189764
| 60>   O                    : -1.456874            6.859022             -6.368077
| 61>   H                    : -2.191042            7.459436             -6.201093
| 62>   H                    : -0.620523            7.533396             -8.242037
| 63>   H                    : -0.079154            8.434100             -6.840839
| 64>   H                    : 0.476425             6.832288             -7.105463
| 65>   C                      -1.886966            3.401750             -6.044239
| 66>   O                      -0.921737            4.078071             -6.853895
| 67>   H                      -0.892529            4.940198             -6.472396
| 68>   H                      -2.806686            4.015178             -6.070793
| 69>   H                      -2.034100            2.396483             -6.525987
| 70>   H                      -1.610210            3.299918             -5.032761
| 71> *
| 72>
| 73>                          ****END OF INPUT****
 Total Charge           Charge          ....    0
 Multiplicity           Mult            ....    1
 Number of Electrons    NEL             ....   36
Dispersion correction           -0.001838283
FINAL SINGLE POINT ENERGY      -231.473267075908
Dispersion correction           -0.000287978
FINAL SINGLE POINT ENERGY      -115.732837449312

CARTESIAN COORDINATES (ANGSTROEM)
---------------------------------
  C     -0.386517    7.473457   -7.189764
  O     -1.456874    6.859022   -6.368077
  H     -2.191042    7.459436   -6.201093
  H     -0.620523    7.533396   -8.242037
  H     -0.079154    8.434100   -6.840839
  H      0.476425    6.832288   -7.105463
  C     -1.886966    3.401750   -6.044239
  O     -0.921737    4.078071   -6.853895
  H     -0.892529    4.940198   -6.472396
  H     -2.806686    4.015178   -6.070793
  H     -2.034100    2.396483   -6.525987
  H     -1.610210    3.299918   -5.032761

 Multiplicity           Mult            ....    1
 Number of Electrons    NEL             ....   18
 Basis Dimension        Dim             ....  172

ORBITAL ENERGIES
----------------

  NO   OCC          E(Eh)            E(eV)
   0   2.0000     -19.228773      -523.2415
   1   2.0000     -10.314598      -280.6745
   2   2.0000      -1.138204       -30.9721
   3   2.0000      -0.794158       -21.6101
   4   2.0000      -0.612723       -16.6730
   5   2.0000      -0.544131       -14.8066
   6   2.0000      -0.518601       -14.1119
   7   2.0000      -0.443579       -12.0704
   8   2.0000      -0.374348       -10.1865
   9   0.0000       0.073668         2.0046
  10   0.0000       0.129169         3.5149
  11   0.0000       0.156645         4.2625
  12   0.0000       0.166147         4.5211
  13   0.0000       0.196036         5.3344

MULLIKEN ATOMIC CHARGES
-----------------------
   0 C :   -0.003051
   1 O :   -0.003970
   2 H :   -0.000228
   3 H :    0.000381
   4 H :    0.000112
   5 H :   -0.000939
   6 C :   -0.175682
   7 O :   -0.458093
   8 H :    0.306674
   9 H :    0.102744
  10 H :    0.120708
  11 H :    0.111345
Sum of atomic charges:    0.0000000

LOEWDIN ATOMIC CHARGES
----------------------
   0 C :   -0.007513
   1 O :   -0.017015
   2 H :   -0.000701
   3 H :   -0.000271
   4 H :   -0.000107
   5 H :   -0.001861
   6 C :   -0.369704
   7 O :   -0.068022
   8 H :    0.164351
   9 H :    0.098613
  10 H :    0.117497
  11 H :    0.084732

  Mayer bond orders larger than 0.1
B(  6-C ,  7-O ) :   0.9925 B(  6-C ,  9-H ) :   0.9823 B(  6-C , 10-H ) :   0.9741
B(  6-C , 11-H ) :   0.9713 B(  7-O ,  8-H ) :   0.9121

Dispersion correction           -0.000217446
FINAL SINGLE POINT ENERGY      -115.733405804962

DIPOLE MOMENT
-------------
                                X             Y             Z
Electronic contribution:      1.27233       0.66249      -1.00315
Nuclear contribution   :     -1.63399      -0.40591       1.57261
                        -----------------------------------------
Total Dipole Moment    :     -0.36166       0.25658       0.56945
                        -----------------------------------------
Magnitude (a.u.)       :      0.72174
Magnitude (Debye)      :      1.83452

Rotational constants in cm-1:     4.184061     0.835905     0.795999
Rotational constants in MHz : 125434.992252 25059.794149 23863.448427

                             ****ORCA TERMINATED NORMALLY****
TOTAL RUN TIME: 0 days 0 hours 1 minutes 16 seconds 603 msec
