                         Program Version 4.1.2  - RELEASE  -
|  1> #Run DFT-D3 single point of the dimer
|  2> ! wB97X-D3 def2-TZVP TIGHTSCF CHELPG PMODEL PAL8
|  3>
|  4> %base "19-151_DFT_AB"
|  5>
|  6> %scf
|  7> MaxIter 1000
|  8> end
|  9>
| 10> * xyz 0 1
| 11>   C                      7.674039             0.035445             7.558897
| 12>   O                      8.497836             -1.111017            7.348845
| 13>   H                      8.080656             -1.808521            6.818184
| 14>   H                      7.815197             0.376542             8.597976
| 15>   H                      7.876174             0.780799             6.758844
| 16>   H                      6.562464             -0.208771            7.573850
| 17>   C                      8.905412             3.723221             8.095253
| 18>   O                      7.644204             3.455748             8.700712
| 19>   H                      7.890491             2.887441             9.435179
| 20>   H                      9.317823             2.764151             7.637089
| 21>   H                      8.787449             4.390905             7.335888
| 22>   H                      9.649400             4.099344             8.856138
| 23> *
| 24>
| 25> #Run DFT-D3 single point of the molecule with dimer basis set
| 26> $new_job
| 27> %base "19-151_DFT_A"
| 28> ! wB97X-D3 def2-TZVP TIGHTSCF CHELPG PMODEL
| 29>
| 30> %scf
| 31> MaxIter 1000
| 32> end
| 33>
| 34> * xyz 0 1
| 35>   C                      7.674039             0.035445             7.558897
| 36>   O                      8.497836             -1.111017            7.348845
| 37>   H                      8.080656             -1.808521            6.818184
| 38>   H                      7.815197             0.376542             8.597976
| 39>   H                      7.876174             0.780799             6.758844
| 40>   H                      6.562464             -0.208771            7.573850
| 41>   C                    : 8.905412             3.723221             8.095253
| 42>   O                    : 7.644204             3.455748             8.700712
| 43>   H                    : 7.890491             2.887441             9.435179
| 44>   H                    : 9.317823             2.764151             7.637089
| 45>   H                    : 8.787449             4.390905             7.335888
| 46>   H                    : 9.649400             4.099344             8.856138
| 47> *
| 48>
| 49> #Run DFT-D3 single point of the particle with dimer basis set
| 50> $new_job
| 51> %base "19-151_DFT_B"
| 52> ! wB97X-D3 def2-TZVP TIGHTSCF CHELPG PMODEL
| 53>
| 54> %scf
| 55> MaxIter 1000
| 56> end
| 57>
| 58> * xyz 0 1
| 59>   C                    : 7.674039             0.035445             7.558897
| 60>   O                    : 8.497836             -1.111017            7.348845
| 61>   H                    : 8.080656             -1.808521            6.818184
| 62>   H                    : 7.815197             0.376542             8.597976
| 63>   H                    : 7.876174             0.780799             6.758844
| 64>   H                    : 6.562464             -0.208771            7.573850
| 65>   C                      8.905412             3.723221             8.095253
| 66>   O                      7.644204             3.455748             8.700712
| 67>   H                      7.890491             2.887441             9.435179
| 68>   H                      9.317823             2.764151             7.637089
| 69>   H                      8.787449             4.390905             7.335888
| 70>   H                      9.649400             4.099344             8.856138
| 71> *
| 72>
| 73>                          ****END OF INPUT****
 Total Charge           Charge          ....    0
 Multiplicity           Mult            ....    1
 Number of Electrons    NEL             ....   36
Dispersion correction           -0.001781275
FINAL SINGLE POINT ENERGY      -231.464540904403
Dispersion correction           -0.000274419
FINAL SINGLE POINT ENERGY      -115.731731247199

CARTESIAN COORDINATES (ANGSTROEM)
---------------------------------
  C      7.674039    0.035445    7.558897
  O      8.497836   -1.111017    7.348845
  H      8.080656   -1.808521    6.818184
  H      7.815197    0.376542    8.597976
  H      7.876174    0.780799    6.758844
  H      6.562464   -0.208771    7.573850
  C      8.905412    3.723221    8.095253
  O      7.644204    3.455748    8.700712
  H      7.890491    2.887441    9.435179
  H      9.317823    2.764151    7.637089
  H      8.787449    4.390905    7.335888
  H      9.649400    4.099344    8.856138

 Multiplicity           Mult            ....    1
 Number of Electrons    NEL             ....   18
 Basis Dimension        Dim             ....  172

ORBITAL ENERGIES
----------------

  NO   OCC          E(Eh)            E(eV)
   0   2.0000     -19.232843      -523.3523
   1   2.0000     -10.314982      -280.6849
   2   2.0000      -1.137860       -30.9628
   3   2.0000      -0.795272       -21.6405
   4   2.0000      -0.606729       -16.5099
   5   2.0000      -0.536106       -14.5882
   6   2.0000      -0.534241       -14.5374
   7   2.0000      -0.445133       -12.1127
   8   2.0000      -0.372516       -10.1367
   9   0.0000       0.082902         2.2559
  10   0.0000       0.123351         3.3566
  11   0.0000       0.151410         4.1201
  12   0.0000       0.177174         4.8212
  13   0.0000       0.189510         5.1568

MULLIKEN ATOMIC CHARGES
-----------------------
   0 C :    0.000715
   1 O :   -0.000096
   2 H :   -0.000002
   3 H :   -0.006524
   4 H :    0.001299
   5 H :   -0.000436
   6 C :   -0.177978
   7 O :   -0.461053
   8 H :    0.315059
   9 H :    0.092881
  10 H :    0.127939
  11 H :    0.108197
Sum of atomic charges:   -0.0000000

LOEWDIN ATOMIC CHARGES
----------------------
   0 C :   -0.007206
   1 O :   -0.000045
   2 H :   -0.000017
   3 H :   -0.003055
   4 H :   -0.001894
   5 H :   -0.000138
   6 C :   -0.374550
   7 O :   -0.076906
   8 H :    0.171292
   9 H :    0.102869
  10 H :    0.087074
  11 H :    0.102577

  Mayer bond orders larger than 0.1
B(  6-C ,  7-O ) :   0.9997 B(  6-C ,  9-H ) :   0.9751 B(  6-C , 10-H ) :   0.9763
B(  6-C , 11-H ) :   0.9770 B(  7-O ,  8-H ) :   0.9038

Dispersion correction           -0.000225163
FINAL SINGLE POINT ENERGY      -115.731209355304

DIPOLE MOMENT
-------------
                                X             Y             Z
Electronic contribution:     -1.74667      -0.09526       0.61036
Nuclear contribution   :      2.37316      -0.11639      -0.40602
                        -----------------------------------------
Total Dipole Moment    :      0.62649      -0.21165       0.20433
                        -----------------------------------------
Magnitude (a.u.)       :      0.69212
Magnitude (Debye)      :      1.75924

Rotational constants in cm-1:     4.178462     0.828641     0.802731
Rotational constants in MHz : 125267.131896 24842.044021 24065.270592

                             ****ORCA TERMINATED NORMALLY****
TOTAL RUN TIME: 0 days 0 hours 1 minutes 37 seconds 605 msec
