                         Program Version 4.1.2  - RELEASE  -
|  1> #Run DFT-D3 single point of the dimer
|  2> ! wB97X-D3 def2-TZVP TIGHTSCF CHELPG PMODEL PAL8
|  3>
|  4> %base "18-198_DFT_AB"
|  5>
|  6> %scf
|  7> MaxIter 1000
|  8> end
|  9>
| 10> * xyz 0 1
| 11>   C                      10.128577            0.098016             -7.714797
| 12>   O                      10.258327            1.347297             -7.099161
| 13>   H                      9.527064             1.536801             -6.495390
| 14>   H                      10.339531            -0.673182            -6.936152
| 15>   H                      9.078688             0.010444             -8.055894
| 16>   H                      10.771831            -0.072254            -8.598922
| 17>   C                      6.587204             1.171888             -6.954228
| 18>   O                      7.272481             1.617615             -5.820720
| 19>   H                      7.049130             0.910350             -5.201823
| 20>   H                      5.526829             0.955679             -6.689810
| 21>   H                      6.637293             1.835727             -7.818890
| 22>   H                      6.945714             0.181787             -7.332958
| 23> *
| 24>
| 25> #Run DFT-D3 single point of the molecule with dimer basis set
| 26> $new_job
| 27> %base "18-198_DFT_A"
| 28> ! wB97X-D3 def2-TZVP TIGHTSCF CHELPG PMODEL
| 29>
| 30> %scf
| 31> MaxIter 1000
| 32> end
| 33>
| 34> * xyz 0 1
| 35>   C                      10.128577            0.098016             -7.714797
| 36>   O                      10.258327            1.347297             -7.099161
| 37>   H                      9.527064             1.536801             -6.495390
| 38>   H                      10.339531            -0.673182            -6.936152
| 39>   H                      9.078688             0.010444             -8.055894
| 40>   H                      10.771831            -0.072254            -8.598922
| 41>   C                    : 6.587204             1.171888             -6.954228
| 42>   O                    : 7.272481             1.617615             -5.820720
| 43>   H                    : 7.049130             0.910350             -5.201823
| 44>   H                    : 5.526829             0.955679             -6.689810
| 45>   H                    : 6.637293             1.835727             -7.818890
| 46>   H                    : 6.945714             0.181787             -7.332958
| 47> *
| 48>
| 49> #Run DFT-D3 single point of the particle with dimer basis set
| 50> $new_job
| 51> %base "18-198_DFT_B"
| 52> ! wB97X-D3 def2-TZVP TIGHTSCF CHELPG PMODEL
| 53>
| 54> %scf
| 55> MaxIter 1000
| 56> end
| 57>
| 58> * xyz 0 1
| 59>   C                    : 10.128577            0.098016             -7.714797
| 60>   O                    : 10.258327            1.347297             -7.099161
| 61>   H                    : 9.527064             1.536801             -6.495390
| 62>   H                    : 10.339531            -0.673182            -6.936152
| 63>   H                    : 9.078688             0.010444             -8.055894
| 64>   H                    : 10.771831            -0.072254            -8.598922
| 65>   C                      6.587204             1.171888             -6.954228
| 66>   O                      7.272481             1.617615             -5.820720
| 67>   H                      7.049130             0.910350             -5.201823
| 68>   H                      5.526829             0.955679             -6.689810
| 69>   H                      6.637293             1.835727             -7.818890
| 70>   H                      6.945714             0.181787             -7.332958
| 71> *
| 72>
| 73>                          ****END OF INPUT****
 Total Charge           Charge          ....    0
 Multiplicity           Mult            ....    1
 Number of Electrons    NEL             ....   36
Dispersion correction           -0.002126903
FINAL SINGLE POINT ENERGY      -231.471260915884
Dispersion correction           -0.000233083
FINAL SINGLE POINT ENERGY      -115.732621924022

CARTESIAN COORDINATES (ANGSTROEM)
---------------------------------
  C     10.128577    0.098016   -7.714797
  O     10.258327    1.347297   -7.099161
  H      9.527064    1.536801   -6.495390
  H     10.339531   -0.673182   -6.936152
  H      9.078688    0.010444   -8.055894
  H     10.771831   -0.072254   -8.598922
  C      6.587204    1.171888   -6.954228
  O      7.272481    1.617615   -5.820720
  H      7.049130    0.910350   -5.201823
  H      5.526829    0.955679   -6.689810
  H      6.637293    1.835727   -7.818890
  H      6.945714    0.181787   -7.332958

 Multiplicity           Mult            ....    1
 Number of Electrons    NEL             ....   18
 Basis Dimension        Dim             ....  172

ORBITAL ENERGIES
----------------

  NO   OCC          E(Eh)            E(eV)
   0   2.0000     -19.237117      -523.4686
   1   2.0000     -10.317894      -280.7642
   2   2.0000      -1.148822       -31.2610
   3   2.0000      -0.789384       -21.4802
   4   2.0000      -0.615684       -16.7536
   5   2.0000      -0.540087       -14.6965
   6   2.0000      -0.530580       -14.4378
   7   2.0000      -0.443937       -12.0802
   8   2.0000      -0.371171       -10.1001
   9   0.0000       0.090773         2.4701
  10   0.0000       0.124101         3.3770
  11   0.0000       0.152371         4.1462
  12   0.0000       0.181209         4.9309
  13   0.0000       0.192165         5.2291

MULLIKEN ATOMIC CHARGES
-----------------------
   0 C :   -0.002594
   1 O :    0.000244
   2 H :   -0.005392
   3 H :   -0.000228
   4 H :    0.002085
   5 H :    0.000143
   6 C :   -0.181255
   7 O :   -0.453218
   8 H :    0.318681
   9 H :    0.104253
  10 H :    0.122899
  11 H :    0.094382
Sum of atomic charges:   -0.0000000

LOEWDIN ATOMIC CHARGES
----------------------
   0 C :   -0.003815
   1 O :   -0.001511
   2 H :   -0.018851
   3 H :   -0.000092
   4 H :   -0.006128
   5 H :   -0.000024
   6 C :   -0.408335
   7 O :   -0.046788
   8 H :    0.181931
   9 H :    0.097952
  10 H :    0.107368
  11 H :    0.098291

  Mayer bond orders larger than 0.1
B(  6-C ,  7-O ) :   0.9870 B(  6-C ,  9-H ) :   0.9769 B(  6-C , 10-H ) :   0.9748
B(  6-C , 11-H ) :   0.9739 B(  7-O ,  8-H ) :   0.8980

Dispersion correction           -0.000220578
FINAL SINGLE POINT ENERGY      -115.732298963722

DIPOLE MOMENT
-------------
                                X             Y             Z
Electronic contribution:      1.03863       0.90123       1.44162
Nuclear contribution   :     -1.43459      -1.49090      -1.48160
                        -----------------------------------------
Total Dipole Moment    :     -0.39596      -0.58967      -0.03998
                        -----------------------------------------
Magnitude (a.u.)       :      0.71141
Magnitude (Debye)      :      1.80825

Rotational constants in cm-1:     4.220929     0.850338     0.810625
Rotational constants in MHz : 126540.268961 25492.479692 24301.921314

                             ****ORCA TERMINATED NORMALLY****
TOTAL RUN TIME: 0 days 0 hours 1 minutes 3 seconds 783 msec
