                         Program Version 4.1.2  - RELEASE  -
|  1> #Run DFT-D3 single point of the dimer
|  2> ! wB97X-D3 def2-TZVP TIGHTSCF CHELPG PMODEL PAL8
|  3>
|  4> %base "6-123_DFT_AB"
|  5>
|  6> %scf
|  7> MaxIter 1000
|  8> end
|  9>
| 10> * xyz 0 1
| 11>   C                      -1.936839            -7.101095            -2.876770
| 12>   O                      -3.061484            -6.946725            -2.043370
| 13>   H                      -3.335684            -6.055807            -2.122500
| 14>   H                      -1.004453            -6.991422            -2.356135
| 15>   H                      -1.884352            -8.095574            -3.432958
| 16>   H                      -1.945391            -6.367581            -3.715468
| 17>   C                      -2.954584            -6.359247            -7.681066
| 18>   O                      -2.860629            -6.598741            -6.275569
| 19>   H                      -3.711140            -6.456979            -5.913500
| 20>   H                      -2.228339            -6.869746            -8.342924
| 21>   H                      -4.042323            -6.698064            -7.901465
| 22>   H                      -2.942604            -5.298880            -7.839737
| 23> *
| 24>
| 25> #Run DFT-D3 single point of the molecule with dimer basis set
| 26> $new_job
| 27> %base "6-123_DFT_A"
| 28> ! wB97X-D3 def2-TZVP TIGHTSCF CHELPG PMODEL
| 29>
| 30> %scf
| 31> MaxIter 1000
| 32> end
| 33>
| 34> * xyz 0 1
| 35>   C                      -1.936839            -7.101095            -2.876770
| 36>   O                      -3.061484            -6.946725            -2.043370
| 37>   H                      -3.335684            -6.055807            -2.122500
| 38>   H                      -1.004453            -6.991422            -2.356135
| 39>   H                      -1.884352            -8.095574            -3.432958
| 40>   H                      -1.945391            -6.367581            -3.715468
| 41>   C                    : -2.954584            -6.359247            -7.681066
| 42>   O                    : -2.860629            -6.598741            -6.275569
| 43>   H                    : -3.711140            -6.456979            -5.913500
| 44>   H                    : -2.228339            -6.869746            -8.342924
| 45>   H                    : -4.042323            -6.698064            -7.901465
| 46>   H                    : -2.942604            -5.298880            -7.839737
| 47> *
| 48>
| 49> #Run DFT-D3 single point of the particle with dimer basis set
| 50> $new_job
| 51> %base "6-123_DFT_B"
| 52> ! wB97X-D3 def2-TZVP TIGHTSCF CHELPG PMODEL
| 53>
| 54> %scf
| 55> MaxIter 1000
| 56> end
| 57>
| 58> * xyz 0 1
| 59>   C                    : -1.936839            -7.101095            -2.876770
| 60>   O                    : -3.061484            -6.946725            -2.043370
| 61>   H                    : -3.335684            -6.055807            -2.122500
| 62>   H                    : -1.004453            -6.991422            -2.356135
| 63>   H                    : -1.884352            -8.095574            -3.432958
| 64>   H                    : -1.945391            -6.367581            -3.715468
| 65>   C                      -2.954584            -6.359247            -7.681066
| 66>   O                      -2.860629            -6.598741            -6.275569
| 67>   H                      -3.711140            -6.456979            -5.913500
| 68>   H                      -2.228339            -6.869746            -8.342924
| 69>   H                      -4.042323            -6.698064            -7.901465
| 70>   H                      -2.942604            -5.298880            -7.839737
| 71> *
| 72>
| 73>                          ****END OF INPUT****
 Total Charge           Charge          ....    0
 Multiplicity           Mult            ....    1
 Number of Electrons    NEL             ....   36
Dispersion correction           -0.001352136
FINAL SINGLE POINT ENERGY      -231.460316954366
Dispersion correction           -0.000252825
FINAL SINGLE POINT ENERGY      -115.732340646863

CARTESIAN COORDINATES (ANGSTROEM)
---------------------------------
  C     -1.936839   -7.101095   -2.876770
  O     -3.061484   -6.946725   -2.043370
  H     -3.335684   -6.055807   -2.122500
  H     -1.004453   -6.991422   -2.356135
  H     -1.884352   -8.095574   -3.432958
  H     -1.945391   -6.367581   -3.715468
  C     -2.954584   -6.359247   -7.681066
  O     -2.860629   -6.598741   -6.275569
  H     -3.711140   -6.456979   -5.913500
  H     -2.228339   -6.869746   -8.342924
  H     -4.042323   -6.698064   -7.901465
  H     -2.942604   -5.298880   -7.839737

 Multiplicity           Mult            ....    1
 Number of Electrons    NEL             ....   18
 Basis Dimension        Dim             ....  172

ORBITAL ENERGIES
----------------

  NO   OCC          E(Eh)            E(eV)
   0   2.0000     -19.225448      -523.1510
   1   2.0000     -10.323196      -280.9084
   2   2.0000      -1.137735       -30.9593
   3   2.0000      -0.793164       -21.5831
   4   2.0000      -0.607100       -16.5200
   5   2.0000      -0.542522       -14.7628
   6   2.0000      -0.535669       -14.5763
   7   2.0000      -0.427389       -11.6299
   8   2.0000      -0.371058       -10.0970
   9   0.0000       0.092026         2.5041
  10   0.0000       0.118640         3.2284
  11   0.0000       0.156705         4.2642
  12   0.0000       0.172983         4.7071
  13   0.0000       0.193281         5.2595

MULLIKEN ATOMIC CHARGES
-----------------------
   0 C :    0.005078
   1 O :   -0.000097
   2 H :   -0.000077
   3 H :   -0.000405
   4 H :   -0.002232
   5 H :   -0.010407
   6 C :   -0.169931
   7 O :   -0.465071
   8 H :    0.315461
   9 H :    0.127350
  10 H :    0.089542
  11 H :    0.110789
Sum of atomic charges:   -0.0000000

LOEWDIN ATOMIC CHARGES
----------------------
   0 C :   -0.004494
   1 O :   -0.000028
   2 H :   -0.000030
   3 H :   -0.000026
   4 H :   -0.001248
   5 H :   -0.007575
   6 C :   -0.371267
   7 O :   -0.075953
   8 H :    0.153801
   9 H :    0.109238
  10 H :    0.107564
  11 H :    0.090018

  Mayer bond orders larger than 0.1
B(  6-C ,  7-O ) :   0.9881 B(  6-C ,  9-H ) :   0.9669 B(  6-C , 10-H ) :   0.9956
B(  6-C , 11-H ) :   0.9725 B(  7-O ,  8-H ) :   0.9013

Dispersion correction           -0.000226732
FINAL SINGLE POINT ENERGY      -115.726310513851

DIPOLE MOMENT
-------------
                                X             Y             Z
Electronic contribution:      0.50360      -0.34398       1.67311
Nuclear contribution   :     -1.08195       0.53987      -2.02759
                        -----------------------------------------
Total Dipole Moment    :     -0.57836       0.19589      -0.35448
                        -----------------------------------------
Magnitude (a.u.)       :      0.70606
Magnitude (Debye)      :      1.79467

Rotational constants in cm-1:     4.179025     0.825737     0.790280
Rotational constants in MHz : 125284.024810 24754.959711 23692.003604

                             ****ORCA TERMINATED NORMALLY****
TOTAL RUN TIME: 0 days 0 hours 0 minutes 59 seconds 511 msec
