                         Program Version 4.1.2  - RELEASE  -
|  1> #Run DFT-D3 single point of the dimer
|  2> ! wB97X-D3 def2-TZVP TIGHTSCF CHELPG PMODEL PAL8
|  3>
|  4> %base "4-131_DFT_AB"
|  5>
|  6> %scf
|  7> MaxIter 1000
|  8> end
|  9>
| 10> * xyz 0 1
| 11>   C                      7.403587             -9.978403            2.850823
| 12>   O                      8.436868             -10.175592           3.819464
| 13>   H                      8.901432             -9.344453            3.760023
| 14>   H                      6.659822             -10.796634           2.741819
| 15>   H                      6.753976             -9.111193            3.112570
| 16>   H                      7.782467             -9.757799            1.881767
| 17>   C                      6.153015             -5.292098            3.603107
| 18>   O                      6.950715             -5.901456            2.651022
| 19>   H                      6.387861             -6.556969            2.128899
| 20>   H                      5.094600             -5.368703            3.263244
| 21>   H                      6.258839             -5.732729            4.566604
| 22>   H                      6.401723             -4.268254            3.740448
| 23> *
| 24>
| 25> #Run DFT-D3 single point of the molecule with dimer basis set
| 26> $new_job
| 27> %base "4-131_DFT_A"
| 28> ! wB97X-D3 def2-TZVP TIGHTSCF CHELPG PMODEL
| 29>
| 30> %scf
| 31> MaxIter 1000
| 32> end
| 33>
| 34> * xyz 0 1
| 35>   C                      7.403587             -9.978403            2.850823
| 36>   O                      8.436868             -10.175592           3.819464
| 37>   H                      8.901432             -9.344453            3.760023
| 38>   H                      6.659822             -10.796634           2.741819
| 39>   H                      6.753976             -9.111193            3.112570
| 40>   H                      7.782467             -9.757799            1.881767
| 41>   C                    : 6.153015             -5.292098            3.603107
| 42>   O                    : 6.950715             -5.901456            2.651022
| 43>   H                    : 6.387861             -6.556969            2.128899
| 44>   H                    : 5.094600             -5.368703            3.263244
| 45>   H                    : 6.258839             -5.732729            4.566604
| 46>   H                    : 6.401723             -4.268254            3.740448
| 47> *
| 48>
| 49> #Run DFT-D3 single point of the particle with dimer basis set
| 50> $new_job
| 51> %base "4-131_DFT_B"
| 52> ! wB97X-D3 def2-TZVP TIGHTSCF CHELPG PMODEL
| 53>
| 54> %scf
| 55> MaxIter 1000
| 56> end
| 57>
| 58> * xyz 0 1
| 59>   C                    : 7.403587             -9.978403            2.850823
| 60>   O                    : 8.436868             -10.175592           3.819464
| 61>   H                    : 8.901432             -9.344453            3.760023
| 62>   H                    : 6.659822             -10.796634           2.741819
| 63>   H                    : 6.753976             -9.111193            3.112570
| 64>   H                    : 7.782467             -9.757799            1.881767
| 65>   C                      6.153015             -5.292098            3.603107
| 66>   O                      6.950715             -5.901456            2.651022
| 67>   H                      6.387861             -6.556969            2.128899
| 68>   H                      5.094600             -5.368703            3.263244
| 69>   H                      6.258839             -5.732729            4.566604
| 70>   H                      6.401723             -4.268254            3.740448
| 71> *
| 72>
| 73>                          ****END OF INPUT****
 Total Charge           Charge          ....    0
 Multiplicity           Mult            ....    1
 Number of Electrons    NEL             ....   36
Dispersion correction           -0.001221986
FINAL SINGLE POINT ENERGY      -231.463668915460
Dispersion correction           -0.000237993
FINAL SINGLE POINT ENERGY      -115.731532708561

CARTESIAN COORDINATES (ANGSTROEM)
---------------------------------
  C      7.403587   -9.978403    2.850823
  O      8.436868  -10.175592    3.819464
  H      8.901432   -9.344453    3.760023
  H      6.659822  -10.796634    2.741819
  H      6.753976   -9.111193    3.112570
  H      7.782467   -9.757799    1.881767
  C      6.153015   -5.292098    3.603107
  O      6.950715   -5.901456    2.651022
  H      6.387861   -6.556969    2.128899
  H      5.094600   -5.368703    3.263244
  H      6.258839   -5.732729    4.566604
  H      6.401723   -4.268254    3.740448

 Multiplicity           Mult            ....    1
 Number of Electrons    NEL             ....   18
 Basis Dimension        Dim             ....  172

ORBITAL ENERGIES
----------------

  NO   OCC          E(Eh)            E(eV)
   0   2.0000     -19.232552      -523.3444
   1   2.0000     -10.305450      -280.4256
   2   2.0000      -1.136775       -30.9332
   3   2.0000      -0.793263       -21.5858
   4   2.0000      -0.609639       -16.5891
   5   2.0000      -0.546018       -14.8579
   6   2.0000      -0.538674       -14.6581
   7   2.0000      -0.426063       -11.5938
   8   2.0000      -0.370316       -10.0768
   9   0.0000       0.080099         2.1796
  10   0.0000       0.117812         3.2058
  11   0.0000       0.153782         4.1846
  12   0.0000       0.168519         4.5856
  13   0.0000       0.192134         5.2282

MULLIKEN ATOMIC CHARGES
-----------------------
   0 C :    0.003546
   1 O :    0.000163
   2 H :   -0.000483
   3 H :   -0.000326
   4 H :   -0.008589
   5 H :   -0.000151
   6 C :   -0.160531
   7 O :   -0.470816
   8 H :    0.324265
   9 H :    0.095813
  10 H :    0.101960
  11 H :    0.115149
Sum of atomic charges:    0.0000000

LOEWDIN ATOMIC CHARGES
----------------------
   0 C :   -0.001764
   1 O :   -0.000024
   2 H :   -0.000256
   3 H :   -0.000030
   4 H :   -0.003371
   5 H :   -0.000132
   6 C :   -0.406648
   7 O :   -0.075189
   8 H :    0.201108
   9 H :    0.100616
  10 H :    0.088615
  11 H :    0.097075

  Mayer bond orders larger than 0.1
B(  6-C ,  7-O ) :   1.0138 B(  6-C ,  9-H ) :   0.9941 B(  6-C , 10-H ) :   0.9747
B(  6-C , 11-H ) :   0.9746 B(  7-O ,  8-H ) :   0.8885

Dispersion correction           -0.000228758
FINAL SINGLE POINT ENERGY      -115.730796636725

DIPOLE MOMENT
-------------
                                X             Y             Z
Electronic contribution:      1.21747      -0.67093      -1.15774
Nuclear contribution   :     -1.87325       0.51577       1.19234
                        -----------------------------------------
Total Dipole Moment    :     -0.65578      -0.15516       0.03460
                        -----------------------------------------
Magnitude (a.u.)       :      0.67478
Magnitude (Debye)      :      1.71514

Rotational constants in cm-1:     4.309183     0.865996     0.824599
Rotational constants in MHz : 129186.063157 25961.913655 24720.844452

                             ****ORCA TERMINATED NORMALLY****
TOTAL RUN TIME: 0 days 0 hours 1 minutes 30 seconds 227 msec
