                         Program Version 4.1.2  - RELEASE  -
|  1> #Run DFT-D3 single point of the dimer
|  2> ! wB97X-D3 def2-TZVP TIGHTSCF CHELPG PMODEL PAL8
|  3>
|  4> %base "7-114_DFT_AB"
|  5>
|  6> %scf
|  7> MaxIter 1000
|  8> end
|  9>
| 10> * xyz 0 1
| 11>   C                      0.729532             5.280987             0.792221
| 12>   O                      0.011848             4.968392             -0.373084
| 13>   H                      -0.194236            5.859441             -0.599549
| 14>   H                      1.347677             4.466694             1.117791
| 15>   H                      1.488634             6.100130             0.576506
| 16>   H                      -0.035568            5.478909             1.575330
| 17>   C                      4.556806             5.347333             -2.628685
| 18>   O                      3.423993             5.475076             -1.851315
| 19>   H                      3.701064             5.189540             -1.017325
| 20>   H                      4.699981             6.061713             -3.358107
| 21>   H                      5.501978             5.323743             -2.028070
| 22>   H                      4.491684             4.380159             -3.170814
| 23> *
| 24>
| 25> #Run DFT-D3 single point of the molecule with dimer basis set
| 26> $new_job
| 27> %base "7-114_DFT_A"
| 28> ! wB97X-D3 def2-TZVP TIGHTSCF CHELPG PMODEL
| 29>
| 30> %scf
| 31> MaxIter 1000
| 32> end
| 33>
| 34> * xyz 0 1
| 35>   C                      0.729532             5.280987             0.792221
| 36>   O                      0.011848             4.968392             -0.373084
| 37>   H                      -0.194236            5.859441             -0.599549
| 38>   H                      1.347677             4.466694             1.117791
| 39>   H                      1.488634             6.100130             0.576506
| 40>   H                      -0.035568            5.478909             1.575330
| 41>   C                    : 4.556806             5.347333             -2.628685
| 42>   O                    : 3.423993             5.475076             -1.851315
| 43>   H                    : 3.701064             5.189540             -1.017325
| 44>   H                    : 4.699981             6.061713             -3.358107
| 45>   H                    : 5.501978             5.323743             -2.028070
| 46>   H                    : 4.491684             4.380159             -3.170814
| 47> *
| 48>
| 49> #Run DFT-D3 single point of the particle with dimer basis set
| 50> $new_job
| 51> %base "7-114_DFT_B"
| 52> ! wB97X-D3 def2-TZVP TIGHTSCF CHELPG PMODEL
| 53>
| 54> %scf
| 55> MaxIter 1000
| 56> end
| 57>
| 58> * xyz 0 1
| 59>   C                    : 0.729532             5.280987             0.792221
| 60>   O                    : 0.011848             4.968392             -0.373084
| 61>   H                    : -0.194236            5.859441             -0.599549
| 62>   H                    : 1.347677             4.466694             1.117791
| 63>   H                    : 1.488634             6.100130             0.576506
| 64>   H                    : -0.035568            5.478909             1.575330
| 65>   C                      4.556806             5.347333             -2.628685
| 66>   O                      3.423993             5.475076             -1.851315
| 67>   H                      3.701064             5.189540             -1.017325
| 68>   H                      4.699981             6.061713             -3.358107
| 69>   H                      5.501978             5.323743             -2.028070
| 70>   H                      4.491684             4.380159             -3.170814
| 71> *
| 72>
| 73>                          ****END OF INPUT****
 Total Charge           Charge          ....    0
 Multiplicity           Mult            ....    1
 Number of Electrons    NEL             ....   36
Dispersion correction           -0.001250475
FINAL SINGLE POINT ENERGY      -231.455722836513
Dispersion correction           -0.000201953
FINAL SINGLE POINT ENERGY      -115.727118225754

CARTESIAN COORDINATES (ANGSTROEM)
---------------------------------
  C      0.729532    5.280987    0.792221
  O      0.011848    4.968392   -0.373084
  H     -0.194236    5.859441   -0.599549
  H      1.347677    4.466694    1.117791
  H      1.488634    6.100130    0.576506
  H     -0.035568    5.478909    1.575330
  C      4.556806    5.347333   -2.628685
  O      3.423993    5.475076   -1.851315
  H      3.701064    5.189540   -1.017325
  H      4.699981    6.061713   -3.358107
  H      5.501978    5.323743   -2.028070
  H      4.491684    4.380159   -3.170814

 Multiplicity           Mult            ....    1
 Number of Electrons    NEL             ....   18
 Basis Dimension        Dim             ....  172

ORBITAL ENERGIES
----------------

  NO   OCC          E(Eh)            E(eV)
   0   2.0000     -19.229658      -523.2656
   1   2.0000     -10.308540      -280.5096
   2   2.0000      -1.159022       -31.5386
   3   2.0000      -0.799582       -21.7577
   4   2.0000      -0.621983       -16.9250
   5   2.0000      -0.548668       -14.9300
   6   2.0000      -0.536822       -14.6077
   7   2.0000      -0.438369       -11.9286
   8   2.0000      -0.371974       -10.1219
   9   0.0000       0.088376         2.4048
  10   0.0000       0.122785         3.3412
  11   0.0000       0.158089         4.3018
  12   0.0000       0.177075         4.8184
  13   0.0000       0.195497         5.3197

MULLIKEN ATOMIC CHARGES
-----------------------
   0 C :    0.000236
   1 O :   -0.000036
   2 H :   -0.000314
   3 H :   -0.000142
   4 H :   -0.003248
   5 H :   -0.000078
   6 C :   -0.173877
   7 O :   -0.447509
   8 H :    0.315979
   9 H :    0.120486
  10 H :    0.093981
  11 H :    0.094522
Sum of atomic charges:    0.0000000

LOEWDIN ATOMIC CHARGES
----------------------
   0 C :   -0.002129
   1 O :   -0.000410
   2 H :   -0.000280
   3 H :   -0.000234
   4 H :   -0.001854
   5 H :   -0.000024
   6 C :   -0.406174
   7 O :   -0.030441
   8 H :    0.154197
   9 H :    0.087571
  10 H :    0.100672
  11 H :    0.099106

  Mayer bond orders larger than 0.1
B(  6-C ,  7-O ) :   1.0109 B(  6-C ,  9-H ) :   0.9731 B(  6-C , 10-H ) :   0.9877
B(  6-C , 11-H ) :   0.9822 B(  7-O ,  8-H ) :   0.9041

Dispersion correction           -0.000217889
FINAL SINGLE POINT ENERGY      -115.728472928359

DIPOLE MOMENT
-------------
                                X             Y             Z
Electronic contribution:     -1.64321       0.38737       0.92203
Nuclear contribution   :      2.25153      -0.59429      -0.68004
                        -----------------------------------------
Total Dipole Moment    :      0.60832      -0.20693       0.24199
                        -----------------------------------------
Magnitude (a.u.)       :      0.68660
Magnitude (Debye)      :      1.74521

Rotational constants in cm-1:     4.435714     0.868564     0.835981
Rotational constants in MHz : 132979.373017 26038.895949 25062.072166

                             ****ORCA TERMINATED NORMALLY****
TOTAL RUN TIME: 0 days 0 hours 1 minutes 13 seconds 663 msec
