                         Program Version 4.1.2  - RELEASE  -
|  1> #Run DFT-D3 single point of the dimer
|  2> ! wB97X-D3 def2-TZVP TIGHTSCF CHELPG PMODEL PAL8
|  3>
|  4> %base "21-141_DFT_AB"
|  5>
|  6> %scf
|  7> MaxIter 1000
|  8> end
|  9>
| 10> * xyz 0 1
| 11>   C                      -2.546638            1.902959             -2.605679
| 12>   O                      -2.598122            0.758630             -3.458367
| 13>   H                      -3.379653            0.987957             -4.003683
| 14>   H                      -2.358352            2.803489             -3.201803
| 15>   H                      -3.498359            2.075437             -2.061589
| 16>   H                      -1.772985            1.821890             -1.845222
| 17>   C                      -3.389755            -0.935923            -6.500137
| 18>   O                      -3.259672            -0.825678            -7.883029
| 19>   H                      -2.382912            -0.578327            -8.113036
| 20>   H                      -3.148542            0.079052             -5.986449
| 21>   H                      -4.350042            -1.219182            -6.114905
| 22>   H                      -2.645313            -1.593143            -6.048752
| 23> *
| 24>
| 25> #Run DFT-D3 single point of the molecule with dimer basis set
| 26> $new_job
| 27> %base "21-141_DFT_A"
| 28> ! wB97X-D3 def2-TZVP TIGHTSCF CHELPG PMODEL
| 29>
| 30> %scf
| 31> MaxIter 1000
| 32> end
| 33>
| 34> * xyz 0 1
| 35>   C                      -2.546638            1.902959             -2.605679
| 36>   O                      -2.598122            0.758630             -3.458367
| 37>   H                      -3.379653            0.987957             -4.003683
| 38>   H                      -2.358352            2.803489             -3.201803
| 39>   H                      -3.498359            2.075437             -2.061589
| 40>   H                      -1.772985            1.821890             -1.845222
| 41>   C                    : -3.389755            -0.935923            -6.500137
| 42>   O                    : -3.259672            -0.825678            -7.883029
| 43>   H                    : -2.382912            -0.578327            -8.113036
| 44>   H                    : -3.148542            0.079052             -5.986449
| 45>   H                    : -4.350042            -1.219182            -6.114905
| 46>   H                    : -2.645313            -1.593143            -6.048752
| 47> *
| 48>
| 49> #Run DFT-D3 single point of the particle with dimer basis set
| 50> $new_job
| 51> %base "21-141_DFT_B"
| 52> ! wB97X-D3 def2-TZVP TIGHTSCF CHELPG PMODEL
| 53>
| 54> %scf
| 55> MaxIter 1000
| 56> end
| 57>
| 58> * xyz 0 1
| 59>   C                    : -2.546638            1.902959             -2.605679
| 60>   O                    : -2.598122            0.758630             -3.458367
| 61>   H                    : -3.379653            0.987957             -4.003683
| 62>   H                    : -2.358352            2.803489             -3.201803
| 63>   H                    : -3.498359            2.075437             -2.061589
| 64>   H                    : -1.772985            1.821890             -1.845222
| 65>   C                      -3.389755            -0.935923            -6.500137
| 66>   O                      -3.259672            -0.825678            -7.883029
| 67>   H                      -2.382912            -0.578327            -8.113036
| 68>   H                      -3.148542            0.079052             -5.986449
| 69>   H                      -4.350042            -1.219182            -6.114905
| 70>   H                      -2.645313            -1.593143            -6.048752
| 71> *
| 72>
| 73>                          ****END OF INPUT****
 Total Charge           Charge          ....    0
 Multiplicity           Mult            ....    1
 Number of Electrons    NEL             ....   36
Dispersion correction           -0.001341371
FINAL SINGLE POINT ENERGY      -231.466185070524
Dispersion correction           -0.000228209
FINAL SINGLE POINT ENERGY      -115.734526873461

CARTESIAN COORDINATES (ANGSTROEM)
---------------------------------
  C     -2.546638    1.902959   -2.605679
  O     -2.598122    0.758630   -3.458367
  H     -3.379653    0.987957   -4.003683
  H     -2.358352    2.803489   -3.201803
  H     -3.498359    2.075437   -2.061589
  H     -1.772985    1.821890   -1.845222
  C     -3.389755   -0.935923   -6.500137
  O     -3.259672   -0.825678   -7.883029
  H     -2.382912   -0.578327   -8.113036
  H     -3.148542    0.079052   -5.986449
  H     -4.350042   -1.219182   -6.114905
  H     -2.645313   -1.593143   -6.048752

 Multiplicity           Mult            ....    1
 Number of Electrons    NEL             ....   18
 Basis Dimension        Dim             ....  172

ORBITAL ENERGIES
----------------

  NO   OCC          E(Eh)            E(eV)
   0   2.0000     -19.231253      -523.3090
   1   2.0000     -10.317712      -280.7592
   2   2.0000      -1.147088       -31.2139
   3   2.0000      -0.797616       -21.7042
   4   2.0000      -0.621130       -16.9018
   5   2.0000      -0.541165       -14.7258
   6   2.0000      -0.530406       -14.4331
   7   2.0000      -0.432756       -11.7759
   8   2.0000      -0.369293       -10.0490
   9   0.0000       0.084820         2.3081
  10   0.0000       0.117579         3.1995
  11   0.0000       0.142905         3.8886
  12   0.0000       0.184731         5.0268
  13   0.0000       0.192107         5.2275

MULLIKEN ATOMIC CHARGES
-----------------------
   0 C :    0.000220
   1 O :   -0.000067
   2 H :   -0.003450
   3 H :   -0.000144
   4 H :   -0.000038
   5 H :    0.000029
   6 C :   -0.165886
   7 O :   -0.465894
   8 H :    0.317363
   9 H :    0.090514
  10 H :    0.125648
  11 H :    0.101704
Sum of atomic charges:   -0.0000000

LOEWDIN ATOMIC CHARGES
----------------------
   0 C :   -0.000299
   1 O :   -0.003805
   2 H :   -0.009141
   3 H :   -0.000028
   4 H :   -0.000003
   5 H :   -0.000004
   6 C :   -0.402678
   7 O :   -0.048746
   8 H :    0.159733
   9 H :    0.108412
  10 H :    0.103700
  11 H :    0.092858

  Mayer bond orders larger than 0.1
B(  6-C ,  7-O ) :   0.9958 B(  6-C ,  9-H ) :   0.9846 B(  6-C , 10-H ) :   0.9684
B(  6-C , 11-H ) :   0.9741 B(  7-O ,  8-H ) :   0.8977

Dispersion correction           -0.000246505
FINAL SINGLE POINT ENERGY      -115.730804845391

DIPOLE MOMENT
-------------
                                X             Y             Z
Electronic contribution:     -0.08950      -0.05694      -1.99201
Nuclear contribution   :      0.60327       0.14841       2.36575
                        -----------------------------------------
Total Dipole Moment    :      0.51377       0.09147       0.37375
                        -----------------------------------------
Magnitude (a.u.)       :      0.64188
Magnitude (Debye)      :      1.63154

Rotational constants in cm-1:     4.401858     0.835743     0.806067
Rotational constants in MHz : 131964.392234 25054.957202 24165.281604

                             ****ORCA TERMINATED NORMALLY****
TOTAL RUN TIME: 0 days 0 hours 1 minutes 2 seconds 68 msec
