                         Program Version 4.1.2  - RELEASE  -
|  1> #Run DFT-D3 single point of the dimer
|  2> ! wB97X-D3 def2-TZVP TIGHTSCF CHELPG PMODEL PAL8
|  3>
|  4> %base "18-126_DFT_AB"
|  5>
|  6> %scf
|  7> MaxIter 1000
|  8> end
|  9>
| 10> * xyz 0 1
| 11>   C                      -2.094311            2.283453             2.567803
| 12>   O                      -2.206315            1.869918             1.194003
| 13>   H                      -3.161988            1.826491             1.108694
| 14>   H                      -2.770650            1.809254             3.256604
| 15>   H                      -1.121342            2.272797             2.978147
| 16>   H                      -2.354916            3.318122             2.580382
| 17>   C                      -0.304787            0.711468             -1.671236
| 18>   O                      -0.358913            0.136075             -0.411054
| 19>   H                      -0.991350            0.716798             0.069101
| 20>   H                      -0.935680            0.160877             -2.344525
| 21>   H                      -0.561862            1.807531             -1.623286
| 22>   H                      0.713129             0.581412             -2.045958
| 23> *
| 24>
| 25> #Run DFT-D3 single point of the molecule with dimer basis set
| 26> $new_job
| 27> %base "18-126_DFT_A"
| 28> ! wB97X-D3 def2-TZVP TIGHTSCF CHELPG PMODEL
| 29>
| 30> %scf
| 31> MaxIter 1000
| 32> end
| 33>
| 34> * xyz 0 1
| 35>   C                      -2.094311            2.283453             2.567803
| 36>   O                      -2.206315            1.869918             1.194003
| 37>   H                      -3.161988            1.826491             1.108694
| 38>   H                      -2.770650            1.809254             3.256604
| 39>   H                      -1.121342            2.272797             2.978147
| 40>   H                      -2.354916            3.318122             2.580382
| 41>   C                    : -0.304787            0.711468             -1.671236
| 42>   O                    : -0.358913            0.136075             -0.411054
| 43>   H                    : -0.991350            0.716798             0.069101
| 44>   H                    : -0.935680            0.160877             -2.344525
| 45>   H                    : -0.561862            1.807531             -1.623286
| 46>   H                    : 0.713129             0.581412             -2.045958
| 47> *
| 48>
| 49> #Run DFT-D3 single point of the particle with dimer basis set
| 50> $new_job
| 51> %base "18-126_DFT_B"
| 52> ! wB97X-D3 def2-TZVP TIGHTSCF CHELPG PMODEL
| 53>
| 54> %scf
| 55> MaxIter 1000
| 56> end
| 57>
| 58> * xyz 0 1
| 59>   C                    : -2.094311            2.283453             2.567803
| 60>   O                    : -2.206315            1.869918             1.194003
| 61>   H                    : -3.161988            1.826491             1.108694
| 62>   H                    : -2.770650            1.809254             3.256604
| 63>   H                    : -1.121342            2.272797             2.978147
| 64>   H                    : -2.354916            3.318122             2.580382
| 65>   C                      -0.304787            0.711468             -1.671236
| 66>   O                      -0.358913            0.136075             -0.411054
| 67>   H                      -0.991350            0.716798             0.069101
| 68>   H                      -0.935680            0.160877             -2.344525
| 69>   H                      -0.561862            1.807531             -1.623286
| 70>   H                      0.713129             0.581412             -2.045958
| 71> *
| 72>
| 73>                          ****END OF INPUT****
 Total Charge           Charge          ....    0
 Multiplicity           Mult            ....    1
 Number of Electrons    NEL             ....   36
Dispersion correction           -0.001483747
FINAL SINGLE POINT ENERGY      -231.470748704725
Dispersion correction           -0.000222008
FINAL SINGLE POINT ENERGY      -115.729434040559

CARTESIAN COORDINATES (ANGSTROEM)
---------------------------------
  C     -2.094311    2.283453    2.567803
  O     -2.206315    1.869918    1.194003
  H     -3.161988    1.826491    1.108694
  H     -2.770650    1.809254    3.256604
  H     -1.121342    2.272797    2.978147
  H     -2.354916    3.318122    2.580382
  C     -0.304787    0.711468   -1.671236
  O     -0.358913    0.136075   -0.411054
  H     -0.991350    0.716798    0.069101
  H     -0.935680    0.160877   -2.344525
  H     -0.561862    1.807531   -1.623286
  H      0.713129    0.581412   -2.045958

 Multiplicity           Mult            ....    1
 Number of Electrons    NEL             ....   18
 Basis Dimension        Dim             ....  172

ORBITAL ENERGIES
----------------

  NO   OCC          E(Eh)            E(eV)
   0   2.0000     -19.231420      -523.3135
   1   2.0000     -10.311102      -280.5794
   2   2.0000      -1.144013       -31.1302
   3   2.0000      -0.787802       -21.4372
   4   2.0000      -0.610956       -16.6250
   5   2.0000      -0.547793       -14.9062
   6   2.0000      -0.529116       -14.3980
   7   2.0000      -0.435362       -11.8468
   8   2.0000      -0.369963       -10.0672
   9   0.0000       0.068033         1.8513
  10   0.0000       0.123525         3.3613
  11   0.0000       0.157783         4.2935
  12   0.0000       0.168542         4.5862
  13   0.0000       0.189301         5.1511

MULLIKEN ATOMIC CHARGES
-----------------------
   0 C :   -0.001112
   1 O :   -0.002379
   2 H :   -0.000198
   3 H :    0.000011
   4 H :   -0.000244
   5 H :    0.000048
   6 C :   -0.157069
   7 O :   -0.459379
   8 H :    0.314166
   9 H :    0.098648
  10 H :    0.096982
  11 H :    0.110527
Sum of atomic charges:    0.0000000

LOEWDIN ATOMIC CHARGES
----------------------
   0 C :   -0.002006
   1 O :   -0.016523
   2 H :   -0.001111
   3 H :   -0.000034
   4 H :   -0.000208
   5 H :   -0.000042
   6 C :   -0.409525
   7 O :   -0.061816
   8 H :    0.195150
   9 H :    0.090208
  10 H :    0.102076
  11 H :    0.103832

  Mayer bond orders larger than 0.1
B(  6-C ,  7-O ) :   0.9973 B(  6-C ,  9-H ) :   0.9772 B(  6-C , 10-H ) :   0.9840
B(  6-C , 11-H ) :   0.9778 B(  7-O ,  8-H ) :   0.9070

Dispersion correction           -0.000218293
FINAL SINGLE POINT ENERGY      -115.732189796789

DIPOLE MOMENT
-------------
                                X             Y             Z
Electronic contribution:     -0.00374      -0.85157       1.57793
Nuclear contribution   :     -0.35521       1.41876      -1.74520
                        -----------------------------------------
Total Dipole Moment    :     -0.35896       0.56720      -0.16727
                        -----------------------------------------
Magnitude (a.u.)       :      0.69177
Magnitude (Debye)      :      1.75833

Rotational constants in cm-1:     4.114618     0.875114     0.831834
Rotational constants in MHz : 123353.142452 26235.261042 24937.757424

                             ****ORCA TERMINATED NORMALLY****
TOTAL RUN TIME: 0 days 0 hours 1 minutes 8 seconds 543 msec
