                         Program Version 4.1.2  - RELEASE  -
|  1> #Run DFT-D3 single point of the dimer
|  2> ! wB97X-D3 def2-TZVP TIGHTSCF CHELPG PMODEL PAL8
|  3>
|  4> %base "15-105_DFT_AB"
|  5>
|  6> %scf
|  7> MaxIter 1000
|  8> end
|  9>
| 10> * xyz 0 1
| 11>   C                      5.769253             2.723060             -5.358341
| 12>   O                      4.814784             3.262569             -6.303090
| 13>   H                      4.560570             4.189452             -6.048641
| 14>   H                      5.512399             1.716891             -5.023752
| 15>   H                      6.764949             2.673232             -5.826764
| 16>   H                      5.846086             3.305604             -4.359895
| 17>   C                      6.878222             1.563807             -2.144682
| 18>   O                      6.443353             0.577420             -3.059159
| 19>   H                      7.212527             0.029790             -3.103457
| 20>   H                      7.575887             2.206588             -2.697307
| 21>   H                      6.072569             2.190081             -1.762633
| 22>   H                      7.382352             1.174466             -1.249020
| 23> *
| 24>
| 25> #Run DFT-D3 single point of the molecule with dimer basis set
| 26> $new_job
| 27> %base "15-105_DFT_A"
| 28> ! wB97X-D3 def2-TZVP TIGHTSCF CHELPG PMODEL
| 29>
| 30> %scf
| 31> MaxIter 1000
| 32> end
| 33>
| 34> * xyz 0 1
| 35>   C                      5.769253             2.723060             -5.358341
| 36>   O                      4.814784             3.262569             -6.303090
| 37>   H                      4.560570             4.189452             -6.048641
| 38>   H                      5.512399             1.716891             -5.023752
| 39>   H                      6.764949             2.673232             -5.826764
| 40>   H                      5.846086             3.305604             -4.359895
| 41>   C                    : 6.878222             1.563807             -2.144682
| 42>   O                    : 6.443353             0.577420             -3.059159
| 43>   H                    : 7.212527             0.029790             -3.103457
| 44>   H                    : 7.575887             2.206588             -2.697307
| 45>   H                    : 6.072569             2.190081             -1.762633
| 46>   H                    : 7.382352             1.174466             -1.249020
| 47> *
| 48>
| 49> #Run DFT-D3 single point of the particle with dimer basis set
| 50> $new_job
| 51> %base "15-105_DFT_B"
| 52> ! wB97X-D3 def2-TZVP TIGHTSCF CHELPG PMODEL
| 53>
| 54> %scf
| 55> MaxIter 1000
| 56> end
| 57>
| 58> * xyz 0 1
| 59>   C                    : 5.769253             2.723060             -5.358341
| 60>   O                    : 4.814784             3.262569             -6.303090
| 61>   H                    : 4.560570             4.189452             -6.048641
| 62>   H                    : 5.512399             1.716891             -5.023752
| 63>   H                    : 6.764949             2.673232             -5.826764
| 64>   H                    : 5.846086             3.305604             -4.359895
| 65>   C                      6.878222             1.563807             -2.144682
| 66>   O                      6.443353             0.577420             -3.059159
| 67>   H                      7.212527             0.029790             -3.103457
| 68>   H                      7.575887             2.206588             -2.697307
| 69>   H                      6.072569             2.190081             -1.762633
| 70>   H                      7.382352             1.174466             -1.249020
| 71> *
| 72>
| 73>                          ****END OF INPUT****
 Total Charge           Charge          ....    0
 Multiplicity           Mult            ....    1
 Number of Electrons    NEL             ....   36
Dispersion correction           -0.002029135
FINAL SINGLE POINT ENERGY      -231.465361255841
Dispersion correction           -0.000291893
FINAL SINGLE POINT ENERGY      -115.730411887543

CARTESIAN COORDINATES (ANGSTROEM)
---------------------------------
  C      5.769253    2.723060   -5.358341
  O      4.814784    3.262569   -6.303090
  H      4.560570    4.189452   -6.048641
  H      5.512399    1.716891   -5.023752
  H      6.764949    2.673232   -5.826764
  H      5.846086    3.305604   -4.359895
  C      6.878222    1.563807   -2.144682
  O      6.443353    0.577420   -3.059159
  H      7.212527    0.029790   -3.103457
  H      7.575887    2.206588   -2.697307
  H      6.072569    2.190081   -1.762633
  H      7.382352    1.174466   -1.249020

 Multiplicity           Mult            ....    1
 Number of Electrons    NEL             ....   18
 Basis Dimension        Dim             ....  172

ORBITAL ENERGIES
----------------

  NO   OCC          E(Eh)            E(eV)
   0   2.0000     -19.231986      -523.3289
   1   2.0000     -10.314049      -280.6596
   2   2.0000      -1.145501       -31.1707
   3   2.0000      -0.793766       -21.5995
   4   2.0000      -0.611177       -16.6310
   5   2.0000      -0.546548       -14.8723
   6   2.0000      -0.527444       -14.3525
   7   2.0000      -0.441471       -12.0130
   8   2.0000      -0.374170       -10.1817
   9   0.0000       0.092905         2.5281
  10   0.0000       0.125200         3.4069
  11   0.0000       0.153569         4.1788
  12   0.0000       0.176087         4.7916
  13   0.0000       0.194859         5.3024

MULLIKEN ATOMIC CHARGES
-----------------------
   0 C :    0.003947
   1 O :   -0.000024
   2 H :   -0.000008
   3 H :   -0.007221
   4 H :   -0.001587
   5 H :   -0.000385
   6 C :   -0.189851
   7 O :   -0.456094
   8 H :    0.311732
   9 H :    0.107748
  10 H :    0.120063
  11 H :    0.111681
Sum of atomic charges:   -0.0000000

LOEWDIN ATOMIC CHARGES
----------------------
   0 C :   -0.011287
   1 O :   -0.000038
   2 H :   -0.000019
   3 H :   -0.013011
   4 H :   -0.000527
   5 H :   -0.002511
   6 C :   -0.389471
   7 O :   -0.049944
   8 H :    0.164264
   9 H :    0.098192
  10 H :    0.107467
  11 H :    0.096886

  Mayer bond orders larger than 0.1
B(  6-C ,  7-O ) :   0.9845 B(  6-C ,  9-H ) :   0.9855 B(  6-C , 10-H ) :   0.9742
B(  6-C , 11-H ) :   0.9687 B(  7-O ,  8-H ) :   0.9048

Dispersion correction           -0.000219933
FINAL SINGLE POINT ENERGY      -115.733462310969

DIPOLE MOMENT
-------------
                                X             Y             Z
Electronic contribution:     -0.77436      -1.26863      -1.16897
Nuclear contribution   :      1.41034       1.30466       1.51521
                        -----------------------------------------
Total Dipole Moment    :      0.63598       0.03604       0.34624
                        -----------------------------------------
Magnitude (a.u.)       :      0.72502
Magnitude (Debye)      :      1.84286

Rotational constants in cm-1:     4.293063     0.836354     0.808165
Rotational constants in MHz : 128702.791285 25073.271030 24228.167589

                             ****ORCA TERMINATED NORMALLY****
TOTAL RUN TIME: 0 days 0 hours 0 minutes 59 seconds 403 msec
