                         Program Version 4.1.2  - RELEASE  -
|  1> #Run DFT-D3 single point of the dimer
|  2> ! wB97X-D3 def2-TZVP TIGHTSCF CHELPG PMODEL PAL8
|  3>
|  4> %base "4-110_DFT_AB"
|  5>
|  6> %scf
|  7> MaxIter 1000
|  8> end
|  9>
| 10> * xyz 0 1
| 11>   C                      2.306363             7.977900             -7.049044
| 12>   O                      3.680497             7.508819             -7.003539
| 13>   H                      3.822370             6.627895             -7.386926
| 14>   H                      2.324172             9.011762             -7.391483
| 15>   H                      1.650519             7.439648             -7.782240
| 16>   H                      1.747418             7.886337             -6.125104
| 17>   C                      -1.169828            6.795126             -7.007762
| 18>   O                      -0.399361            5.869748             -7.708304
| 19>   H                      0.137329             6.289983             -8.371574
| 20>   H                      -1.580734            6.469965             -6.026789
| 21>   H                      -0.450420            7.677559             -6.878350
| 22>   H                      -2.018813            7.158579             -7.518620
| 23> *
| 24>
| 25> #Run DFT-D3 single point of the molecule with dimer basis set
| 26> $new_job
| 27> %base "4-110_DFT_A"
| 28> ! wB97X-D3 def2-TZVP TIGHTSCF CHELPG PMODEL
| 29>
| 30> %scf
| 31> MaxIter 1000
| 32> end
| 33>
| 34> * xyz 0 1
| 35>   C                      2.306363             7.977900             -7.049044
| 36>   O                      3.680497             7.508819             -7.003539
| 37>   H                      3.822370             6.627895             -7.386926
| 38>   H                      2.324172             9.011762             -7.391483
| 39>   H                      1.650519             7.439648             -7.782240
| 40>   H                      1.747418             7.886337             -6.125104
| 41>   C                    : -1.169828            6.795126             -7.007762
| 42>   O                    : -0.399361            5.869748             -7.708304
| 43>   H                    : 0.137329             6.289983             -8.371574
| 44>   H                    : -1.580734            6.469965             -6.026789
| 45>   H                    : -0.450420            7.677559             -6.878350
| 46>   H                    : -2.018813            7.158579             -7.518620
| 47> *
| 48>
| 49> #Run DFT-D3 single point of the particle with dimer basis set
| 50> $new_job
| 51> %base "4-110_DFT_B"
| 52> ! wB97X-D3 def2-TZVP TIGHTSCF CHELPG PMODEL
| 53>
| 54> %scf
| 55> MaxIter 1000
| 56> end
| 57>
| 58> * xyz 0 1
| 59>   C                    : 2.306363             7.977900             -7.049044
| 60>   O                    : 3.680497             7.508819             -7.003539
| 61>   H                    : 3.822370             6.627895             -7.386926
| 62>   H                    : 2.324172             9.011762             -7.391483
| 63>   H                    : 1.650519             7.439648             -7.782240
| 64>   H                    : 1.747418             7.886337             -6.125104
| 65>   C                      -1.169828            6.795126             -7.007762
| 66>   O                      -0.399361            5.869748             -7.708304
| 67>   H                      0.137329             6.289983             -8.371574
| 68>   H                      -1.580734            6.469965             -6.026789
| 69>   H                      -0.450420            7.677559             -6.878350
| 70>   H                      -2.018813            7.158579             -7.518620
| 71> *
| 72>
| 73>                          ****END OF INPUT****
 Total Charge           Charge          ....    0
 Multiplicity           Mult            ....    1
 Number of Electrons    NEL             ....   36
Dispersion correction           -0.001939724
FINAL SINGLE POINT ENERGY      -231.458874584886
Dispersion correction           -0.000293986
FINAL SINGLE POINT ENERGY      -115.731557798371

CARTESIAN COORDINATES (ANGSTROEM)
---------------------------------
  C      2.306363    7.977900   -7.049044
  O      3.680497    7.508819   -7.003539
  H      3.822370    6.627895   -7.386926
  H      2.324172    9.011762   -7.391483
  H      1.650519    7.439648   -7.782240
  H      1.747418    7.886337   -6.125104
  C     -1.169828    6.795126   -7.007762
  O     -0.399361    5.869748   -7.708304
  H      0.137329    6.289983   -8.371574
  H     -1.580734    6.469965   -6.026789
  H     -0.450420    7.677559   -6.878350
  H     -2.018813    7.158579   -7.518620

 Multiplicity           Mult            ....    1
 Number of Electrons    NEL             ....   18
 Basis Dimension        Dim             ....  172

ORBITAL ENERGIES
----------------

  NO   OCC          E(Eh)            E(eV)
   0   2.0000     -19.229161      -523.2521
   1   2.0000     -10.316288      -280.7205
   2   2.0000      -1.143610       -31.1192
   3   2.0000      -0.796342       -21.6696
   4   2.0000      -0.616884       -16.7863
   5   2.0000      -0.547393       -14.8953
   6   2.0000      -0.533295       -14.5117
   7   2.0000      -0.422591       -11.4993
   8   2.0000      -0.370757       -10.0888
   9   0.0000       0.077154         2.0995
  10   0.0000       0.137031         3.7288
  11   0.0000       0.144571         3.9340
  12   0.0000       0.168077         4.5736
  13   0.0000       0.194958         5.3051

MULLIKEN ATOMIC CHARGES
-----------------------
   0 C :    0.007170
   1 O :    0.000074
   2 H :   -0.000091
   3 H :   -0.000132
   4 H :   -0.016862
   5 H :    0.000639
   6 C :   -0.148294
   7 O :   -0.464920
   8 H :    0.320030
   9 H :    0.114043
  10 H :    0.081881
  11 H :    0.106463
Sum of atomic charges:   -0.0000000

LOEWDIN ATOMIC CHARGES
----------------------
   0 C :   -0.012100
   1 O :   -0.000044
   2 H :   -0.000049
   3 H :   -0.000250
   4 H :   -0.010720
   5 H :   -0.003562
   6 C :   -0.393568
   7 O :   -0.050674
   8 H :    0.166745
   9 H :    0.110744
  10 H :    0.110083
  11 H :    0.083395

  Mayer bond orders larger than 0.1
B(  6-C ,  7-O ) :   0.9971 B(  6-C ,  9-H ) :   0.9703 B(  6-C , 10-H ) :   0.9965
B(  6-C , 11-H ) :   0.9739 B(  7-O ,  8-H ) :   0.8982

Dispersion correction           -0.000235943
FINAL SINGLE POINT ENERGY      -115.727945396398

DIPOLE MOMENT
-------------
                                X             Y             Z
Electronic contribution:      0.82658      -1.45053      -0.84273
Nuclear contribution   :     -0.80957       2.06773       0.68102
                        -----------------------------------------
Total Dipole Moment    :      0.01701       0.61721      -0.16171
                        -----------------------------------------
Magnitude (a.u.)       :      0.63827
Magnitude (Debye)      :      1.62234

Rotational constants in cm-1:     4.369248     0.846629     0.808951
Rotational constants in MHz : 130986.774015 25381.294817 24251.752447

                             ****ORCA TERMINATED NORMALLY****
TOTAL RUN TIME: 0 days 0 hours 1 minutes 34 seconds 955 msec
