                         Program Version 4.1.2  - RELEASE  -
|  1> #Run DFT-D3 single point of the dimer
|  2> ! wB97X-D3 def2-TZVP TIGHTSCF CHELPG PMODEL PAL8
|  3>
|  4> %base "16-19_DFT_AB"
|  5>
|  6> %scf
|  7> MaxIter 1000
|  8> end
|  9>
| 10> * xyz 0 1
| 11>   C                      4.271779             4.712240             5.343485
| 12>   O                      4.861457             5.690898             4.454410
| 13>   H                      4.587557             5.662843             3.570705
| 14>   H                      4.713760             3.664029             5.121006
| 15>   H                      4.705710             4.923602             6.335144
| 16>   H                      3.190266             4.808637             5.377588
| 17>   C                      1.197715             6.939054             3.872696
| 18>   O                      2.146857             7.938076             3.927715
| 19>   H                      2.852398             7.761809             3.278307
| 20>   H                      0.345884             7.264611             4.507729
| 21>   H                      0.938358             6.770201             2.820675
| 22>   H                      1.508983             5.993760             4.298612
| 23> *
| 24>
| 25> #Run DFT-D3 single point of the molecule with dimer basis set
| 26> $new_job
| 27> %base "16-19_DFT_A"
| 28> ! wB97X-D3 def2-TZVP TIGHTSCF CHELPG PMODEL
| 29>
| 30> %scf
| 31> MaxIter 1000
| 32> end
| 33>
| 34> * xyz 0 1
| 35>   C                      4.271779             4.712240             5.343485
| 36>   O                      4.861457             5.690898             4.454410
| 37>   H                      4.587557             5.662843             3.570705
| 38>   H                      4.713760             3.664029             5.121006
| 39>   H                      4.705710             4.923602             6.335144
| 40>   H                      3.190266             4.808637             5.377588
| 41>   C                    : 1.197715             6.939054             3.872696
| 42>   O                    : 2.146857             7.938076             3.927715
| 43>   H                    : 2.852398             7.761809             3.278307
| 44>   H                    : 0.345884             7.264611             4.507729
| 45>   H                    : 0.938358             6.770201             2.820675
| 46>   H                    : 1.508983             5.993760             4.298612
| 47> *
| 48>
| 49> #Run DFT-D3 single point of the particle with dimer basis set
| 50> $new_job
| 51> %base "16-19_DFT_B"
| 52> ! wB97X-D3 def2-TZVP TIGHTSCF CHELPG PMODEL
| 53>
| 54> %scf
| 55> MaxIter 1000
| 56> end
| 57>
| 58> * xyz 0 1
| 59>   C                    : 4.271779             4.712240             5.343485
| 60>   O                    : 4.861457             5.690898             4.454410
| 61>   H                    : 4.587557             5.662843             3.570705
| 62>   H                    : 4.713760             3.664029             5.121006
| 63>   H                    : 4.705710             4.923602             6.335144
| 64>   H                    : 3.190266             4.808637             5.377588
| 65>   C                      1.197715             6.939054             3.872696
| 66>   O                      2.146857             7.938076             3.927715
| 67>   H                      2.852398             7.761809             3.278307
| 68>   H                      0.345884             7.264611             4.507729
| 69>   H                      0.938358             6.770201             2.820675
| 70>   H                      1.508983             5.993760             4.298612
| 71> *
| 72>
| 73>                          ****END OF INPUT****
 Total Charge           Charge          ....    0
 Multiplicity           Mult            ....    1
 Number of Electrons    NEL             ....   36
Dispersion correction           -0.001919206
FINAL SINGLE POINT ENERGY      -231.463588917545
Dispersion correction           -0.000280228
FINAL SINGLE POINT ENERGY      -115.729548600426

CARTESIAN COORDINATES (ANGSTROEM)
---------------------------------
  C      4.271779    4.712240    5.343485
  O      4.861457    5.690898    4.454410
  H      4.587557    5.662843    3.570705
  H      4.713760    3.664029    5.121006
  H      4.705710    4.923602    6.335144
  H      3.190266    4.808637    5.377588
  C      1.197715    6.939054    3.872696
  O      2.146857    7.938076    3.927715
  H      2.852398    7.761809    3.278307
  H      0.345884    7.264611    4.507729
  H      0.938358    6.770201    2.820675
  H      1.508983    5.993760    4.298612

 Multiplicity           Mult            ....    1
 Number of Electrons    NEL             ....   18
 Basis Dimension        Dim             ....  172

ORBITAL ENERGIES
----------------

  NO   OCC          E(Eh)            E(eV)
   0   2.0000     -19.230254      -523.2818
   1   2.0000     -10.310006      -280.5495
   2   2.0000      -1.143805       -31.1245
   3   2.0000      -0.791952       -21.5501
   4   2.0000      -0.617055       -16.7909
   5   2.0000      -0.548776       -14.9329
   6   2.0000      -0.526587       -14.3292
   7   2.0000      -0.429594       -11.6898
   8   2.0000      -0.369761       -10.0617
   9   0.0000       0.079882         2.1737
  10   0.0000       0.121744         3.3128
  11   0.0000       0.153004         4.1634
  12   0.0000       0.177796         4.8381
  13   0.0000       0.193446         5.2639

MULLIKEN ATOMIC CHARGES
-----------------------
   0 C :   -0.002050
   1 O :   -0.000745
   2 H :   -0.001362
   3 H :    0.000107
   4 H :    0.000056
   5 H :    0.003561
   6 C :   -0.143773
   7 O :   -0.467238
   8 H :    0.315973
   9 H :    0.115808
  10 H :    0.094805
  11 H :    0.084858
Sum of atomic charges:   -0.0000000

LOEWDIN ATOMIC CHARGES
----------------------
   0 C :   -0.002891
   1 O :   -0.001425
   2 H :   -0.001759
   3 H :   -0.000018
   4 H :   -0.000013
   5 H :   -0.004557
   6 C :   -0.410468
   7 O :   -0.055604
   8 H :    0.178700
   9 H :    0.113980
  10 H :    0.094480
  11 H :    0.089576

  Mayer bond orders larger than 0.1
B(  6-C ,  7-O ) :   1.0088 B(  6-C ,  9-H ) :   0.9750 B(  6-C , 10-H ) :   0.9895
B(  6-C , 11-H ) :   0.9673 B(  7-O ,  8-H ) :   0.8949

Dispersion correction           -0.000225850
FINAL SINGLE POINT ENERGY      -115.734540788018

DIPOLE MOMENT
-------------
                                X             Y             Z
Electronic contribution:      1.16344       1.35582       0.15519
Nuclear contribution   :     -1.07084      -1.83654      -0.58256
                        -----------------------------------------
Total Dipole Moment    :      0.09260      -0.48072      -0.42738
                        -----------------------------------------
Magnitude (a.u.)       :      0.64986
Magnitude (Debye)      :      1.65181

Rotational constants in cm-1:     4.245571     0.871051     0.829823
Rotational constants in MHz : 127279.022812 26113.450159 24877.474619

                             ****ORCA TERMINATED NORMALLY****
TOTAL RUN TIME: 0 days 0 hours 1 minutes 1 seconds 966 msec
