                         Program Version 4.1.2  - RELEASE  -
|  1> #Run DFT-D3 single point of the dimer
|  2> ! wB97X-D3 def2-TZVP TIGHTSCF CHELPG PMODEL PAL8
|  3>
|  4> %base "5-196_DFT_AB"
|  5>
|  6> %scf
|  7> MaxIter 1000
|  8> end
|  9>
| 10> * xyz 0 1
| 11>   C                      -2.888848            -1.772345            6.692776
| 12>   O                      -3.003032            -3.109988            6.959412
| 13>   H                      -2.267008            -3.296468            7.598126
| 14>   H                      -2.440513            -1.184725            7.544793
| 15>   H                      -2.265644            -1.618220            5.769724
| 16>   H                      -3.761533            -1.232645            6.411264
| 17>   C                      0.255841             -3.219939            6.750236
| 18>   O                      -0.231669            -2.914213            8.068768
| 19>   H                      0.176344             -2.033813            8.312058
| 20>   H                      0.410983             -2.223815            6.248797
| 21>   H                      1.273961             -3.723358            6.828161
| 22>   H                      -0.387087            -3.896676            6.146418
| 23> *
| 24>
| 25> #Run DFT-D3 single point of the molecule with dimer basis set
| 26> $new_job
| 27> %base "5-196_DFT_A"
| 28> ! wB97X-D3 def2-TZVP TIGHTSCF CHELPG PMODEL
| 29>
| 30> %scf
| 31> MaxIter 1000
| 32> end
| 33>
| 34> * xyz 0 1
| 35>   C                      -2.888848            -1.772345            6.692776
| 36>   O                      -3.003032            -3.109988            6.959412
| 37>   H                      -2.267008            -3.296468            7.598126
| 38>   H                      -2.440513            -1.184725            7.544793
| 39>   H                      -2.265644            -1.618220            5.769724
| 40>   H                      -3.761533            -1.232645            6.411264
| 41>   C                    : 0.255841             -3.219939            6.750236
| 42>   O                    : -0.231669            -2.914213            8.068768
| 43>   H                    : 0.176344             -2.033813            8.312058
| 44>   H                    : 0.410983             -2.223815            6.248797
| 45>   H                    : 1.273961             -3.723358            6.828161
| 46>   H                    : -0.387087            -3.896676            6.146418
| 47> *
| 48>
| 49> #Run DFT-D3 single point of the particle with dimer basis set
| 50> $new_job
| 51> %base "5-196_DFT_B"
| 52> ! wB97X-D3 def2-TZVP TIGHTSCF CHELPG PMODEL
| 53>
| 54> %scf
| 55> MaxIter 1000
| 56> end
| 57>
| 58> * xyz 0 1
| 59>   C                    : -2.888848            -1.772345            6.692776
| 60>   O                    : -3.003032            -3.109988            6.959412
| 61>   H                    : -2.267008            -3.296468            7.598126
| 62>   H                    : -2.440513            -1.184725            7.544793
| 63>   H                    : -2.265644            -1.618220            5.769724
| 64>   H                    : -3.761533            -1.232645            6.411264
| 65>   C                      0.255841             -3.219939            6.750236
| 66>   O                      -0.231669            -2.914213            8.068768
| 67>   H                      0.176344             -2.033813            8.312058
| 68>   H                      0.410983             -2.223815            6.248797
| 69>   H                      1.273961             -3.723358            6.828161
| 70>   H                      -0.387087            -3.896676            6.146418
| 71> *
| 72>
| 73>                          ****END OF INPUT****
 Total Charge           Charge          ....    0
 Multiplicity           Mult            ....    1
 Number of Electrons    NEL             ....   36
Dispersion correction           -0.002554573
FINAL SINGLE POINT ENERGY      -231.467085045607
Dispersion correction           -0.000235565
FINAL SINGLE POINT ENERGY      -115.728456794139

CARTESIAN COORDINATES (ANGSTROEM)
---------------------------------
  C     -2.888848   -1.772345    6.692776
  O     -3.003032   -3.109988    6.959412
  H     -2.267008   -3.296468    7.598126
  H     -2.440513   -1.184725    7.544793
  H     -2.265644   -1.618220    5.769724
  H     -3.761533   -1.232645    6.411264
  C      0.255841   -3.219939    6.750236
  O     -0.231669   -2.914213    8.068768
  H      0.176344   -2.033813    8.312058
  H      0.410983   -2.223815    6.248797
  H      1.273961   -3.723358    6.828161
  H     -0.387087   -3.896676    6.146418

 Multiplicity           Mult            ....    1
 Number of Electrons    NEL             ....   18
 Basis Dimension        Dim             ....  172

ORBITAL ENERGIES
----------------

  NO   OCC          E(Eh)            E(eV)
   0   2.0000     -19.235400      -523.4218
   1   2.0000     -10.326574      -281.0004
   2   2.0000      -1.124379       -30.5959
   3   2.0000      -0.784795       -21.3554
   4   2.0000      -0.599798       -16.3213
   5   2.0000      -0.533249       -14.5105
   6   2.0000      -0.529383       -14.4052
   7   2.0000      -0.432855       -11.7786
   8   2.0000      -0.370795       -10.0898
   9   0.0000       0.088747         2.4149
  10   0.0000       0.124690         3.3930
  11   0.0000       0.147441         4.0121
  12   0.0000       0.171974         4.6797
  13   0.0000       0.194684         5.2976

MULLIKEN ATOMIC CHARGES
-----------------------
   0 C :    0.007050
   1 O :   -0.001306
   2 H :   -0.001731
   3 H :   -0.011139
   4 H :   -0.000987
   5 H :   -0.000308
   6 C :   -0.189289
   7 O :   -0.470991
   8 H :    0.319979
   9 H :    0.110206
  10 H :    0.111874
  11 H :    0.126642
Sum of atomic charges:   -0.0000000

LOEWDIN ATOMIC CHARGES
----------------------
   0 C :   -0.012694
   1 O :   -0.003760
   2 H :   -0.024529
   3 H :   -0.005458
   4 H :   -0.001830
   5 H :   -0.000112
   6 C :   -0.376603
   7 O :   -0.086096
   8 H :    0.193245
   9 H :    0.103838
  10 H :    0.103153
  11 H :    0.110845

  Mayer bond orders larger than 0.1
B(  6-C ,  7-O ) :   0.9816 B(  6-C ,  9-H ) :   0.9884 B(  6-C , 10-H ) :   0.9666
B(  6-C , 11-H ) :   0.9715 B(  7-O ,  8-H ) :   0.8914

Dispersion correction           -0.000253006
FINAL SINGLE POINT ENERGY      -115.729770565573

DIPOLE MOMENT
-------------
                                X             Y             Z
Electronic contribution:     -0.83089       0.16559       1.64394
Nuclear contribution   :      1.27941       0.25077      -2.02277
                        -----------------------------------------
Total Dipole Moment    :      0.44851       0.41636      -0.37883
                        -----------------------------------------
Magnitude (a.u.)       :      0.71975
Magnitude (Debye)      :      1.82945

Rotational constants in cm-1:     4.013118     0.807149     0.772893
Rotational constants in MHz : 120310.241075 24197.705957 23170.761771

                             ****ORCA TERMINATED NORMALLY****
TOTAL RUN TIME: 0 days 0 hours 1 minutes 3 seconds 816 msec
