                         Program Version 4.1.2  - RELEASE  -
|  1> #Run DFT-D3 single point of the dimer
|  2> ! wB97X-D3 def2-TZVP TIGHTSCF CHELPG PMODEL PAL8
|  3>
|  4> %base "9-178_DFT_AB"
|  5>
|  6> %scf
|  7> MaxIter 1000
|  8> end
|  9>
| 10> * xyz 0 1
| 11>   C                      -3.049772            3.971039             1.999479
| 12>   O                      -4.150856            4.440409             2.744925
| 13>   H                      -4.224266            5.375310             2.680488
| 14>   H                      -3.204653            2.957929             1.505377
| 15>   H                      -2.924149            4.441856             1.049381
| 16>   H                      -2.092798            4.019810             2.500846
| 17>   C                      -5.758727            2.281736             -0.012449
| 18>   O                      -6.241981            3.264940             0.908813
| 19>   H                      -5.634623            3.345040             1.596205
| 20>   H                      -5.261233            2.823329             -0.817087
| 21>   H                      -5.057883            1.652041             0.401358
| 22>   H                      -6.575905            1.760519             -0.520477
| 23> *
| 24>
| 25> #Run DFT-D3 single point of the molecule with dimer basis set
| 26> $new_job
| 27> %base "9-178_DFT_A"
| 28> ! wB97X-D3 def2-TZVP TIGHTSCF CHELPG PMODEL
| 29>
| 30> %scf
| 31> MaxIter 1000
| 32> end
| 33>
| 34> * xyz 0 1
| 35>   C                      -3.049772            3.971039             1.999479
| 36>   O                      -4.150856            4.440409             2.744925
| 37>   H                      -4.224266            5.375310             2.680488
| 38>   H                      -3.204653            2.957929             1.505377
| 39>   H                      -2.924149            4.441856             1.049381
| 40>   H                      -2.092798            4.019810             2.500846
| 41>   C                    : -5.758727            2.281736             -0.012449
| 42>   O                    : -6.241981            3.264940             0.908813
| 43>   H                    : -5.634623            3.345040             1.596205
| 44>   H                    : -5.261233            2.823329             -0.817087
| 45>   H                    : -5.057883            1.652041             0.401358
| 46>   H                    : -6.575905            1.760519             -0.520477
| 47> *
| 48>
| 49> #Run DFT-D3 single point of the particle with dimer basis set
| 50> $new_job
| 51> %base "9-178_DFT_B"
| 52> ! wB97X-D3 def2-TZVP TIGHTSCF CHELPG PMODEL
| 53>
| 54> %scf
| 55> MaxIter 1000
| 56> end
| 57>
| 58> * xyz 0 1
| 59>   C                    : -3.049772            3.971039             1.999479
| 60>   O                    : -4.150856            4.440409             2.744925
| 61>   H                    : -4.224266            5.375310             2.680488
| 62>   H                    : -3.204653            2.957929             1.505377
| 63>   H                    : -2.924149            4.441856             1.049381
| 64>   H                    : -2.092798            4.019810             2.500846
| 65>   C                      -5.758727            2.281736             -0.012449
| 66>   O                      -6.241981            3.264940             0.908813
| 67>   H                      -5.634623            3.345040             1.596205
| 68>   H                      -5.261233            2.823329             -0.817087
| 69>   H                      -5.057883            1.652041             0.401358
| 70>   H                      -6.575905            1.760519             -0.520477
| 71> *
| 72>
| 73>                          ****END OF INPUT****
 Total Charge           Charge          ....    0
 Multiplicity           Mult            ....    1
 Number of Electrons    NEL             ....   36
Dispersion correction           -0.002188553
FINAL SINGLE POINT ENERGY      -231.463380573695
Dispersion correction           -0.000267579
FINAL SINGLE POINT ENERGY      -115.726892357543

CARTESIAN COORDINATES (ANGSTROEM)
---------------------------------
  C     -3.049772    3.971039    1.999479
  O     -4.150856    4.440409    2.744925
  H     -4.224266    5.375310    2.680488
  H     -3.204653    2.957929    1.505377
  H     -2.924149    4.441856    1.049381
  H     -2.092798    4.019810    2.500846
  C     -5.758727    2.281736   -0.012449
  O     -6.241981    3.264940    0.908813
  H     -5.634623    3.345040    1.596205
  H     -5.261233    2.823329   -0.817087
  H     -5.057883    1.652041    0.401358
  H     -6.575905    1.760519   -0.520477

 Multiplicity           Mult            ....    1
 Number of Electrons    NEL             ....   18
 Basis Dimension        Dim             ....  172

ORBITAL ENERGIES
----------------

  NO   OCC          E(Eh)            E(eV)
   0   2.0000     -19.225011      -523.1391
   1   2.0000     -10.307499      -280.4813
   2   2.0000      -1.138202       -30.9720
   3   2.0000      -0.805589       -21.9212
   4   2.0000      -0.618452       -16.8289
   5   2.0000      -0.536422       -14.5968
   6   2.0000      -0.531575       -14.4649
   7   2.0000      -0.443487       -12.0679
   8   2.0000      -0.370794       -10.0898
   9   0.0000       0.072953         1.9852
  10   0.0000       0.139568         3.7978
  11   0.0000       0.147302         4.0083
  12   0.0000       0.172403         4.6913
  13   0.0000       0.185894         5.0584

MULLIKEN ATOMIC CHARGES
-----------------------
   0 C :   -0.010404
   1 O :    0.000296
   2 H :   -0.000089
   3 H :    0.001573
   4 H :    0.001037
   5 H :   -0.000395
   6 C :   -0.173683
   7 O :   -0.465322
   8 H :    0.301228
   9 H :    0.105057
  10 H :    0.118276
  11 H :    0.122427
Sum of atomic charges:    0.0000000

LOEWDIN ATOMIC CHARGES
----------------------
   0 C :   -0.008878
   1 O :   -0.009595
   2 H :   -0.001072
   3 H :   -0.003015
   4 H :   -0.000483
   5 H :   -0.000183
   6 C :   -0.354789
   7 O :   -0.057543
   8 H :    0.143029
   9 H :    0.099933
  10 H :    0.083795
  11 H :    0.108800

  Mayer bond orders larger than 0.1
B(  6-C ,  7-O ) :   0.9900 B(  6-C ,  9-H ) :   0.9847 B(  6-C , 10-H ) :   0.9796
B(  6-C , 11-H ) :   0.9758 B(  7-O ,  8-H ) :   0.9185

Dispersion correction           -0.000234880
FINAL SINGLE POINT ENERGY      -115.730476206077

DIPOLE MOMENT
-------------
                                X             Y             Z
Electronic contribution:     -0.71136       1.09406       1.19607
Nuclear contribution   :      1.31607      -1.46291      -1.13763
                        -----------------------------------------
Total Dipole Moment    :      0.60471      -0.36885       0.05844
                        -----------------------------------------
Magnitude (a.u.)       :      0.71074
Magnitude (Debye)      :      1.80655

Rotational constants in cm-1:     4.521446     0.823542     0.790872
Rotational constants in MHz : 135549.547203 24689.177044 23709.753127

                             ****ORCA TERMINATED NORMALLY****
TOTAL RUN TIME: 0 days 0 hours 0 minutes 48 seconds 193 msec
