                         Program Version 4.1.2  - RELEASE  -
|  1> #Run DFT-D3 single point of the dimer
|  2> ! wB97X-D3 def2-TZVP TIGHTSCF CHELPG PMODEL PAL8
|  3>
|  4> %base "12-161_DFT_AB"
|  5>
|  6> %scf
|  7> MaxIter 1000
|  8> end
|  9>
| 10> * xyz 0 1
| 11>   C                      -7.713229            4.227343             -0.511895
| 12>   O                      -8.035849            5.574030             -0.400636
| 13>   H                      -8.691770            5.566973             0.273674
| 14>   H                      -8.487679            3.694594             -1.122684
| 15>   H                      -6.772463            4.108117             -0.921444
| 16>   H                      -7.696652            3.838080             0.479152
| 17>   C                      -9.408338            5.775754             -4.331752
| 18>   O                      -8.294528            5.564403             -3.557332
| 19>   H                      -8.577541            5.423824             -2.654749
| 20>   H                      -9.887024            6.745537             -4.154483
| 21>   H                      -9.189584            5.665675             -5.387538
| 22>   H                      -10.114420           5.036773             -4.122590
| 23> *
| 24>
| 25> #Run DFT-D3 single point of the molecule with dimer basis set
| 26> $new_job
| 27> %base "12-161_DFT_A"
| 28> ! wB97X-D3 def2-TZVP TIGHTSCF CHELPG PMODEL
| 29>
| 30> %scf
| 31> MaxIter 1000
| 32> end
| 33>
| 34> * xyz 0 1
| 35>   C                      -7.713229            4.227343             -0.511895
| 36>   O                      -8.035849            5.574030             -0.400636
| 37>   H                      -8.691770            5.566973             0.273674
| 38>   H                      -8.487679            3.694594             -1.122684
| 39>   H                      -6.772463            4.108117             -0.921444
| 40>   H                      -7.696652            3.838080             0.479152
| 41>   C                    : -9.408338            5.775754             -4.331752
| 42>   O                    : -8.294528            5.564403             -3.557332
| 43>   H                    : -8.577541            5.423824             -2.654749
| 44>   H                    : -9.887024            6.745537             -4.154483
| 45>   H                    : -9.189584            5.665675             -5.387538
| 46>   H                    : -10.114420           5.036773             -4.122590
| 47> *
| 48>
| 49> #Run DFT-D3 single point of the particle with dimer basis set
| 50> $new_job
| 51> %base "12-161_DFT_B"
| 52> ! wB97X-D3 def2-TZVP TIGHTSCF CHELPG PMODEL
| 53>
| 54> %scf
| 55> MaxIter 1000
| 56> end
| 57>
| 58> * xyz 0 1
| 59>   C                    : -7.713229            4.227343             -0.511895
| 60>   O                    : -8.035849            5.574030             -0.400636
| 61>   H                    : -8.691770            5.566973             0.273674
| 62>   H                    : -8.487679            3.694594             -1.122684
| 63>   H                    : -6.772463            4.108117             -0.921444
| 64>   H                    : -7.696652            3.838080             0.479152
| 65>   C                      -9.408338            5.775754             -4.331752
| 66>   O                      -8.294528            5.564403             -3.557332
| 67>   H                      -8.577541            5.423824             -2.654749
| 68>   H                      -9.887024            6.745537             -4.154483
| 69>   H                      -9.189584            5.665675             -5.387538
| 70>   H                      -10.114420           5.036773             -4.122590
| 71> *
| 72>
| 73>                          ****END OF INPUT****
 Total Charge           Charge          ....    0
 Multiplicity           Mult            ....    1
 Number of Electrons    NEL             ....   36
Dispersion correction           -0.001629729
FINAL SINGLE POINT ENERGY      -231.467739929132
Dispersion correction           -0.000194412
FINAL SINGLE POINT ENERGY      -115.730407793110

CARTESIAN COORDINATES (ANGSTROEM)
---------------------------------
  C     -7.713229    4.227343   -0.511895
  O     -8.035849    5.574030   -0.400636
  H     -8.691770    5.566973    0.273674
  H     -8.487679    3.694594   -1.122684
  H     -6.772463    4.108117   -0.921444
  H     -7.696652    3.838080    0.479152
  C     -9.408338    5.775754   -4.331752
  O     -8.294528    5.564403   -3.557332
  H     -8.577541    5.423824   -2.654749
  H     -9.887024    6.745537   -4.154483
  H     -9.189584    5.665675   -5.387538
  H    -10.114420    5.036773   -4.122590

 Multiplicity           Mult            ....    1
 Number of Electrons    NEL             ....   18
 Basis Dimension        Dim             ....  172

ORBITAL ENERGIES
----------------

  NO   OCC          E(Eh)            E(eV)
   0   2.0000     -19.229013      -523.2480
   1   2.0000     -10.302586      -280.3476
   2   2.0000      -1.150078       -31.2952
   3   2.0000      -0.799010       -21.7422
   4   2.0000      -0.621791       -16.9198
   5   2.0000      -0.549586       -14.9550
   6   2.0000      -0.535932       -14.5835
   7   2.0000      -0.430592       -11.7170
   8   2.0000      -0.372163       -10.1271
   9   0.0000       0.073901         2.0109
  10   0.0000       0.134858         3.6697
  11   0.0000       0.161883         4.4051
  12   0.0000       0.164457         4.4751
  13   0.0000       0.189640         5.1604

MULLIKEN ATOMIC CHARGES
-----------------------
   0 C :    0.000730
   1 O :   -0.000649
   2 H :   -0.000087
   3 H :   -0.004085
   4 H :   -0.000080
   5 H :   -0.000167
   6 C :   -0.164303
   7 O :   -0.463253
   8 H :    0.314836
   9 H :    0.094472
  10 H :    0.116855
  11 H :    0.105729
Sum of atomic charges:   -0.0000000

LOEWDIN ATOMIC CHARGES
----------------------
   0 C :   -0.009518
   1 O :   -0.005830
   2 H :   -0.000412
   3 H :   -0.003140
   4 H :   -0.000608
   5 H :   -0.000098
   6 C :   -0.408821
   7 O :   -0.034525
   8 H :    0.176277
   9 H :    0.093663
  10 H :    0.107921
  11 H :    0.085091

  Mayer bond orders larger than 0.1
B(  6-C ,  7-O ) :   1.0028 B(  6-C ,  9-H ) :   0.9781 B(  6-C , 10-H ) :   0.9718
B(  6-C , 11-H ) :   0.9880 B(  7-O ,  8-H ) :   0.8988

Dispersion correction           -0.000212979
FINAL SINGLE POINT ENERGY      -115.733589109831

DIPOLE MOMENT
-------------
                                X             Y             Z
Electronic contribution:      1.57632      -0.24610       0.88512
Nuclear contribution   :     -2.18961       0.20495      -0.61943
                        -----------------------------------------
Total Dipole Moment    :     -0.61329      -0.04116       0.26569
                        -----------------------------------------
Magnitude (a.u.)       :      0.66964
Magnitude (Debye)      :      1.70208

Rotational constants in cm-1:     4.471985     0.874141     0.842716
Rotational constants in MHz : 134066.745847 26206.099282 25263.992205

                             ****ORCA TERMINATED NORMALLY****
TOTAL RUN TIME: 0 days 0 hours 1 minutes 16 seconds 746 msec
