                         Program Version 4.1.2  - RELEASE  -
|  1> #Run DFT-D3 single point of the dimer
|  2> ! wB97X-D3 def2-TZVP TIGHTSCF CHELPG PMODEL PAL8
|  3>
|  4> %base "3-70_DFT_AB"
|  5>
|  6> %scf
|  7> MaxIter 1000
|  8> end
|  9>
| 10> * xyz 0 1
| 11>   C                      -4.944868            -6.379908            -6.736573
| 12>   O                      -6.142319            -5.643729            -6.610150
| 13>   H                      -6.328640            -5.442620            -7.501184
| 14>   H                      -4.130525            -5.985907            -6.044649
| 15>   H                      -5.172011            -7.357734            -6.328079
| 16>   H                      -4.478197            -6.584611            -7.685240
| 17>   C                      -7.916342            -6.777899            -3.497241
| 18>   O                      -8.592063            -7.645050            -2.610539
| 19>   H                      -8.289805            -7.563570            -1.732779
| 20>   H                      -6.857783            -7.080269            -3.642114
| 21>   H                      -8.305381            -6.748343            -4.490312
| 22>   H                      -8.036397            -5.738256            -3.130291
| 23> *
| 24>
| 25> #Run DFT-D3 single point of the molecule with dimer basis set
| 26> $new_job
| 27> %base "3-70_DFT_A"
| 28> ! wB97X-D3 def2-TZVP TIGHTSCF CHELPG PMODEL
| 29>
| 30> %scf
| 31> MaxIter 1000
| 32> end
| 33>
| 34> * xyz 0 1
| 35>   C                      -4.944868            -6.379908            -6.736573
| 36>   O                      -6.142319            -5.643729            -6.610150
| 37>   H                      -6.328640            -5.442620            -7.501184
| 38>   H                      -4.130525            -5.985907            -6.044649
| 39>   H                      -5.172011            -7.357734            -6.328079
| 40>   H                      -4.478197            -6.584611            -7.685240
| 41>   C                    : -7.916342            -6.777899            -3.497241
| 42>   O                    : -8.592063            -7.645050            -2.610539
| 43>   H                    : -8.289805            -7.563570            -1.732779
| 44>   H                    : -6.857783            -7.080269            -3.642114
| 45>   H                    : -8.305381            -6.748343            -4.490312
| 46>   H                    : -8.036397            -5.738256            -3.130291
| 47> *
| 48>
| 49> #Run DFT-D3 single point of the particle with dimer basis set
| 50> $new_job
| 51> %base "3-70_DFT_B"
| 52> ! wB97X-D3 def2-TZVP TIGHTSCF CHELPG PMODEL
| 53>
| 54> %scf
| 55> MaxIter 1000
| 56> end
| 57>
| 58> * xyz 0 1
| 59>   C                    : -4.944868            -6.379908            -6.736573
| 60>   O                    : -6.142319            -5.643729            -6.610150
| 61>   H                    : -6.328640            -5.442620            -7.501184
| 62>   H                    : -4.130525            -5.985907            -6.044649
| 63>   H                    : -5.172011            -7.357734            -6.328079
| 64>   H                    : -4.478197            -6.584611            -7.685240
| 65>   C                      -7.916342            -6.777899            -3.497241
| 66>   O                      -8.592063            -7.645050            -2.610539
| 67>   H                      -8.289805            -7.563570            -1.732779
| 68>   H                      -6.857783            -7.080269            -3.642114
| 69>   H                      -8.305381            -6.748343            -4.490312
| 70>   H                      -8.036397            -5.738256            -3.130291
| 71> *
| 72>
| 73>                          ****END OF INPUT****
 Total Charge           Charge          ....    0
 Multiplicity           Mult            ....    1
 Number of Electrons    NEL             ....   36
Dispersion correction           -0.001361948
FINAL SINGLE POINT ENERGY      -231.460978391574
Dispersion correction           -0.000252383
FINAL SINGLE POINT ENERGY      -115.726901234965

CARTESIAN COORDINATES (ANGSTROEM)
---------------------------------
  C     -4.944868   -6.379908   -6.736573
  O     -6.142319   -5.643729   -6.610150
  H     -6.328640   -5.442620   -7.501184
  H     -4.130525   -5.985907   -6.044649
  H     -5.172011   -7.357734   -6.328079
  H     -4.478197   -6.584611   -7.685240
  C     -7.916342   -6.777899   -3.497241
  O     -8.592063   -7.645050   -2.610539
  H     -8.289805   -7.563570   -1.732779
  H     -6.857783   -7.080269   -3.642114
  H     -8.305381   -6.748343   -4.490312
  H     -8.036397   -5.738256   -3.130291

 Multiplicity           Mult            ....    1
 Number of Electrons    NEL             ....   18
 Basis Dimension        Dim             ....  172

ORBITAL ENERGIES
----------------

  NO   OCC          E(Eh)            E(eV)
   0   2.0000     -19.225219      -523.1448
   1   2.0000     -10.314192      -280.6634
   2   2.0000      -1.138713       -30.9860
   3   2.0000      -0.801290       -21.8042
   4   2.0000      -0.611149       -16.6302
   5   2.0000      -0.545522       -14.8444
   6   2.0000      -0.533668       -14.5218
   7   2.0000      -0.422223       -11.4893
   8   2.0000      -0.374442       -10.1891
   9   0.0000       0.080989         2.2038
  10   0.0000       0.120507         3.2792
  11   0.0000       0.149538         4.0691
  12   0.0000       0.160113         4.3569
  13   0.0000       0.192127         5.2280

MULLIKEN ATOMIC CHARGES
-----------------------
   0 C :   -0.000309
   1 O :    0.000064
   2 H :   -0.000023
   3 H :    0.000009
   4 H :   -0.000347
   5 H :   -0.000036
   6 C :   -0.163225
   7 O :   -0.478879
   8 H :    0.314956
   9 H :    0.101561
  10 H :    0.124766
  11 H :    0.101462
Sum of atomic charges:    0.0000000

LOEWDIN ATOMIC CHARGES
----------------------
   0 C :   -0.001051
   1 O :   -0.000471
   2 H :   -0.000040
   3 H :   -0.000057
   4 H :   -0.000545
   5 H :   -0.000013
   6 C :   -0.384187
   7 O :   -0.064620
   8 H :    0.149951
   9 H :    0.098757
  10 H :    0.102559
  11 H :    0.099717

  Mayer bond orders larger than 0.1
B(  6-C ,  7-O ) :   0.9948 B(  6-C ,  9-H ) :   0.9760 B(  6-C , 10-H ) :   0.9695
B(  6-C , 11-H ) :   0.9825 B(  7-O ,  8-H ) :   0.9005

Dispersion correction           -0.000249556
FINAL SINGLE POINT ENERGY      -115.732317924919

DIPOLE MOMENT
-------------
                                X             Y             Z
Electronic contribution:     -0.95161      -1.19698       1.03204
Nuclear contribution   :      1.40541       1.60298      -0.84061
                        -----------------------------------------
Total Dipole Moment    :      0.45379       0.40600       0.19143
                        -----------------------------------------
Magnitude (a.u.)       :      0.63829
Magnitude (Debye)      :      1.62240

Rotational constants in cm-1:     4.446965     0.817045     0.804047
Rotational constants in MHz : 133316.653124 24494.402218 24104.732121

                             ****ORCA TERMINATED NORMALLY****
TOTAL RUN TIME: 0 days 0 hours 6 minutes 21 seconds 23 msec
