                         Program Version 4.1.2  - RELEASE  -
|  1> #Run DFT-D3 single point of the dimer
|  2> ! wB97X-D3 def2-TZVP TIGHTSCF CHELPG PMODEL PAL8
|  3>
|  4> %base "1-175_DFT_AB"
|  5>
|  6> %scf
|  7> MaxIter 1000
|  8> end
|  9>
| 10> * xyz 0 1
| 11>   C                      3.124411             6.760712             0.079226
| 12>   O                      3.436967             7.917179             -0.688378
| 13>   H                      4.331407             7.963091             -0.943924
| 14>   H                      3.279896             7.001139             1.161215
| 15>   H                      2.073027             6.448068             0.115483
| 16>   H                      3.707843             5.875850             -0.206455
| 17>   C                      -0.914828            10.289450            -0.296619
| 18>   O                      -0.264873            9.845473             -1.417564
| 19>   H                      0.282445             9.135165             -1.073404
| 20>   H                      -1.731806            10.938854            -0.510970
| 21>   H                      -1.192972            9.332177             0.157957
| 22>   H                      -0.219820            10.825538            0.457156
| 23> *
| 24>
| 25> #Run DFT-D3 single point of the molecule with dimer basis set
| 26> $new_job
| 27> %base "1-175_DFT_A"
| 28> ! wB97X-D3 def2-TZVP TIGHTSCF CHELPG PMODEL
| 29>
| 30> %scf
| 31> MaxIter 1000
| 32> end
| 33>
| 34> * xyz 0 1
| 35>   C                      3.124411             6.760712             0.079226
| 36>   O                      3.436967             7.917179             -0.688378
| 37>   H                      4.331407             7.963091             -0.943924
| 38>   H                      3.279896             7.001139             1.161215
| 39>   H                      2.073027             6.448068             0.115483
| 40>   H                      3.707843             5.875850             -0.206455
| 41>   C                    : -0.914828            10.289450            -0.296619
| 42>   O                    : -0.264873            9.845473             -1.417564
| 43>   H                    : 0.282445             9.135165             -1.073404
| 44>   H                    : -1.731806            10.938854            -0.510970
| 45>   H                    : -1.192972            9.332177             0.157957
| 46>   H                    : -0.219820            10.825538            0.457156
| 47> *
| 48>
| 49> #Run DFT-D3 single point of the particle with dimer basis set
| 50> $new_job
| 51> %base "1-175_DFT_B"
| 52> ! wB97X-D3 def2-TZVP TIGHTSCF CHELPG PMODEL
| 53>
| 54> %scf
| 55> MaxIter 1000
| 56> end
| 57>
| 58> * xyz 0 1
| 59>   C                    : 3.124411             6.760712             0.079226
| 60>   O                    : 3.436967             7.917179             -0.688378
| 61>   H                    : 4.331407             7.963091             -0.943924
| 62>   H                    : 3.279896             7.001139             1.161215
| 63>   H                    : 2.073027             6.448068             0.115483
| 64>   H                    : 3.707843             5.875850             -0.206455
| 65>   C                      -0.914828            10.289450            -0.296619
| 66>   O                      -0.264873            9.845473             -1.417564
| 67>   H                      0.282445             9.135165             -1.073404
| 68>   H                      -1.731806            10.938854            -0.510970
| 69>   H                      -1.192972            9.332177             0.157957
| 70>   H                      -0.219820            10.825538            0.457156
| 71> *
| 72>
| 73>                          ****END OF INPUT****
 Total Charge           Charge          ....    0
 Multiplicity           Mult            ....    1
 Number of Electrons    NEL             ....   36
Dispersion correction           -0.000958707
FINAL SINGLE POINT ENERGY      -231.457153416871
Dispersion correction           -0.000269780
FINAL SINGLE POINT ENERGY      -115.730350817013

CARTESIAN COORDINATES (ANGSTROEM)
---------------------------------
  C      3.124411    6.760712    0.079226
  O      3.436967    7.917179   -0.688378
  H      4.331407    7.963091   -0.943924
  H      3.279896    7.001139    1.161215
  H      2.073027    6.448068    0.115483
  H      3.707843    5.875850   -0.206455
  C     -0.914828   10.289450   -0.296619
  O     -0.264873    9.845473   -1.417564
  H      0.282445    9.135165   -1.073404
  H     -1.731806   10.938854   -0.510970
  H     -1.192972    9.332177    0.157957
  H     -0.219820   10.825538    0.457156

 Multiplicity           Mult            ....    1
 Number of Electrons    NEL             ....   18
 Basis Dimension        Dim             ....  172

ORBITAL ENERGIES
----------------

  NO   OCC          E(Eh)            E(eV)
   0   2.0000     -19.229461      -523.2602
   1   2.0000     -10.314091      -280.6607
   2   2.0000      -1.156397       -31.4672
   3   2.0000      -0.786710       -21.4075
   4   2.0000      -0.618670       -16.8349
   5   2.0000      -0.550315       -14.9748
   6   2.0000      -0.535594       -14.5743
   7   2.0000      -0.435753       -11.8574
   8   2.0000      -0.364450        -9.9172
   9   0.0000       0.070181         1.9097
  10   0.0000       0.115122         3.1326
  11   0.0000       0.155562         4.2331
  12   0.0000       0.158796         4.3211
  13   0.0000       0.193041         5.2529

MULLIKEN ATOMIC CHARGES
-----------------------
   0 C :   -0.000214
   1 O :   -0.000073
   2 H :   -0.000012
   3 H :    0.000025
   4 H :   -0.000114
   5 H :   -0.000005
   6 C :   -0.160943
   7 O :   -0.451628
   8 H :    0.317141
   9 H :    0.122483
  10 H :    0.091640
  11 H :    0.081700
Sum of atomic charges:    0.0000000

LOEWDIN ATOMIC CHARGES
----------------------
   0 C :   -0.000410
   1 O :   -0.000262
   2 H :   -0.000017
   3 H :   -0.000003
   4 H :   -0.000158
   5 H :   -0.000009
   6 C :   -0.422649
   7 O :   -0.047384
   8 H :    0.176809
   9 H :    0.099464
  10 H :    0.096806
  11 H :    0.097812

  Mayer bond orders larger than 0.1
B(  6-C ,  7-O ) :   0.9995 B(  6-C ,  9-H ) :   0.9707 B(  6-C , 10-H ) :   1.0042
B(  6-C , 11-H ) :   0.9646 B(  7-O ,  8-H ) :   0.9012

Dispersion correction           -0.000199725
FINAL SINGLE POINT ENERGY      -115.725159957277

DIPOLE MOMENT
-------------
                                X             Y             Z
Electronic contribution:      0.63827      -0.36352      -1.68514
Nuclear contribution   :     -0.55966       0.06957       2.27014
                        -----------------------------------------
Total Dipole Moment    :      0.07861      -0.29395       0.58500
                        -----------------------------------------
Magnitude (a.u.)       :      0.65940
Magnitude (Debye)      :      1.67607

Rotational constants in cm-1:     4.138791     0.890979     0.852079
Rotational constants in MHz : 124077.832559 26710.889992 25544.680553

                             ****ORCA TERMINATED NORMALLY****
TOTAL RUN TIME: 0 days 0 hours 5 minutes 57 seconds 858 msec
