                         Program Version 4.1.2  - RELEASE  -
|  1> #Run DFT-D3 single point of the dimer
|  2> ! wB97X-D3 def2-TZVP TIGHTSCF CHELPG PMODEL PAL8
|  3>
|  4> %base "22-205_DFT_AB"
|  5>
|  6> %scf
|  7> MaxIter 1000
|  8> end
|  9>
| 10> * xyz 0 1
| 11>   C                      1.036957             3.574297             2.264222
| 12>   O                      0.901714             3.131418             0.918129
| 13>   H                      0.500410             3.835096             0.466656
| 14>   H                      1.735530             4.431400             2.282061
| 15>   H                      0.118558             3.792975             2.761185
| 16>   H                      1.387067             2.884953             2.982155
| 17>   C                      -1.574959            5.552687             0.052939
| 18>   O                      -0.213049            5.315815             -0.311016
| 19>   H                      0.156390             6.059538             -0.790680
| 20>   H                      -2.149226            5.731861             -0.873116
| 21>   H                      -1.975648            4.632163             0.646193
| 22>   H                      -1.674990            6.385533             0.750422
| 23> *
| 24>
| 25> #Run DFT-D3 single point of the molecule with dimer basis set
| 26> $new_job
| 27> %base "22-205_DFT_A"
| 28> ! wB97X-D3 def2-TZVP TIGHTSCF CHELPG PMODEL
| 29>
| 30> %scf
| 31> MaxIter 1000
| 32> end
| 33>
| 34> * xyz 0 1
| 35>   C                      1.036957             3.574297             2.264222
| 36>   O                      0.901714             3.131418             0.918129
| 37>   H                      0.500410             3.835096             0.466656
| 38>   H                      1.735530             4.431400             2.282061
| 39>   H                      0.118558             3.792975             2.761185
| 40>   H                      1.387067             2.884953             2.982155
| 41>   C                    : -1.574959            5.552687             0.052939
| 42>   O                    : -0.213049            5.315815             -0.311016
| 43>   H                    : 0.156390             6.059538             -0.790680
| 44>   H                    : -2.149226            5.731861             -0.873116
| 45>   H                    : -1.975648            4.632163             0.646193
| 46>   H                    : -1.674990            6.385533             0.750422
| 47> *
| 48>
| 49> #Run DFT-D3 single point of the particle with dimer basis set
| 50> $new_job
| 51> %base "22-205_DFT_B"
| 52> ! wB97X-D3 def2-TZVP TIGHTSCF CHELPG PMODEL
| 53>
| 54> %scf
| 55> MaxIter 1000
| 56> end
| 57>
| 58> * xyz 0 1
| 59>   C                    : 1.036957             3.574297             2.264222
| 60>   O                    : 0.901714             3.131418             0.918129
| 61>   H                    : 0.500410             3.835096             0.466656
| 62>   H                    : 1.735530             4.431400             2.282061
| 63>   H                    : 0.118558             3.792975             2.761185
| 64>   H                    : 1.387067             2.884953             2.982155
| 65>   C                      -1.574959            5.552687             0.052939
| 66>   O                      -0.213049            5.315815             -0.311016
| 67>   H                      0.156390             6.059538             -0.790680
| 68>   H                      -2.149226            5.731861             -0.873116
| 69>   H                      -1.975648            4.632163             0.646193
| 70>   H                      -1.674990            6.385533             0.750422
| 71> *
| 72>
| 73>                          ****END OF INPUT****
 Total Charge           Charge          ....    0
 Multiplicity           Mult            ....    1
 Number of Electrons    NEL             ....   36
Dispersion correction           -0.002047795
FINAL SINGLE POINT ENERGY      -231.469139380127
Dispersion correction           -0.000239355
FINAL SINGLE POINT ENERGY      -115.728037623995

CARTESIAN COORDINATES (ANGSTROEM)
---------------------------------
  C      1.036957    3.574297    2.264222
  O      0.901714    3.131418    0.918129
  H      0.500410    3.835096    0.466656
  H      1.735530    4.431400    2.282061
  H      0.118558    3.792975    2.761185
  H      1.387067    2.884953    2.982155
  C     -1.574959    5.552687    0.052939
  O     -0.213049    5.315815   -0.311016
  H      0.156390    6.059538   -0.790680
  H     -2.149226    5.731861   -0.873116
  H     -1.975648    4.632163    0.646193
  H     -1.674990    6.385533    0.750422

 Multiplicity           Mult            ....    1
 Number of Electrons    NEL             ....   18
 Basis Dimension        Dim             ....  172

ORBITAL ENERGIES
----------------

  NO   OCC          E(Eh)            E(eV)
   0   2.0000     -19.228437      -523.2324
   1   2.0000     -10.323447      -280.9153
   2   2.0000      -1.129690       -30.7404
   3   2.0000      -0.791207       -21.5298
   4   2.0000      -0.606543       -16.5049
   5   2.0000      -0.545746       -14.8505
   6   2.0000      -0.517097       -14.0709
   7   2.0000      -0.426247       -11.5988
   8   2.0000      -0.374236       -10.1835
   9   0.0000       0.097366         2.6495
  10   0.0000       0.128101         3.4858
  11   0.0000       0.148284         4.0350
  12   0.0000       0.184273         5.0143
  13   0.0000       0.201577         5.4852

MULLIKEN ATOMIC CHARGES
-----------------------
   0 C :    0.001806
   1 O :    0.001082
   2 H :   -0.007551
   3 H :   -0.003082
   4 H :   -0.000905
   5 H :   -0.000288
   6 C :   -0.162810
   7 O :   -0.479305
   8 H :    0.311750
   9 H :    0.109465
  10 H :    0.121985
  11 H :    0.107853
Sum of atomic charges:   -0.0000000

LOEWDIN ATOMIC CHARGES
----------------------
   0 C :   -0.006378
   1 O :   -0.007255
   2 H :   -0.051803
   3 H :   -0.001225
   4 H :   -0.000530
   5 H :   -0.000095
   6 C :   -0.374678
   7 O :   -0.038242
   8 H :    0.164014
   9 H :    0.098761
  10 H :    0.124685
  11 H :    0.092745

  Mayer bond orders larger than 0.1
B(  6-C ,  7-O ) :   0.9771 B(  6-C ,  9-H ) :   0.9748 B(  6-C , 10-H ) :   0.9735
B(  6-C , 11-H ) :   0.9690 B(  7-O ,  8-H ) :   0.8953

Dispersion correction           -0.000255907
FINAL SINGLE POINT ENERGY      -115.732992289809

DIPOLE MOMENT
-------------
                                X             Y             Z
Electronic contribution:      1.67985      -0.34269      -0.44547
Nuclear contribution   :     -2.00384       0.93253       0.28671
                        -----------------------------------------
Total Dipole Moment    :     -0.32398       0.58984      -0.15876
                        -----------------------------------------
Magnitude (a.u.)       :      0.69143
Magnitude (Debye)      :      1.75748

Rotational constants in cm-1:     4.132605     0.812116     0.781709
Rotational constants in MHz : 123892.380590 24346.639599 23435.049138

                             ****ORCA TERMINATED NORMALLY****
TOTAL RUN TIME: 0 days 0 hours 1 minutes 8 seconds 470 msec
