                         Program Version 4.1.2  - RELEASE  -
|  1> #Run DFT-D3 single point of the dimer
|  2> ! wB97X-D3 def2-TZVP TIGHTSCF CHELPG PMODEL PAL8
|  3>
|  4> %base "6-185_DFT_AB"
|  5>
|  6> %scf
|  7> MaxIter 1000
|  8> end
|  9>
| 10> * xyz 0 1
| 11>   C                      -6.008489            -4.587720            -4.525131
| 12>   O                      -5.657151            -3.490434            -5.323309
| 13>   H                      -4.759430            -3.178681            -5.161051
| 14>   H                      -6.094564            -4.278882            -3.454936
| 15>   H                      -6.943216            -4.900228            -4.978512
| 16>   H                      -5.366793            -5.404057            -4.591604
| 17>   C                      -5.979999            -2.665580            -8.492743
| 18>   O                      -7.065190            -2.793098            -7.533047
| 19>   H                      -6.734265            -3.135389            -6.649309
| 20>   H                      -5.252455            -3.478849            -8.506391
| 21>   H                      -6.339717            -2.428604            -9.499806
| 22>   H                      -5.341708            -1.798120            -8.285072
| 23> *
| 24>
| 25> #Run DFT-D3 single point of the molecule with dimer basis set
| 26> $new_job
| 27> %base "6-185_DFT_A"
| 28> ! wB97X-D3 def2-TZVP TIGHTSCF CHELPG PMODEL
| 29>
| 30> %scf
| 31> MaxIter 1000
| 32> end
| 33>
| 34> * xyz 0 1
| 35>   C                      -6.008489            -4.587720            -4.525131
| 36>   O                      -5.657151            -3.490434            -5.323309
| 37>   H                      -4.759430            -3.178681            -5.161051
| 38>   H                      -6.094564            -4.278882            -3.454936
| 39>   H                      -6.943216            -4.900228            -4.978512
| 40>   H                      -5.366793            -5.404057            -4.591604
| 41>   C                    : -5.979999            -2.665580            -8.492743
| 42>   O                    : -7.065190            -2.793098            -7.533047
| 43>   H                    : -6.734265            -3.135389            -6.649309
| 44>   H                    : -5.252455            -3.478849            -8.506391
| 45>   H                    : -6.339717            -2.428604            -9.499806
| 46>   H                    : -5.341708            -1.798120            -8.285072
| 47> *
| 48>
| 49> #Run DFT-D3 single point of the particle with dimer basis set
| 50> $new_job
| 51> %base "6-185_DFT_B"
| 52> ! wB97X-D3 def2-TZVP TIGHTSCF CHELPG PMODEL
| 53>
| 54> %scf
| 55> MaxIter 1000
| 56> end
| 57>
| 58> * xyz 0 1
| 59>   C                    : -6.008489            -4.587720            -4.525131
| 60>   O                    : -5.657151            -3.490434            -5.323309
| 61>   H                    : -4.759430            -3.178681            -5.161051
| 62>   H                    : -6.094564            -4.278882            -3.454936
| 63>   H                    : -6.943216            -4.900228            -4.978512
| 64>   H                    : -5.366793            -5.404057            -4.591604
| 65>   C                      -5.979999            -2.665580            -8.492743
| 66>   O                      -7.065190            -2.793098            -7.533047
| 67>   H                      -6.734265            -3.135389            -6.649309
| 68>   H                      -5.252455            -3.478849            -8.506391
| 69>   H                      -6.339717            -2.428604            -9.499806
| 70>   H                      -5.341708            -1.798120            -8.285072
| 71> *
| 72>
| 73>                          ****END OF INPUT****
 Total Charge           Charge          ....    0
 Multiplicity           Mult            ....    1
 Number of Electrons    NEL             ....   36
Dispersion correction           -0.001905265
FINAL SINGLE POINT ENERGY      -231.470470030697
Dispersion correction           -0.000239175
FINAL SINGLE POINT ENERGY      -115.733277236917

CARTESIAN COORDINATES (ANGSTROEM)
---------------------------------
  C     -6.008489   -4.587720   -4.525131
  O     -5.657151   -3.490434   -5.323309
  H     -4.759430   -3.178681   -5.161051
  H     -6.094564   -4.278882   -3.454936
  H     -6.943216   -4.900228   -4.978512
  H     -5.366793   -5.404057   -4.591604
  C     -5.979999   -2.665580   -8.492743
  O     -7.065190   -2.793098   -7.533047
  H     -6.734265   -3.135389   -6.649309
  H     -5.252455   -3.478849   -8.506391
  H     -6.339717   -2.428604   -9.499806
  H     -5.341708   -1.798120   -8.285072

 Multiplicity           Mult            ....    1
 Number of Electrons    NEL             ....   18
 Basis Dimension        Dim             ....  172

ORBITAL ENERGIES
----------------

  NO   OCC          E(Eh)            E(eV)
   0   2.0000     -19.236997      -523.4653
   1   2.0000     -10.317590      -280.7559
   2   2.0000      -1.115610       -30.3573
   3   2.0000      -0.798038       -21.7157
   4   2.0000      -0.604330       -16.4446
   5   2.0000      -0.531081       -14.4514
   6   2.0000      -0.519996       -14.1498
   7   2.0000      -0.436791       -11.8857
   8   2.0000      -0.372443       -10.1347
   9   0.0000       0.067007         1.8234
  10   0.0000       0.132324         3.6007
  11   0.0000       0.144688         3.9372
  12   0.0000       0.168120         4.5748
  13   0.0000       0.189891         5.1672

MULLIKEN ATOMIC CHARGES
-----------------------
   0 C :   -0.003471
   1 O :   -0.007637
   2 H :   -0.000004
   3 H :    0.000010
   4 H :   -0.001686
   5 H :    0.000272
   6 C :   -0.171642
   7 O :   -0.486793
   8 H :    0.329280
   9 H :    0.109317
  10 H :    0.127494
  11 H :    0.104859
Sum of atomic charges:    0.0000000

LOEWDIN ATOMIC CHARGES
----------------------
   0 C :   -0.006587
   1 O :   -0.034255
   2 H :   -0.001907
   3 H :   -0.000129
   4 H :   -0.001979
   5 H :   -0.000115
   6 C :   -0.364071
   7 O :   -0.104636
   8 H :    0.211362
   9 H :    0.095446
  10 H :    0.110243
  11 H :    0.096627

  Mayer bond orders larger than 0.1
B(  6-C ,  7-O ) :   0.9878 B(  6-C ,  9-H ) :   0.9716 B(  6-C , 10-H ) :   0.9733
B(  6-C , 11-H ) :   0.9784 B(  7-O ,  8-H ) :   0.8884

Dispersion correction           -0.000288229
FINAL SINGLE POINT ENERGY      -115.730149157924

DIPOLE MOMENT
-------------
                                X             Y             Z
Electronic contribution:     -1.56199      -0.23408       1.08577
Nuclear contribution   :      2.23180       0.09157      -0.94658
                        -----------------------------------------
Total Dipole Moment    :      0.66981      -0.14251       0.13918
                        -----------------------------------------
Magnitude (a.u.)       :      0.69880
Magnitude (Debye)      :      1.77621

Rotational constants in cm-1:     4.393353     0.781292     0.746009
Rotational constants in MHz : 131709.401861 23422.542586 22364.787292

                             ****ORCA TERMINATED NORMALLY****
TOTAL RUN TIME: 0 days 0 hours 1 minutes 9 seconds 550 msec
