                         Program Version 4.1.2  - RELEASE  -
|  1> #Run DFT-D3 single point of the dimer
|  2> ! wB97X-D3 def2-TZVP TIGHTSCF CHELPG PMODEL PAL8
|  3>
|  4> %base "10-0_DFT_AB"
|  5>
|  6> %scf
|  7> MaxIter 1000
|  8> end
|  9>
| 10> * xyz 0 1
| 11>   C                      -6.423069            5.566092             9.013381
| 12>   O                      -6.490406            6.939785             8.703720
| 13>   H                      -5.816488            7.100692             8.090013
| 14>   H                      -7.316964            5.205827             9.520099
| 15>   H                      -6.371598            4.942767             8.107187
| 16>   H                      -5.565183            5.306817             9.669080
| 17>   C                      -6.546840            0.074704             9.038280
| 18>   O                      -6.336000            1.429750             8.808845
| 19>   H                      -5.428613            1.515341             8.559811
| 20>   H                      -7.109638            -0.391232            8.240486
| 21>   H                      -5.589320            -0.496312            9.039589
| 22>   H                      -7.081118            -0.070553            9.995042
| 23> *
| 24>
| 25> #Run DFT-D3 single point of the molecule with dimer basis set
| 26> $new_job
| 27> %base "10-0_DFT_A"
| 28> ! wB97X-D3 def2-TZVP TIGHTSCF CHELPG PMODEL
| 29>
| 30> %scf
| 31> MaxIter 1000
| 32> end
| 33>
| 34> * xyz 0 1
| 35>   C                      -6.423069            5.566092             9.013381
| 36>   O                      -6.490406            6.939785             8.703720
| 37>   H                      -5.816488            7.100692             8.090013
| 38>   H                      -7.316964            5.205827             9.520099
| 39>   H                      -6.371598            4.942767             8.107187
| 40>   H                      -5.565183            5.306817             9.669080
| 41>   C                    : -6.546840            0.074704             9.038280
| 42>   O                    : -6.336000            1.429750             8.808845
| 43>   H                    : -5.428613            1.515341             8.559811
| 44>   H                    : -7.109638            -0.391232            8.240486
| 45>   H                    : -5.589320            -0.496312            9.039589
| 46>   H                    : -7.081118            -0.070553            9.995042
| 47> *
| 48>
| 49> #Run DFT-D3 single point of the particle with dimer basis set
| 50> $new_job
| 51> %base "10-0_DFT_B"
| 52> ! wB97X-D3 def2-TZVP TIGHTSCF CHELPG PMODEL
| 53>
| 54> %scf
| 55> MaxIter 1000
| 56> end
| 57>
| 58> * xyz 0 1
| 59>   C                    : -6.423069            5.566092             9.013381
| 60>   O                    : -6.490406            6.939785             8.703720
| 61>   H                    : -5.816488            7.100692             8.090013
| 62>   H                    : -7.316964            5.205827             9.520099
| 63>   H                    : -6.371598            4.942767             8.107187
| 64>   H                    : -5.565183            5.306817             9.669080
| 65>   C                      -6.546840            0.074704             9.038280
| 66>   O                      -6.336000            1.429750             8.808845
| 67>   H                      -5.428613            1.515341             8.559811
| 68>   H                      -7.109638            -0.391232            8.240486
| 69>   H                      -5.589320            -0.496312            9.039589
| 70>   H                      -7.081118            -0.070553            9.995042
| 71> *
| 72>
| 73>                          ****END OF INPUT****
 Total Charge           Charge          ....    0
 Multiplicity           Mult            ....    1
 Number of Electrons    NEL             ....   36
Dispersion correction           -0.000903677
FINAL SINGLE POINT ENERGY      -231.469963795380
Dispersion correction           -0.000241908
FINAL SINGLE POINT ENERGY      -115.734914129054

CARTESIAN COORDINATES (ANGSTROEM)
---------------------------------
  C     -6.423069    5.566092    9.013381
  O     -6.490406    6.939785    8.703720
  H     -5.816488    7.100692    8.090013
  H     -7.316964    5.205827    9.520099
  H     -6.371598    4.942767    8.107187
  H     -5.565183    5.306817    9.669080
  C     -6.546840    0.074704    9.038280
  O     -6.336000    1.429750    8.808845
  H     -5.428613    1.515341    8.559811
  H     -7.109638   -0.391232    8.240486
  H     -5.589320   -0.496312    9.039589
  H     -7.081118   -0.070553    9.995042

 Multiplicity           Mult            ....    1
 Number of Electrons    NEL             ....   18
 Basis Dimension        Dim             ....  172

ORBITAL ENERGIES
----------------

  NO   OCC          E(Eh)            E(eV)
   0   2.0000     -19.229687      -523.2664
   1   2.0000     -10.313028      -280.6318
   2   2.0000      -1.148609       -31.2552
   3   2.0000      -0.793521       -21.5928
   4   2.0000      -0.619211       -16.8496
   5   2.0000      -0.543144       -14.7797
   6   2.0000      -0.530273       -14.4295
   7   2.0000      -0.433966       -11.8088
   8   2.0000      -0.373017       -10.1503
   9   0.0000       0.091196         2.4816
  10   0.0000       0.115817         3.1516
  11   0.0000       0.153780         4.1846
  12   0.0000       0.177279         4.8240
  13   0.0000       0.195792         5.3278

MULLIKEN ATOMIC CHARGES
-----------------------
   0 C :    0.000126
   1 O :   -0.000031
   2 H :   -0.000009
   3 H :   -0.000478
   4 H :   -0.001442
   5 H :   -0.000348
   6 C :   -0.168625
   7 O :   -0.459316
   8 H :    0.316682
   9 H :    0.104343
  10 H :    0.096923
  11 H :    0.112176
Sum of atomic charges:    0.0000000

LOEWDIN ATOMIC CHARGES
----------------------
   0 C :   -0.001315
   1 O :   -0.000012
   2 H :   -0.000004
   3 H :   -0.000235
   4 H :   -0.000695
   5 H :   -0.000159
   6 C :   -0.405235
   7 O :   -0.053001
   8 H :    0.163859
   9 H :    0.092919
  10 H :    0.099119
  11 H :    0.104759

  Mayer bond orders larger than 0.1
B(  6-C ,  7-O ) :   1.0083 B(  6-C ,  9-H ) :   0.9718 B(  6-C , 10-H ) :   0.9876
B(  6-C , 11-H ) :   0.9755 B(  7-O ,  8-H ) :   0.9017

Dispersion correction           -0.000234363
FINAL SINGLE POINT ENERGY      -115.734222957543

DIPOLE MOMENT
-------------
                                X             Y             Z
Electronic contribution:      0.11692       1.85063      -0.25088
Nuclear contribution   :      0.40867      -2.31720       0.16740
                        -----------------------------------------
Total Dipole Moment    :      0.52559      -0.46657      -0.08348
                        -----------------------------------------
Magnitude (a.u.)       :      0.70774
Magnitude (Debye)      :      1.79894

Rotational constants in cm-1:     4.276129     0.857065     0.821630
Rotational constants in MHz : 128195.107487 25694.168811 24631.854411

                             ****ORCA TERMINATED NORMALLY****
TOTAL RUN TIME: 0 days 0 hours 1 minutes 1 seconds 144 msec
