                         Program Version 4.1.2  - RELEASE  -
|  1> #Run DFT-D3 single point of the dimer
|  2> ! wB97X-D3 def2-TZVP TIGHTSCF CHELPG PMODEL PAL8
|  3>
|  4> %base "4-25_DFT_AB"
|  5>
|  6> %scf
|  7> MaxIter 1000
|  8> end
|  9>
| 10> * xyz 0 1
| 11>   C                      1.278964             -10.654822           2.337766
| 12>   O                      1.975469             -10.763566           3.561013
| 13>   H                      2.763265             -11.256909           3.348373
| 14>   H                      0.900062             -11.560758           2.008515
| 15>   H                      0.551293             -9.905268            2.334664
| 16>   H                      2.032881             -10.389157           1.510708
| 17>   C                      -0.747665            -10.120850           -0.854930
| 18>   O                      -1.466564            -9.464401            0.123687
| 19>   H                      -2.408869            -9.734588            0.068551
| 20>   H                      -0.953188            -11.205681           -0.925067
| 21>   H                      -1.040905            -9.909935            -1.885055
| 22>   H                      0.360955             -10.000571           -0.747927
| 23> *
| 24>
| 25> #Run DFT-D3 single point of the molecule with dimer basis set
| 26> $new_job
| 27> %base "4-25_DFT_A"
| 28> ! wB97X-D3 def2-TZVP TIGHTSCF CHELPG PMODEL
| 29>
| 30> %scf
| 31> MaxIter 1000
| 32> end
| 33>
| 34> * xyz 0 1
| 35>   C                      1.278964             -10.654822           2.337766
| 36>   O                      1.975469             -10.763566           3.561013
| 37>   H                      2.763265             -11.256909           3.348373
| 38>   H                      0.900062             -11.560758           2.008515
| 39>   H                      0.551293             -9.905268            2.334664
| 40>   H                      2.032881             -10.389157           1.510708
| 41>   C                    : -0.747665            -10.120850           -0.854930
| 42>   O                    : -1.466564            -9.464401            0.123687
| 43>   H                    : -2.408869            -9.734588            0.068551
| 44>   H                    : -0.953188            -11.205681           -0.925067
| 45>   H                    : -1.040905            -9.909935            -1.885055
| 46>   H                    : 0.360955             -10.000571           -0.747927
| 47> *
| 48>
| 49> #Run DFT-D3 single point of the particle with dimer basis set
| 50> $new_job
| 51> %base "4-25_DFT_B"
| 52> ! wB97X-D3 def2-TZVP TIGHTSCF CHELPG PMODEL
| 53>
| 54> %scf
| 55> MaxIter 1000
| 56> end
| 57>
| 58> * xyz 0 1
| 59>   C                    : 1.278964             -10.654822           2.337766
| 60>   O                    : 1.975469             -10.763566           3.561013
| 61>   H                    : 2.763265             -11.256909           3.348373
| 62>   H                    : 0.900062             -11.560758           2.008515
| 63>   H                    : 0.551293             -9.905268            2.334664
| 64>   H                    : 2.032881             -10.389157           1.510708
| 65>   C                      -0.747665            -10.120850           -0.854930
| 66>   O                      -1.466564            -9.464401            0.123687
| 67>   H                      -2.408869            -9.734588            0.068551
| 68>   H                      -0.953188            -11.205681           -0.925067
| 69>   H                      -1.040905            -9.909935            -1.885055
| 70>   H                      0.360955             -10.000571           -0.747927
| 71> *
| 72>
| 73>                          ****END OF INPUT****
 Total Charge           Charge          ....    0
 Multiplicity           Mult            ....    1
 Number of Electrons    NEL             ....   36
Dispersion correction           -0.001665729
FINAL SINGLE POINT ENERGY      -231.461245459792
Dispersion correction           -0.000217317
FINAL SINGLE POINT ENERGY      -115.729219777169

CARTESIAN COORDINATES (ANGSTROEM)
---------------------------------
  C      1.278964  -10.654822    2.337766
  O      1.975469  -10.763566    3.561013
  H      2.763265  -11.256909    3.348373
  H      0.900062  -11.560758    2.008515
  H      0.551293   -9.905268    2.334664
  H      2.032881  -10.389157    1.510708
  C     -0.747665  -10.120850   -0.854930
  O     -1.466564   -9.464401    0.123687
  H     -2.408869   -9.734588    0.068551
  H     -0.953188  -11.205681   -0.925067
  H     -1.040905   -9.909935   -1.885055
  H      0.360955  -10.000571   -0.747927

 Multiplicity           Mult            ....    1
 Number of Electrons    NEL             ....   18
 Basis Dimension        Dim             ....  172

ORBITAL ENERGIES
----------------

  NO   OCC          E(Eh)            E(eV)
   0   2.0000     -19.237056      -523.4669
   1   2.0000     -10.314529      -280.6726
   2   2.0000      -1.145034       -31.1580
   3   2.0000      -0.793261       -21.5857
   4   2.0000      -0.625705       -17.0263
   5   2.0000      -0.534340       -14.5401
   6   2.0000      -0.526896       -14.3376
   7   2.0000      -0.437224       -11.8975
   8   2.0000      -0.367214        -9.9924
   9   0.0000       0.090181         2.4540
  10   0.0000       0.115572         3.1449
  11   0.0000       0.149138         4.0582
  12   0.0000       0.176220         4.7952
  13   0.0000       0.193541         5.2665

MULLIKEN ATOMIC CHARGES
-----------------------
   0 C :    0.003522
   1 O :    0.000034
   2 H :    0.000012
   3 H :   -0.000730
   4 H :   -0.003910
   5 H :   -0.000849
   6 C :   -0.179000
   7 O :   -0.462705
   8 H :    0.319898
   9 H :    0.097205
  10 H :    0.098531
  11 H :    0.127992
Sum of atomic charges:   -0.0000000

LOEWDIN ATOMIC CHARGES
----------------------
   0 C :   -0.003835
   1 O :   -0.000023
   2 H :   -0.000006
   3 H :   -0.000399
   4 H :   -0.003271
   5 H :   -0.000993
   6 C :   -0.427914
   7 O :   -0.052794
   8 H :    0.187580
   9 H :    0.094356
  10 H :    0.090980
  11 H :    0.116318

  Mayer bond orders larger than 0.1
B(  6-C ,  7-O ) :   1.0002 B(  6-C ,  9-H ) :   0.9775 B(  6-C , 10-H ) :   0.9708
B(  6-C , 11-H ) :   0.9727 B(  7-O ,  8-H ) :   0.8894

Dispersion correction           -0.000246876
FINAL SINGLE POINT ENERGY      -115.730288829683

DIPOLE MOMENT
-------------
                                X             Y             Z
Electronic contribution:     -0.82778       1.10216       1.47789
Nuclear contribution   :      0.47999      -1.52630      -1.88366
                        -----------------------------------------
Total Dipole Moment    :     -0.34779      -0.42414      -0.40577
                        -----------------------------------------
Magnitude (a.u.)       :      0.68228
Magnitude (Debye)      :      1.73421

Rotational constants in cm-1:     4.374189     0.854146     0.804950
Rotational constants in MHz : 131134.895381 25606.662090 24131.782897

                             ****ORCA TERMINATED NORMALLY****
TOTAL RUN TIME: 0 days 0 hours 1 minutes 35 seconds 94 msec
