                         Program Version 4.1.2  - RELEASE  -
|  1> #Run DFT-D3 single point of the dimer
|  2> ! wB97X-D3 def2-TZVP TIGHTSCF CHELPG PMODEL PAL8
|  3>
|  4> %base "22-54_DFT_AB"
|  5>
|  6> %scf
|  7> MaxIter 1000
|  8> end
|  9>
| 10> * xyz 0 1
| 11>   C                      5.509219             -5.286384            -2.629828
| 12>   O                      6.356411             -4.322206            -3.312786
| 13>   H                      5.806492             -3.659072            -3.753185
| 14>   H                      4.710320             -5.785805            -3.279945
| 15>   H                      6.199272             -6.152955            -2.356879
| 16>   H                      4.910016             -4.863904            -1.771712
| 17>   C                      4.063604             -4.164335            1.522662
| 18>   O                      3.636612             -3.300503            0.440059
| 19>   H                      4.382438             -2.679649            0.364125
| 20>   H                      3.242593             -4.589483            2.142196
| 21>   H                      4.763362             -5.016916            1.216015
| 22>   H                      4.592937             -3.590968            2.334445
| 23> *
| 24>
| 25> #Run DFT-D3 single point of the molecule with dimer basis set
| 26> $new_job
| 27> %base "22-54_DFT_A"
| 28> ! wB97X-D3 def2-TZVP TIGHTSCF CHELPG PMODEL
| 29>
| 30> %scf
| 31> MaxIter 1000
| 32> end
| 33>
| 34> * xyz 0 1
| 35>   C                      5.509219             -5.286384            -2.629828
| 36>   O                      6.356411             -4.322206            -3.312786
| 37>   H                      5.806492             -3.659072            -3.753185
| 38>   H                      4.710320             -5.785805            -3.279945
| 39>   H                      6.199272             -6.152955            -2.356879
| 40>   H                      4.910016             -4.863904            -1.771712
| 41>   C                    : 4.063604             -4.164335            1.522662
| 42>   O                    : 3.636612             -3.300503            0.440059
| 43>   H                    : 4.382438             -2.679649            0.364125
| 44>   H                    : 3.242593             -4.589483            2.142196
| 45>   H                    : 4.763362             -5.016916            1.216015
| 46>   H                    : 4.592937             -3.590968            2.334445
| 47> *
| 48>
| 49> #Run DFT-D3 single point of the particle with dimer basis set
| 50> $new_job
| 51> %base "22-54_DFT_B"
| 52> ! wB97X-D3 def2-TZVP TIGHTSCF CHELPG PMODEL
| 53>
| 54> %scf
| 55> MaxIter 1000
| 56> end
| 57>
| 58> * xyz 0 1
| 59>   C                    : 5.509219             -5.286384            -2.629828
| 60>   O                    : 6.356411             -4.322206            -3.312786
| 61>   H                    : 5.806492             -3.659072            -3.753185
| 62>   H                    : 4.710320             -5.785805            -3.279945
| 63>   H                    : 6.199272             -6.152955            -2.356879
| 64>   H                    : 4.910016             -4.863904            -1.771712
| 65>   C                      4.063604             -4.164335            1.522662
| 66>   O                      3.636612             -3.300503            0.440059
| 67>   H                      4.382438             -2.679649            0.364125
| 68>   H                      3.242593             -4.589483            2.142196
| 69>   H                      4.763362             -5.016916            1.216015
| 70>   H                      4.592937             -3.590968            2.334445
| 71> *
| 72>
| 73>                          ****END OF INPUT****
 Total Charge           Charge          ....    0
 Multiplicity           Mult            ....    1
 Number of Electrons    NEL             ....   36
Dispersion correction           -0.001364682
FINAL SINGLE POINT ENERGY      -231.461157569739
Dispersion correction           -0.000300120
FINAL SINGLE POINT ENERGY      -115.730012582717

CARTESIAN COORDINATES (ANGSTROEM)
---------------------------------
  C      5.509219   -5.286384   -2.629828
  O      6.356411   -4.322206   -3.312786
  H      5.806492   -3.659072   -3.753185
  H      4.710320   -5.785805   -3.279945
  H      6.199272   -6.152955   -2.356879
  H      4.910016   -4.863904   -1.771712
  C      4.063604   -4.164335    1.522662
  O      3.636612   -3.300503    0.440059
  H      4.382438   -2.679649    0.364125
  H      3.242593   -4.589483    2.142196
  H      4.763362   -5.016916    1.216015
  H      4.592937   -3.590968    2.334445

 Multiplicity           Mult            ....    1
 Number of Electrons    NEL             ....   18
 Basis Dimension        Dim             ....  172

ORBITAL ENERGIES
----------------

  NO   OCC          E(Eh)            E(eV)
   0   2.0000     -19.240204      -523.5526
   1   2.0000     -10.327815      -281.0341
   2   2.0000      -1.130477       -30.7618
   3   2.0000      -0.789204       -21.4753
   4   2.0000      -0.602973       -16.4077
   5   2.0000      -0.535419       -14.5695
   6   2.0000      -0.520410       -14.1611
   7   2.0000      -0.434490       -11.8231
   8   2.0000      -0.380019       -10.3408
   9   0.0000       0.087467         2.3801
  10   0.0000       0.118615         3.2277
  11   0.0000       0.140482         3.8227
  12   0.0000       0.165827         4.5124
  13   0.0000       0.188674         5.1341

MULLIKEN ATOMIC CHARGES
-----------------------
   0 C :    0.001807
   1 O :    0.000049
   2 H :   -0.000039
   3 H :   -0.000169
   4 H :   -0.000061
   5 H :   -0.007206
   6 C :   -0.203773
   7 O :   -0.459791
   8 H :    0.321465
   9 H :    0.125623
  10 H :    0.111186
  11 H :    0.110909
Sum of atomic charges:    0.0000000

LOEWDIN ATOMIC CHARGES
----------------------
   0 C :   -0.001237
   1 O :   -0.000013
   2 H :   -0.000011
   3 H :   -0.000013
   4 H :   -0.000026
   5 H :   -0.004795
   6 C :   -0.389369
   7 O :   -0.099063
   8 H :    0.179885
   9 H :    0.109709
  10 H :    0.103943
  11 H :    0.100989

  Mayer bond orders larger than 0.1
B(  6-C ,  7-O ) :   1.0043 B(  6-C ,  9-H ) :   0.9707 B(  6-C , 10-H ) :   0.9649
B(  6-C , 11-H ) :   0.9796 B(  7-O ,  8-H ) :   0.8973

Dispersion correction           -0.000281969
FINAL SINGLE POINT ENERGY      -115.729049262106

DIPOLE MOMENT
-------------
                                X             Y             Z
Electronic contribution:     -0.78290       1.04590      -1.57533
Nuclear contribution   :      1.39275      -0.97263       1.99278
                        -----------------------------------------
Total Dipole Moment    :      0.60985       0.07327       0.41745
                        -----------------------------------------
Magnitude (a.u.)       :      0.74266
Magnitude (Debye)      :      1.88770

Rotational constants in cm-1:     4.170377     0.779487     0.760861
Rotational constants in MHz : 125024.764681 23368.440573 22810.030147

                             ****ORCA TERMINATED NORMALLY****
TOTAL RUN TIME: 0 days 0 hours 0 minutes 51 seconds 996 msec
