                         Program Version 4.1.2  - RELEASE  -
|  1> #Run DFT-D3 single point of the dimer
|  2> ! wB97X-D3 def2-TZVP TIGHTSCF CHELPG PMODEL PAL8
|  3>
|  4> %base "20-84_DFT_AB"
|  5>
|  6> %scf
|  7> MaxIter 1000
|  8> end
|  9>
| 10> * xyz 0 1
| 11>   C                      -2.839955            -3.953407            -0.078150
| 12>   O                      -2.008247            -2.946951            0.371114
| 13>   H                      -2.187683            -2.219467            -0.178250
| 14>   H                      -3.058394            -3.772306            -1.120352
| 15>   H                      -2.431864            -4.948480            0.016022
| 16>   H                      -3.792097            -3.920621            0.402216
| 17>   C                      -6.826879            -4.018739            -0.087130
| 18>   O                      -6.198278            -4.970854            0.736320
| 19>   H                      -5.765624            -4.521094            1.457970
| 20>   H                      -6.457345            -3.047457            0.212081
| 21>   H                      -6.720322            -4.081196            -1.169037
| 22>   H                      -7.908160            -4.056641            0.147023
| 23> *
| 24>
| 25> #Run DFT-D3 single point of the molecule with dimer basis set
| 26> $new_job
| 27> %base "20-84_DFT_A"
| 28> ! wB97X-D3 def2-TZVP TIGHTSCF CHELPG PMODEL
| 29>
| 30> %scf
| 31> MaxIter 1000
| 32> end
| 33>
| 34> * xyz 0 1
| 35>   C                      -2.839955            -3.953407            -0.078150
| 36>   O                      -2.008247            -2.946951            0.371114
| 37>   H                      -2.187683            -2.219467            -0.178250
| 38>   H                      -3.058394            -3.772306            -1.120352
| 39>   H                      -2.431864            -4.948480            0.016022
| 40>   H                      -3.792097            -3.920621            0.402216
| 41>   C                    : -6.826879            -4.018739            -0.087130
| 42>   O                    : -6.198278            -4.970854            0.736320
| 43>   H                    : -5.765624            -4.521094            1.457970
| 44>   H                    : -6.457345            -3.047457            0.212081
| 45>   H                    : -6.720322            -4.081196            -1.169037
| 46>   H                    : -7.908160            -4.056641            0.147023
| 47> *
| 48>
| 49> #Run DFT-D3 single point of the particle with dimer basis set
| 50> $new_job
| 51> %base "20-84_DFT_B"
| 52> ! wB97X-D3 def2-TZVP TIGHTSCF CHELPG PMODEL
| 53>
| 54> %scf
| 55> MaxIter 1000
| 56> end
| 57>
| 58> * xyz 0 1
| 59>   C                    : -2.839955            -3.953407            -0.078150
| 60>   O                    : -2.008247            -2.946951            0.371114
| 61>   H                    : -2.187683            -2.219467            -0.178250
| 62>   H                    : -3.058394            -3.772306            -1.120352
| 63>   H                    : -2.431864            -4.948480            0.016022
| 64>   H                    : -3.792097            -3.920621            0.402216
| 65>   C                      -6.826879            -4.018739            -0.087130
| 66>   O                      -6.198278            -4.970854            0.736320
| 67>   H                      -5.765624            -4.521094            1.457970
| 68>   H                      -6.457345            -3.047457            0.212081
| 69>   H                      -6.720322            -4.081196            -1.169037
| 70>   H                      -7.908160            -4.056641            0.147023
| 71> *
| 72>
| 73>                          ****END OF INPUT****
 Total Charge           Charge          ....    0
 Multiplicity           Mult            ....    1
 Number of Electrons    NEL             ....   36
Dispersion correction           -0.001673588
FINAL SINGLE POINT ENERGY      -231.464349692683
Dispersion correction           -0.000207890
FINAL SINGLE POINT ENERGY      -115.731749318070

CARTESIAN COORDINATES (ANGSTROEM)
---------------------------------
  C     -2.839955   -3.953407   -0.078150
  O     -2.008247   -2.946951    0.371114
  H     -2.187683   -2.219467   -0.178250
  H     -3.058394   -3.772306   -1.120352
  H     -2.431864   -4.948480    0.016022
  H     -3.792097   -3.920621    0.402216
  C     -6.826879   -4.018739   -0.087130
  O     -6.198278   -4.970854    0.736320
  H     -5.765624   -4.521094    1.457970
  H     -6.457345   -3.047457    0.212081
  H     -6.720322   -4.081196   -1.169037
  H     -7.908160   -4.056641    0.147023

 Multiplicity           Mult            ....    1
 Number of Electrons    NEL             ....   18
 Basis Dimension        Dim             ....  172

ORBITAL ENERGIES
----------------

  NO   OCC          E(Eh)            E(eV)
   0   2.0000     -19.229298      -523.2558
   1   2.0000     -10.313256      -280.6380
   2   2.0000      -1.139817       -31.0160
   3   2.0000      -0.796579       -21.6760
   4   2.0000      -0.615258       -16.7420
   5   2.0000      -0.541696       -14.7403
   6   2.0000      -0.535655       -14.5759
   7   2.0000      -0.428184       -11.6515
   8   2.0000      -0.372539       -10.1373
   9   0.0000       0.082896         2.2557
  10   0.0000       0.125441         3.4134
  11   0.0000       0.149139         4.0583
  12   0.0000       0.168945         4.5972
  13   0.0000       0.195635         5.3235

MULLIKEN ATOMIC CHARGES
-----------------------
   0 C :    0.017455
   1 O :   -0.000369
   2 H :   -0.000125
   3 H :   -0.001418
   4 H :   -0.000586
   5 H :   -0.031181
   6 C :   -0.171850
   7 O :   -0.466130
   8 H :    0.320343
   9 H :    0.100249
  10 H :    0.121101
  11 H :    0.112510
Sum of atomic charges:    0.0000000

LOEWDIN ATOMIC CHARGES
----------------------
   0 C :   -0.004950
   1 O :   -0.000030
   2 H :   -0.000020
   3 H :   -0.000146
   4 H :   -0.000265
   5 H :   -0.010303
   6 C :   -0.388678
   7 O :   -0.062593
   8 H :    0.167400
   9 H :    0.094678
  10 H :    0.102363
  11 H :    0.102544

  Mayer bond orders larger than 0.1
B(  6-C ,  7-O ) :   0.9846 B(  6-C ,  9-H ) :   0.9937 B(  6-C , 10-H ) :   0.9685
B(  6-C , 11-H ) :   0.9822 B(  7-O ,  8-H ) :   0.8978

Dispersion correction           -0.000238136
FINAL SINGLE POINT ENERGY      -115.731687475310

DIPOLE MOMENT
-------------
                                X             Y             Z
Electronic contribution:      0.82550      -1.39586       0.85948
Nuclear contribution   :     -0.79939       2.07910      -0.72003
                        -----------------------------------------
Total Dipole Moment    :      0.02611       0.68324       0.13945
                        -----------------------------------------
Magnitude (a.u.)       :      0.69781
Magnitude (Debye)      :      1.77370

Rotational constants in cm-1:     4.390821     0.834444     0.807399
Rotational constants in MHz : 131633.514998 25016.012572 24205.199163

                             ****ORCA TERMINATED NORMALLY****
TOTAL RUN TIME: 0 days 0 hours 1 minutes 0 seconds 146 msec
