                         Program Version 4.1.2  - RELEASE  -
|  1> #Run DFT-D3 single point of the dimer
|  2> ! wB97X-D3 def2-TZVP TIGHTSCF CHELPG PMODEL PAL8
|  3>
|  4> %base "20-168_DFT_AB"
|  5>
|  6> %scf
|  7> MaxIter 1000
|  8> end
|  9>
| 10> * xyz 0 1
| 11>   C                      -9.341786            0.402285             -5.756375
| 12>   O                      -8.319399            0.531478             -6.729478
| 13>   H                      -8.225053            -0.304545            -7.225641
| 14>   H                      -8.919223            -0.177893            -4.987154
| 15>   H                      -9.644535            1.322334             -5.269449
| 16>   H                      -10.175018           -0.165986            -6.165569
| 17>   C                      -8.039014            -1.535867            -9.273362
| 18>   O                      -7.950235            -2.090998            -7.979162
| 19>   H                      -8.837884            -2.380617            -7.729395
| 20>   H                      -8.260578            -2.284652            -9.990543
| 21>   H                      -8.826816            -0.817204            -9.409431
| 22>   H                      -7.131300            -1.044793            -9.535242
| 23> *
| 24>
| 25> #Run DFT-D3 single point of the molecule with dimer basis set
| 26> $new_job
| 27> %base "20-168_DFT_A"
| 28> ! wB97X-D3 def2-TZVP TIGHTSCF CHELPG PMODEL
| 29>
| 30> %scf
| 31> MaxIter 1000
| 32> end
| 33>
| 34> * xyz 0 1
| 35>   C                      -9.341786            0.402285             -5.756375
| 36>   O                      -8.319399            0.531478             -6.729478
| 37>   H                      -8.225053            -0.304545            -7.225641
| 38>   H                      -8.919223            -0.177893            -4.987154
| 39>   H                      -9.644535            1.322334             -5.269449
| 40>   H                      -10.175018           -0.165986            -6.165569
| 41>   C                    : -8.039014            -1.535867            -9.273362
| 42>   O                    : -7.950235            -2.090998            -7.979162
| 43>   H                    : -8.837884            -2.380617            -7.729395
| 44>   H                    : -8.260578            -2.284652            -9.990543
| 45>   H                    : -8.826816            -0.817204            -9.409431
| 46>   H                    : -7.131300            -1.044793            -9.535242
| 47> *
| 48>
| 49> #Run DFT-D3 single point of the particle with dimer basis set
| 50> $new_job
| 51> %base "20-168_DFT_B"
| 52> ! wB97X-D3 def2-TZVP TIGHTSCF CHELPG PMODEL
| 53>
| 54> %scf
| 55> MaxIter 1000
| 56> end
| 57>
| 58> * xyz 0 1
| 59>   C                    : -9.341786            0.402285             -5.756375
| 60>   O                    : -8.319399            0.531478             -6.729478
| 61>   H                    : -8.225053            -0.304545            -7.225641
| 62>   H                    : -8.919223            -0.177893            -4.987154
| 63>   H                    : -9.644535            1.322334             -5.269449
| 64>   H                    : -10.175018           -0.165986            -6.165569
| 65>   C                      -8.039014            -1.535867            -9.273362
| 66>   O                      -7.950235            -2.090998            -7.979162
| 67>   H                      -8.837884            -2.380617            -7.729395
| 68>   H                      -8.260578            -2.284652            -9.990543
| 69>   H                      -8.826816            -0.817204            -9.409431
| 70>   H                      -7.131300            -1.044793            -9.535242
| 71> *
| 72>
| 73>                          ****END OF INPUT****
 Total Charge           Charge          ....    0
 Multiplicity           Mult            ....    1
 Number of Electrons    NEL             ....   36
Dispersion correction           -0.001979330
FINAL SINGLE POINT ENERGY      -231.471620765930
Dispersion correction           -0.000223482
FINAL SINGLE POINT ENERGY      -115.731075207039

CARTESIAN COORDINATES (ANGSTROEM)
---------------------------------
  C     -9.341786    0.402285   -5.756375
  O     -8.319399    0.531478   -6.729478
  H     -8.225053   -0.304545   -7.225641
  H     -8.919223   -0.177893   -4.987154
  H     -9.644535    1.322334   -5.269449
  H    -10.175018   -0.165986   -6.165569
  C     -8.039014   -1.535867   -9.273362
  O     -7.950235   -2.090998   -7.979162
  H     -8.837884   -2.380617   -7.729395
  H     -8.260578   -2.284652   -9.990543
  H     -8.826816   -0.817204   -9.409431
  H     -7.131300   -1.044793   -9.535242

 Multiplicity           Mult            ....    1
 Number of Electrons    NEL             ....   18
 Basis Dimension        Dim             ....  172

ORBITAL ENERGIES
----------------

  NO   OCC          E(Eh)            E(eV)
   0   2.0000     -19.232596      -523.3456
   1   2.0000     -10.303852      -280.3821
   2   2.0000      -1.136922       -30.9372
   3   2.0000      -0.802536       -21.8381
   4   2.0000      -0.615997       -16.7621
   5   2.0000      -0.543232       -14.7821
   6   2.0000      -0.529187       -14.3999
   7   2.0000      -0.440052       -11.9744
   8   2.0000      -0.373817       -10.1721
   9   0.0000       0.086549         2.3551
  10   0.0000       0.131960         3.5908
  11   0.0000       0.150987         4.1086
  12   0.0000       0.186759         5.0820
  13   0.0000       0.194946         5.3048

MULLIKEN ATOMIC CHARGES
-----------------------
   0 C :   -0.004564
   1 O :    0.002268
   2 H :   -0.005974
   3 H :    0.000112
   4 H :   -0.000518
   5 H :   -0.001234
   6 C :   -0.167719
   7 O :   -0.477213
   8 H :    0.317595
   9 H :    0.111176
  10 H :    0.104009
  11 H :    0.122060
Sum of atomic charges:   -0.0000000

LOEWDIN ATOMIC CHARGES
----------------------
   0 C :   -0.003883
   1 O :   -0.004853
   2 H :   -0.039600
   3 H :   -0.000327
   4 H :   -0.000100
   5 H :   -0.000817
   6 C :   -0.373786
   7 O :   -0.042290
   8 H :    0.176148
   9 H :    0.090492
  10 H :    0.093591
  11 H :    0.105425

  Mayer bond orders larger than 0.1
B(  6-C ,  7-O ) :   0.9770 B(  6-C ,  9-H ) :   0.9783 B(  6-C , 10-H ) :   0.9790
B(  6-C , 11-H ) :   0.9791 B(  7-O ,  8-H ) :   0.8969

Dispersion correction           -0.000229258
FINAL SINGLE POINT ENERGY      -115.735143278097

DIPOLE MOMENT
-------------
                                X             Y             Z
Electronic contribution:      0.30816      -0.68477       1.68251
Nuclear contribution   :     -0.90381       0.72150      -2.06396
                        -----------------------------------------
Total Dipole Moment    :     -0.59565       0.03673      -0.38145
                        -----------------------------------------
Magnitude (a.u.)       :      0.70827
Magnitude (Debye)      :      1.80029

Rotational constants in cm-1:     4.517193     0.837950     0.802632
Rotational constants in MHz : 135422.036740 25121.113721 24062.293844

                             ****ORCA TERMINATED NORMALLY****
TOTAL RUN TIME: 0 days 0 hours 1 minutes 4 seconds 413 msec
