                         Program Version 4.1.2  - RELEASE  -
|  1> #Run DFT-D3 single point of the dimer
|  2> ! wB97X-D3 def2-TZVP TIGHTSCF  CHELPG PAL8
|  3>
|  4> %base "49_charges"
|  5>
|  6> %scf
|  7> MaxIter 1000
|  8> end
|  9> %output
| 10>   Print[ P_Mayer ] 1
| 11>   Print[ P_NatPop ] 1
| 12>   Print[ P_Hirshfeld ] 1
| 13>   Print[ P_Mulliken ] 1
| 14>   Print [ P_Loewdin ] 1
| 15> end
| 16>
| 17> * xyz 0 1
| 18>   C                      -2.704458            -8.036786            2.512560
| 19>   O                      -2.182669            -6.867522            1.842649
| 20>   H                      -2.395870            -6.101171            2.422778
| 21>   H                      -3.382988            -8.597852            1.878885
| 22>   H                      -1.943654            -8.752590            2.763821
| 23>   H                      -3.299978            -7.766045            3.357662
| 24> *
| 25>
| 26>                          ****END OF INPUT****

CARTESIAN COORDINATES (ANGSTROEM)
---------------------------------
  C     -2.704458   -8.036786    2.512560
  O     -2.182669   -6.867522    1.842649
  H     -2.395870   -6.101171    2.422778
  H     -3.382988   -8.597852    1.878885
  H     -1.943654   -8.752590    2.763821
  H     -3.299978   -7.766045    3.357662

 Total Charge           Charge          ....    0
 Multiplicity           Mult            ....    1
 Number of Electrons    NEL             ....   18
 Basis Dimension        Dim             ....   86

ORBITAL ENERGIES
----------------

  NO   OCC          E(Eh)            E(eV)
   0   2.0000     -19.232768      -523.3502
   1   2.0000     -10.309584      -280.5380
   2   2.0000      -1.122974       -30.5577
   3   2.0000      -0.799647       -21.7595
   4   2.0000      -0.604956       -16.4617
   5   2.0000      -0.537403       -14.6235
   6   2.0000      -0.526720       -14.3328
   7   2.0000      -0.438027       -11.9193
   8   2.0000      -0.373627       -10.1669
   9   0.0000       0.110874         3.0170
  10   0.0000       0.152355         4.1458
  11   0.0000       0.199259         5.4221
  12   0.0000       0.211727         5.7614
  13   0.0000       0.233088         6.3427

MULLIKEN ATOMIC CHARGES
-----------------------
   0 C :   -0.175556
   1 O :   -0.476372
   2 H :    0.317332
   3 H :    0.109236
   4 H :    0.115005
   5 H :    0.110355
Sum of atomic charges:   -0.0000000

LOEWDIN ATOMIC CHARGES
----------------------
   0 C :   -0.361924
   1 O :   -0.110222
   2 H :    0.182629
   3 H :    0.099357
   4 H :    0.096724
   5 H :    0.093436

  Mayer bond orders larger than 0.1
B(  0-C ,  1-O ) :   1.0124 B(  0-C ,  3-H ) :   0.9770 B(  0-C ,  4-H ) :   0.9752
B(  0-C ,  5-H ) :   0.9854 B(  1-O ,  2-H ) :   0.8993

Dispersion correction           -0.000257522
FINAL SINGLE POINT ENERGY      -115.732253498865

DIPOLE MOMENT
-------------
                                X             Y             Z
Electronic contribution:      0.77261       1.42112      -0.90594
Nuclear contribution   :     -1.14160      -1.42042       1.55596
                        -----------------------------------------
Total Dipole Moment    :     -0.36899       0.00069       0.65002
                        -----------------------------------------
Magnitude (a.u.)       :      0.74745
Magnitude (Debye)      :      1.89986

Rotational constants in cm-1:     4.414811     0.803431     0.770393
Rotational constants in MHz : 132352.690504 24086.245225 23095.802024

                             ****ORCA TERMINATED NORMALLY****
TOTAL RUN TIME: 0 days 0 hours 0 minutes 43 seconds 891 msec
