                         Program Version 4.1.2  - RELEASE  -
|  1> #Run DFT geometry optimization
|  2> ! wB97X-D3 def2-TZVP TIGHTSCF Grid5 FinalGrid6 Opt CHELPG PAL4
|  3>
|  4> %base "2_geo_opt"
|  5> %geom MaxIter 500
|  6> end
|  7>
|  8> %geom
|  9>   Constraints
| 10>     { B 5 0 C }
| 11>   end
| 12> end
| 13>
| 14>
| 15> * xyz 0 1
| 16>   C                    3.011452             -1.181143            0.598397
| 17>   O                    4.394817             -1.128295            0.874212
| 18>   H                    4.772340             -0.379267            0.412398
| 19>   H                    2.806578             -1.319210            -0.469445
| 20>   H                    2.611776             -2.040510            1.135803
| 21>   H                    2.484613             -0.284246            0.945754
| 22> *
| 23>
| 24>                          ****END OF INPUT****
 Total Charge           Charge          ....    0
 Multiplicity           Mult            ....    1
 Number of Electrons    NEL             ....   18
Dispersion correction           -0.000239375
FINAL SINGLE POINT ENERGY      -115.738051173505
Dispersion correction            ... done
                    ***********************HURRAY********************

CARTESIAN COORDINATES (ANGSTROEM)
---------------------------------
  C      3.011517   -1.181188    0.598425
  O      4.394832   -1.128270    0.874192
  H      4.772318   -0.379237    0.412381
  H      2.806593   -1.319195   -0.469411
  H      2.611670   -2.040487    1.135790
  H      2.484646   -0.284294    0.945742

 Multiplicity           Mult            ....    1
 Number of Electrons    NEL             ....   18
 Basis Dimension        Dim             ....   86

ORBITAL ENERGIES
----------------

  NO   OCC          E(Eh)            E(eV)
   0   2.0000     -19.228097      -523.2231
   1   2.0000     -10.315176      -280.6902
   2   2.0000      -1.136827       -30.9346
   3   2.0000      -0.795305       -21.6413
   4   2.0000      -0.611587       -16.6421
   5   2.0000      -0.541723       -14.7410
   6   2.0000      -0.526349       -14.3227
   7   2.0000      -0.433788       -11.8040
   8   2.0000      -0.373598       -10.1661
   9   0.0000       0.116635         3.1738
  10   0.0000       0.156657         4.2629
  11   0.0000       0.202570         5.5122
  12   0.0000       0.205070         5.5802
  13   0.0000       0.226361         6.1596

MULLIKEN ATOMIC CHARGES
-----------------------
   0 C :   -0.150892
   1 O :   -0.477599
   2 H :    0.313028
   3 H :    0.098651
   4 H :    0.118251
   5 H :    0.098561
Sum of atomic charges:   -0.0000000

LOEWDIN ATOMIC CHARGES
----------------------
   0 C :   -0.385285
   1 O :   -0.076055
   2 H :    0.165791
   3 H :    0.093383
   4 H :    0.108672
   5 H :    0.093495

  Mayer bond orders larger than 0.1
B(  0-C ,  1-O ) :   0.9987 B(  0-C ,  3-H ) :   0.9755 B(  0-C ,  4-H ) :   0.9749
B(  0-C ,  5-H ) :   0.9755 B(  1-O ,  2-H ) :   0.9002

Dispersion correction           -0.000239362
FINAL SINGLE POINT ENERGY      -115.738051195221

DIPOLE MOMENT
-------------
                                X             Y             Z
Electronic contribution:      1.75650      -0.02886       0.41960
Nuclear contribution   :     -2.06609       0.47626      -0.81730
                        -----------------------------------------
Total Dipole Moment    :     -0.30958       0.44740      -0.39769
                        -----------------------------------------
Magnitude (a.u.)       :      0.67392
Magnitude (Debye)      :      1.71297

Rotational constants in cm-1:     4.291811     0.833781     0.804914
Rotational constants in MHz : 128665.260176 24996.135616 24130.705652

                             ****ORCA TERMINATED NORMALLY****
TOTAL RUN TIME: 0 days 0 hours 0 minutes 35 seconds 383 msec
