                         Program Version 4.1.2  - RELEASE  -
|  1> #Run DFT-D3 single point of the dimer
|  2> ! wB97X-D3 def2-TZVP TIGHTSCF CHELPG PMODEL PAL8
|  3>
|  4> %base "19-223_DFT_AB"
|  5>
|  6> %scf
|  7> MaxIter 1000
|  8> end
|  9>
| 10> * xyz 0 1
| 11>   C                      -7.917867            -3.962105            -2.446839
| 12>   O                      -6.972519            -4.255860            -3.480585
| 13>   H                      -7.341025            -4.091266            -4.371067
| 14>   H                      -8.721103            -4.688471            -2.484096
| 15>   H                      -7.429704            -3.941546            -1.461747
| 16>   H                      -8.336201            -2.925327            -2.625887
| 17>   C                      -7.374341            -3.510027            -7.790926
| 18>   O                      -7.082794            -3.160391            -6.496887
| 19>   H                      -7.014447            -2.195298            -6.513542
| 20>   H                      -6.792086            -2.873235            -8.448449
| 21>   H                      -7.207540            -4.645789            -8.009260
| 22>   H                      -8.493821            -3.377078            -8.052661
| 23> *
| 24>
| 25> #Run DFT-D3 single point of the molecule with dimer basis set
| 26> $new_job
| 27> %base "19-223_DFT_A"
| 28> ! wB97X-D3 def2-TZVP TIGHTSCF CHELPG PMODEL
| 29>
| 30> %scf
| 31> MaxIter 1000
| 32> end
| 33>
| 34> * xyz 0 1
| 35>   C                      -7.917867            -3.962105            -2.446839
| 36>   O                      -6.972519            -4.255860            -3.480585
| 37>   H                      -7.341025            -4.091266            -4.371067
| 38>   H                      -8.721103            -4.688471            -2.484096
| 39>   H                      -7.429704            -3.941546            -1.461747
| 40>   H                      -8.336201            -2.925327            -2.625887
| 41>   C                    : -7.374341            -3.510027            -7.790926
| 42>   O                    : -7.082794            -3.160391            -6.496887
| 43>   H                    : -7.014447            -2.195298            -6.513542
| 44>   H                    : -6.792086            -2.873235            -8.448449
| 45>   H                    : -7.207540            -4.645789            -8.009260
| 46>   H                    : -8.493821            -3.377078            -8.052661
| 47> *
| 48>
| 49> #Run DFT-D3 single point of the particle with dimer basis set
| 50> $new_job
| 51> %base "19-223_DFT_B"
| 52> ! wB97X-D3 def2-TZVP TIGHTSCF CHELPG PMODEL
| 53>
| 54> %scf
| 55> MaxIter 1000
| 56> end
| 57>
| 58> * xyz 0 1
| 59>   C                    : -7.917867            -3.962105            -2.446839
| 60>   O                    : -6.972519            -4.255860            -3.480585
| 61>   H                    : -7.341025            -4.091266            -4.371067
| 62>   H                    : -8.721103            -4.688471            -2.484096
| 63>   H                    : -7.429704            -3.941546            -1.461747
| 64>   H                    : -8.336201            -2.925327            -2.625887
| 65>   C                      -7.374341            -3.510027            -7.790926
| 66>   O                      -7.082794            -3.160391            -6.496887
| 67>   H                      -7.014447            -2.195298            -6.513542
| 68>   H                      -6.792086            -2.873235            -8.448449
| 69>   H                      -7.207540            -4.645789            -8.009260
| 70>   H                      -8.493821            -3.377078            -8.052661
| 71> *
| 72>
| 73>                          ****END OF INPUT****
 Total Charge           Charge          ....    0
 Multiplicity           Mult            ....    1
 Number of Electrons    NEL             ....   36
Dispersion correction           -0.001253687
FINAL SINGLE POINT ENERGY      -231.468093683013
Dispersion correction           -0.000249516
FINAL SINGLE POINT ENERGY      -115.734446902566

CARTESIAN COORDINATES (ANGSTROEM)
---------------------------------
  C     -7.917867   -3.962105   -2.446839
  O     -6.972519   -4.255860   -3.480585
  H     -7.341025   -4.091266   -4.371067
  H     -8.721103   -4.688471   -2.484096
  H     -7.429704   -3.941546   -1.461747
  H     -8.336201   -2.925327   -2.625887
  C     -7.374341   -3.510027   -7.790926
  O     -7.082794   -3.160391   -6.496887
  H     -7.014447   -2.195298   -6.513542
  H     -6.792086   -2.873235   -8.448449
  H     -7.207540   -4.645789   -8.009260
  H     -8.493821   -3.377078   -8.052661

 Multiplicity           Mult            ....    1
 Number of Electrons    NEL             ....   18
 Basis Dimension        Dim             ....  172

ORBITAL ENERGIES
----------------

  NO   OCC          E(Eh)            E(eV)
   0   2.0000     -19.235429      -523.4226
   1   2.0000     -10.323832      -280.9257
   2   2.0000      -1.154523       -31.4162
   3   2.0000      -0.782232       -21.2856
   4   2.0000      -0.620107       -16.8740
   5   2.0000      -0.545607       -14.8467
   6   2.0000      -0.526835       -14.3359
   7   2.0000      -0.432109       -11.7583
   8   2.0000      -0.368661       -10.0318
   9   0.0000       0.096681         2.6308
  10   0.0000       0.115482         3.1424
  11   0.0000       0.150699         4.1007
  12   0.0000       0.186008         5.0615
  13   0.0000       0.196704         5.3526

MULLIKEN ATOMIC CHARGES
-----------------------
   0 C :    0.000533
   1 O :    0.000260
   2 H :   -0.009290
   3 H :    0.000002
   4 H :   -0.000039
   5 H :   -0.000377
   6 C :   -0.160821
   7 O :   -0.441909
   8 H :    0.316648
   9 H :    0.095523
  10 H :    0.113458
  11 H :    0.086011
Sum of atomic charges:   -0.0000000

LOEWDIN ATOMIC CHARGES
----------------------
   0 C :   -0.000405
   1 O :   -0.001994
   2 H :   -0.019932
   3 H :   -0.000002
   4 H :   -0.000007
   5 H :   -0.000104
   6 C :   -0.435055
   7 O :   -0.030737
   8 H :    0.181702
   9 H :    0.090595
  10 H :    0.118514
  11 H :    0.097424

  Mayer bond orders larger than 0.1
B(  6-C ,  7-O ) :   1.0068 B(  6-C ,  9-H ) :   0.9820 B(  6-C , 10-H ) :   0.9710
B(  6-C , 11-H ) :   0.9679 B(  7-O ,  8-H ) :   0.8942

Dispersion correction           -0.000233636
FINAL SINGLE POINT ENERGY      -115.728207234926

DIPOLE MOMENT
-------------
                                X             Y             Z
Electronic contribution:      0.52510       0.37017       1.82795
Nuclear contribution   :     -0.55277       0.12506      -2.30058
                        -----------------------------------------
Total Dipole Moment    :     -0.02766       0.49523      -0.47263
                        -----------------------------------------
Magnitude (a.u.)       :      0.68513
Magnitude (Debye)      :      1.74146

Rotational constants in cm-1:     4.045552     0.868006     0.828929
Rotational constants in MHz : 121282.588477 26022.160381 24850.672506

                             ****ORCA TERMINATED NORMALLY****
TOTAL RUN TIME: 0 days 0 hours 0 minutes 48 seconds 885 msec
