                         Program Version 4.1.2  - RELEASE  -
|  1> #Run DFT-D3 single point of the dimer
|  2> ! wB97X-D3 def2-TZVP TIGHTSCF CHELPG PMODEL PAL8
|  3>
|  4> %base "5-43_DFT_AB"
|  5>
|  6> %scf
|  7> MaxIter 1000
|  8> end
|  9>
| 10> * xyz 0 1
| 11>   C                      -2.327879            -1.689422            -8.778547
| 12>   O                      -1.414397            -2.216028            -7.842568
| 13>   H                      -1.431879            -3.135477            -8.159358
| 14>   H                      -1.907718            -1.481460            -9.705796
| 15>   H                      -3.138934            -2.311804            -8.966968
| 16>   H                      -2.843604            -0.810400            -8.339234
| 17>   C                      -3.808574            -2.865597            -3.912877
| 18>   O                      -5.088948            -2.779502            -3.379765
| 19>   H                      -5.243762            -3.512747            -2.820870
| 20>   H                      -3.708712            -2.261601            -4.794589
| 21>   H                      -2.979680            -2.555492            -3.204969
| 22>   H                      -3.569196            -3.920728            -4.166138
| 23> *
| 24>
| 25> #Run DFT-D3 single point of the molecule with dimer basis set
| 26> $new_job
| 27> %base "5-43_DFT_A"
| 28> ! wB97X-D3 def2-TZVP TIGHTSCF CHELPG PMODEL
| 29>
| 30> %scf
| 31> MaxIter 1000
| 32> end
| 33>
| 34> * xyz 0 1
| 35>   C                      -2.327879            -1.689422            -8.778547
| 36>   O                      -1.414397            -2.216028            -7.842568
| 37>   H                      -1.431879            -3.135477            -8.159358
| 38>   H                      -1.907718            -1.481460            -9.705796
| 39>   H                      -3.138934            -2.311804            -8.966968
| 40>   H                      -2.843604            -0.810400            -8.339234
| 41>   C                    : -3.808574            -2.865597            -3.912877
| 42>   O                    : -5.088948            -2.779502            -3.379765
| 43>   H                    : -5.243762            -3.512747            -2.820870
| 44>   H                    : -3.708712            -2.261601            -4.794589
| 45>   H                    : -2.979680            -2.555492            -3.204969
| 46>   H                    : -3.569196            -3.920728            -4.166138
| 47> *
| 48>
| 49> #Run DFT-D3 single point of the particle with dimer basis set
| 50> $new_job
| 51> %base "5-43_DFT_B"
| 52> ! wB97X-D3 def2-TZVP TIGHTSCF CHELPG PMODEL
| 53>
| 54> %scf
| 55> MaxIter 1000
| 56> end
| 57>
| 58> * xyz 0 1
| 59>   C                    : -2.327879            -1.689422            -8.778547
| 60>   O                    : -1.414397            -2.216028            -7.842568
| 61>   H                    : -1.431879            -3.135477            -8.159358
| 62>   H                    : -1.907718            -1.481460            -9.705796
| 63>   H                    : -3.138934            -2.311804            -8.966968
| 64>   H                    : -2.843604            -0.810400            -8.339234
| 65>   C                      -3.808574            -2.865597            -3.912877
| 66>   O                      -5.088948            -2.779502            -3.379765
| 67>   H                      -5.243762            -3.512747            -2.820870
| 68>   H                      -3.708712            -2.261601            -4.794589
| 69>   H                      -2.979680            -2.555492            -3.204969
| 70>   H                      -3.569196            -3.920728            -4.166138
| 71> *
| 72>
| 73>                          ****END OF INPUT****
 Total Charge           Charge          ....    0
 Multiplicity           Mult            ....    1
 Number of Electrons    NEL             ....   36
Dispersion correction           -0.000786383
FINAL SINGLE POINT ENERGY      -231.461840125407
Dispersion correction           -0.000207047
FINAL SINGLE POINT ENERGY      -115.726669296365

CARTESIAN COORDINATES (ANGSTROEM)
---------------------------------
  C     -2.327879   -1.689422   -8.778547
  O     -1.414397   -2.216028   -7.842568
  H     -1.431879   -3.135477   -8.159358
  H     -1.907718   -1.481460   -9.705796
  H     -3.138934   -2.311804   -8.966968
  H     -2.843604   -0.810400   -8.339234
  C     -3.808574   -2.865597   -3.912877
  O     -5.088948   -2.779502   -3.379765
  H     -5.243762   -3.512747   -2.820870
  H     -3.708712   -2.261601   -4.794589
  H     -2.979680   -2.555492   -3.204969
  H     -3.569196   -3.920728   -4.166138

 Multiplicity           Mult            ....    1
 Number of Electrons    NEL             ....   18
 Basis Dimension        Dim             ....  172

ORBITAL ENERGIES
----------------

  NO   OCC          E(Eh)            E(eV)
   0   2.0000     -19.229228      -523.2539
   1   2.0000     -10.315571      -280.7010
   2   2.0000      -1.149187       -31.2710
   3   2.0000      -0.796230       -21.6665
   4   2.0000      -0.620251       -16.8779
   5   2.0000      -0.537906       -14.6372
   6   2.0000      -0.534528       -14.5453
   7   2.0000      -0.433828       -11.8051
   8   2.0000      -0.371191       -10.1006
   9   0.0000       0.082855         2.2546
  10   0.0000       0.117315         3.1923
  11   0.0000       0.151211         4.1147
  12   0.0000       0.166122         4.5204
  13   0.0000       0.186678         5.0798

MULLIKEN ATOMIC CHARGES
-----------------------
   0 C :   -0.000061
   1 O :    0.000017
   2 H :   -0.000023
   3 H :   -0.000007
   4 H :   -0.000023
   5 H :   -0.000042
   6 C :   -0.155607
   7 O :   -0.465517
   8 H :    0.314404
   9 H :    0.121731
  10 H :    0.090563
  11 H :    0.094565
Sum of atomic charges:    0.0000000

LOEWDIN ATOMIC CHARGES
----------------------
   0 C :   -0.000192
   1 O :   -0.000059
   2 H :   -0.000028
   3 H :   -0.000004
   4 H :   -0.000016
   5 H :   -0.000053
   6 C :   -0.404941
   7 O :   -0.046080
   8 H :    0.155377
   9 H :    0.102151
  10 H :    0.097580
  11 H :    0.096264

  Mayer bond orders larger than 0.1
B(  6-C ,  7-O ) :   1.0081 B(  6-C ,  9-H ) :   0.9740 B(  6-C , 10-H ) :   0.9679
B(  6-C , 11-H ) :   0.9853 B(  7-O ,  8-H ) :   0.9023

Dispersion correction           -0.000241802
FINAL SINGLE POINT ENERGY      -115.734448292376

DIPOLE MOMENT
-------------
                                X             Y             Z
Electronic contribution:     -1.79745       0.28952       0.58833
Nuclear contribution   :      2.17076      -0.80672      -0.44996
                        -----------------------------------------
Total Dipole Moment    :      0.37331      -0.51720       0.13837
                        -----------------------------------------
Magnitude (a.u.)       :      0.65269
Magnitude (Debye)      :      1.65901

Rotational constants in cm-1:     4.337574     0.847706     0.817209
Rotational constants in MHz : 130037.193936 25413.583883 24499.306466

                             ****ORCA TERMINATED NORMALLY****
TOTAL RUN TIME: 0 days 0 hours 0 minutes 54 seconds 23 msec
