                         Program Version 4.1.2  - RELEASE  -
|  1> #Run DFT-D3 single point of the dimer
|  2> ! wB97X-D3 def2-TZVP TIGHTSCF CHELPG PMODEL PAL8
|  3>
|  4> %base "22-65_DFT_AB"
|  5>
|  6> %scf
|  7> MaxIter 1000
|  8> end
|  9>
| 10> * xyz 0 1
| 11>   C                      7.094991             -5.874388            4.295036
| 12>   O                      6.607568             -5.115187            5.413430
| 13>   H                      6.014298             -4.411971            5.145993
| 14>   H                      6.600203             -5.667700            3.315345
| 15>   H                      8.165961             -5.827261            4.147364
| 16>   H                      6.868536             -6.907309            4.499651
| 17>   C                      10.871998            -7.520388            3.575884
| 18>   O                      10.946414            -6.578942            2.617202
| 19>   H                      10.153854            -6.785670            2.096697
| 20>   H                      10.578821            -8.503729            3.263273
| 21>   H                      11.871519            -7.730637            3.961695
| 22>   H                      10.250930            -7.148476            4.458536
| 23> *
| 24>
| 25> #Run DFT-D3 single point of the molecule with dimer basis set
| 26> $new_job
| 27> %base "22-65_DFT_A"
| 28> ! wB97X-D3 def2-TZVP TIGHTSCF CHELPG PMODEL
| 29>
| 30> %scf
| 31> MaxIter 1000
| 32> end
| 33>
| 34> * xyz 0 1
| 35>   C                      7.094991             -5.874388            4.295036
| 36>   O                      6.607568             -5.115187            5.413430
| 37>   H                      6.014298             -4.411971            5.145993
| 38>   H                      6.600203             -5.667700            3.315345
| 39>   H                      8.165961             -5.827261            4.147364
| 40>   H                      6.868536             -6.907309            4.499651
| 41>   C                    : 10.871998            -7.520388            3.575884
| 42>   O                    : 10.946414            -6.578942            2.617202
| 43>   H                    : 10.153854            -6.785670            2.096697
| 44>   H                    : 10.578821            -8.503729            3.263273
| 45>   H                    : 11.871519            -7.730637            3.961695
| 46>   H                    : 10.250930            -7.148476            4.458536
| 47> *
| 48>
| 49> #Run DFT-D3 single point of the particle with dimer basis set
| 50> $new_job
| 51> %base "22-65_DFT_B"
| 52> ! wB97X-D3 def2-TZVP TIGHTSCF CHELPG PMODEL
| 53>
| 54> %scf
| 55> MaxIter 1000
| 56> end
| 57>
| 58> * xyz 0 1
| 59>   C                    : 7.094991             -5.874388            4.295036
| 60>   O                    : 6.607568             -5.115187            5.413430
| 61>   H                    : 6.014298             -4.411971            5.145993
| 62>   H                    : 6.600203             -5.667700            3.315345
| 63>   H                    : 8.165961             -5.827261            4.147364
| 64>   H                    : 6.868536             -6.907309            4.499651
| 65>   C                      10.871998            -7.520388            3.575884
| 66>   O                      10.946414            -6.578942            2.617202
| 67>   H                      10.153854            -6.785670            2.096697
| 68>   H                      10.578821            -8.503729            3.263273
| 69>   H                      11.871519            -7.730637            3.961695
| 70>   H                      10.250930            -7.148476            4.458536
| 71> *
| 72>
| 73>                          ****END OF INPUT****
 Total Charge           Charge          ....    0
 Multiplicity           Mult            ....    1
 Number of Electrons    NEL             ....   36
Dispersion correction           -0.001421755
FINAL SINGLE POINT ENERGY      -231.461596476232
Dispersion correction           -0.000278292
FINAL SINGLE POINT ENERGY      -115.733015072374

CARTESIAN COORDINATES (ANGSTROEM)
---------------------------------
  C      7.094991   -5.874388    4.295036
  O      6.607568   -5.115187    5.413430
  H      6.014298   -4.411971    5.145993
  H      6.600203   -5.667700    3.315345
  H      8.165961   -5.827261    4.147364
  H      6.868536   -6.907309    4.499651
  C     10.871998   -7.520388    3.575884
  O     10.946414   -6.578942    2.617202
  H     10.153854   -6.785670    2.096697
  H     10.578821   -8.503729    3.263273
  H     11.871519   -7.730637    3.961695
  H     10.250930   -7.148476    4.458536

 Multiplicity           Mult            ....    1
 Number of Electrons    NEL             ....   18
 Basis Dimension        Dim             ....  172

ORBITAL ENERGIES
----------------

  NO   OCC          E(Eh)            E(eV)
   0   2.0000     -19.236471      -523.4510
   1   2.0000     -10.308615      -280.5117
   2   2.0000      -1.165153       -31.7054
   3   2.0000      -0.788328       -21.4515
   4   2.0000      -0.624649       -16.9976
   5   2.0000      -0.552536       -15.0353
   6   2.0000      -0.533765       -14.5245
   7   2.0000      -0.430877       -11.7248
   8   2.0000      -0.372414       -10.1339
   9   0.0000       0.080830         2.1995
  10   0.0000       0.119338         3.2474
  11   0.0000       0.152079         4.1383
  12   0.0000       0.171803         4.6750
  13   0.0000       0.183992         5.0067

MULLIKEN ATOMIC CHARGES
-----------------------
   0 C :   -0.003351
   1 O :    0.000166
   2 H :    0.000011
   3 H :   -0.000016
   4 H :    0.003070
   5 H :    0.000074
   6 C :   -0.169837
   7 O :   -0.436560
   8 H :    0.320063
   9 H :    0.097214
  10 H :    0.106714
  11 H :    0.082452
Sum of atomic charges:   -0.0000000

LOEWDIN ATOMIC CHARGES
----------------------
   0 C :   -0.002301
   1 O :   -0.000011
   2 H :   -0.000001
   3 H :   -0.000028
   4 H :   -0.002764
   5 H :   -0.000215
   6 C :   -0.454742
   7 O :   -0.021538
   8 H :    0.187931
   9 H :    0.088458
  10 H :    0.104813
  11 H :    0.100397

  Mayer bond orders larger than 0.1
B(  6-C ,  7-O ) :   1.0242 B(  6-C ,  9-H ) :   0.9802 B(  6-C , 10-H ) :   0.9783
B(  6-C , 11-H ) :   0.9774 B(  7-O ,  8-H ) :   0.8978

Dispersion correction           -0.000211791
FINAL SINGLE POINT ENERGY      -115.728013977987

DIPOLE MOMENT
-------------
                                X             Y             Z
Electronic contribution:      0.17899       1.36045      -1.40287
Nuclear contribution   :     -0.65762      -1.82837       1.36030
                        -----------------------------------------
Total Dipole Moment    :     -0.47863      -0.46791      -0.04257
                        -----------------------------------------
Magnitude (a.u.)       :      0.67070
Magnitude (Debye)      :      1.70479

Rotational constants in cm-1:     4.233387     0.895439     0.873454
Rotational constants in MHz : 126913.737802 26844.596621 26185.479660

                             ****ORCA TERMINATED NORMALLY****
TOTAL RUN TIME: 0 days 0 hours 0 minutes 58 seconds 583 msec
