                         Program Version 4.1.2  - RELEASE  -
|  1> #Run DFT-D3 single point of the dimer
|  2> ! wB97X-D3 def2-TZVP TIGHTSCF CHELPG PMODEL PAL8
|  3>
|  4> %base "18-96_DFT_AB"
|  5>
|  6> %scf
|  7> MaxIter 1000
|  8> end
|  9>
| 10> * xyz 0 1
| 11>   C                      6.893320             -10.876934           1.764212
| 12>   O                      8.038290             -11.623634           1.861776
| 13>   H                      8.174678             -11.814343           2.798983
| 14>   H                      6.119502             -10.972052           2.513738
| 15>   H                      7.098717             -9.827807            1.908222
| 16>   H                      6.424330             -11.063992           0.828174
| 17>   C                      3.003348             -9.879863            1.825211
| 18>   O                      3.065224             -11.211353           1.365067
| 19>   H                      2.954183             -11.783072           2.133000
| 20>   H                      2.000786             -9.611904            2.186784
| 21>   H                      3.662918             -9.671749            2.682948
| 22>   H                      3.254311             -9.203607            1.003556
| 23> *
| 24>
| 25> #Run DFT-D3 single point of the molecule with dimer basis set
| 26> $new_job
| 27> %base "18-96_DFT_A"
| 28> ! wB97X-D3 def2-TZVP TIGHTSCF CHELPG PMODEL
| 29>
| 30> %scf
| 31> MaxIter 1000
| 32> end
| 33>
| 34> * xyz 0 1
| 35>   C                      6.893320             -10.876934           1.764212
| 36>   O                      8.038290             -11.623634           1.861776
| 37>   H                      8.174678             -11.814343           2.798983
| 38>   H                      6.119502             -10.972052           2.513738
| 39>   H                      7.098717             -9.827807            1.908222
| 40>   H                      6.424330             -11.063992           0.828174
| 41>   C                    : 3.003348             -9.879863            1.825211
| 42>   O                    : 3.065224             -11.211353           1.365067
| 43>   H                    : 2.954183             -11.783072           2.133000
| 44>   H                    : 2.000786             -9.611904            2.186784
| 45>   H                    : 3.662918             -9.671749            2.682948
| 46>   H                    : 3.254311             -9.203607            1.003556
| 47> *
| 48>
| 49> #Run DFT-D3 single point of the particle with dimer basis set
| 50> $new_job
| 51> %base "18-96_DFT_B"
| 52> ! wB97X-D3 def2-TZVP TIGHTSCF CHELPG PMODEL
| 53>
| 54> %scf
| 55> MaxIter 1000
| 56> end
| 57>
| 58> * xyz 0 1
| 59>   C                    : 6.893320             -10.876934           1.764212
| 60>   O                    : 8.038290             -11.623634           1.861776
| 61>   H                    : 8.174678             -11.814343           2.798983
| 62>   H                    : 6.119502             -10.972052           2.513738
| 63>   H                    : 7.098717             -9.827807            1.908222
| 64>   H                    : 6.424330             -11.063992           0.828174
| 65>   C                      3.003348             -9.879863            1.825211
| 66>   O                      3.065224             -11.211353           1.365067
| 67>   H                      2.954183             -11.783072           2.133000
| 68>   H                      2.000786             -9.611904            2.186784
| 69>   H                      3.662918             -9.671749            2.682948
| 70>   H                      3.254311             -9.203607            1.003556
| 71> *
| 72>
| 73>                          ****END OF INPUT****
 Total Charge           Charge          ....    0
 Multiplicity           Mult            ....    1
 Number of Electrons    NEL             ....   36
Dispersion correction           -0.001596177
FINAL SINGLE POINT ENERGY      -231.468292802842
Dispersion correction           -0.000228529
FINAL SINGLE POINT ENERGY      -115.730168704369

CARTESIAN COORDINATES (ANGSTROEM)
---------------------------------
  C      6.893320  -10.876934    1.764212
  O      8.038290  -11.623634    1.861776
  H      8.174678  -11.814343    2.798983
  H      6.119502  -10.972052    2.513738
  H      7.098717   -9.827807    1.908222
  H      6.424330  -11.063992    0.828174
  C      3.003348   -9.879863    1.825211
  O      3.065224  -11.211353    1.365067
  H      2.954183  -11.783072    2.133000
  H      2.000786   -9.611904    2.186784
  H      3.662918   -9.671749    2.682948
  H      3.254311   -9.203607    1.003556

 Multiplicity           Mult            ....    1
 Number of Electrons    NEL             ....   18
 Basis Dimension        Dim             ....  172

ORBITAL ENERGIES
----------------

  NO   OCC          E(Eh)            E(eV)
   0   2.0000     -19.232774      -523.3504
   1   2.0000     -10.314203      -280.6637
   2   2.0000      -1.138276       -30.9741
   3   2.0000      -0.794383       -21.6163
   4   2.0000      -0.614389       -16.7184
   5   2.0000      -0.535793       -14.5797
   6   2.0000      -0.528387       -14.3781
   7   2.0000      -0.438759       -11.9392
   8   2.0000      -0.372879       -10.1465
   9   0.0000       0.086717         2.3597
  10   0.0000       0.121902         3.3171
  11   0.0000       0.150367         4.0917
  12   0.0000       0.177299         4.8246
  13   0.0000       0.186746         5.0816

MULLIKEN ATOMIC CHARGES
-----------------------
   0 C :    0.002864
   1 O :    0.000023
   2 H :    0.000004
   3 H :   -0.002698
   4 H :   -0.000416
   5 H :   -0.001955
   6 C :   -0.171091
   7 O :   -0.469740
   8 H :    0.314369
   9 H :    0.102504
  10 H :    0.102812
  11 H :    0.123325
Sum of atomic charges:   -0.0000000

LOEWDIN ATOMIC CHARGES
----------------------
   0 C :   -0.002985
   1 O :   -0.000024
   2 H :   -0.000001
   3 H :   -0.001859
   4 H :   -0.000108
   5 H :   -0.001358
   6 C :   -0.392846
   7 O :   -0.071492
   8 H :    0.172201
   9 H :    0.093696
  10 H :    0.094865
  11 H :    0.109912

  Mayer bond orders larger than 0.1
B(  6-C ,  7-O ) :   0.9946 B(  6-C ,  9-H ) :   0.9753 B(  6-C , 10-H ) :   0.9748
B(  6-C , 11-H ) :   0.9750 B(  7-O ,  8-H ) :   0.8991

Dispersion correction           -0.000241472
FINAL SINGLE POINT ENERGY      -115.737100556704

DIPOLE MOMENT
-------------
                                X             Y             Z
Electronic contribution:      0.13229      -1.70841      -0.77545
Nuclear contribution   :     -0.23121       1.86959       1.43702
                        -----------------------------------------
Total Dipole Moment    :     -0.09893       0.16118       0.66157
                        -----------------------------------------
Magnitude (a.u.)       :      0.68807
Magnitude (Debye)      :      1.74895

Rotational constants in cm-1:     4.293370     0.834252     0.798816
Rotational constants in MHz : 128711.998194 25010.258788 23947.896427

                             ****ORCA TERMINATED NORMALLY****
TOTAL RUN TIME: 0 days 0 hours 0 minutes 47 seconds 80 msec
