                         Program Version 4.1.2  - RELEASE  -
|  1> #Run DFT-D3 single point of the dimer
|  2> ! wB97X-D3 def2-TZVP TIGHTSCF CHELPG PMODEL PAL8
|  3>
|  4> %base "4-112_DFT_AB"
|  5>
|  6> %scf
|  7> MaxIter 1000
|  8> end
|  9>
| 10> * xyz 0 1
| 11>   C                      2.306363             7.977900             -7.049044
| 12>   O                      3.680497             7.508819             -7.003539
| 13>   H                      3.822370             6.627895             -7.386926
| 14>   H                      2.324172             9.011762             -7.391483
| 15>   H                      1.650519             7.439648             -7.782240
| 16>   H                      1.747418             7.886337             -6.125104
| 17>   C                      7.161267             6.953844             -6.328759
| 18>   O                      6.565770             8.249048             -6.450163
| 19>   H                      5.623843             8.067112             -6.211825
| 20>   H                      8.046157             6.925746             -6.902645
| 21>   H                      7.507824             6.780331             -5.271938
| 22>   H                      6.447298             6.227622             -6.655698
| 23> *
| 24>
| 25> #Run DFT-D3 single point of the molecule with dimer basis set
| 26> $new_job
| 27> %base "4-112_DFT_A"
| 28> ! wB97X-D3 def2-TZVP TIGHTSCF CHELPG PMODEL
| 29>
| 30> %scf
| 31> MaxIter 1000
| 32> end
| 33>
| 34> * xyz 0 1
| 35>   C                      2.306363             7.977900             -7.049044
| 36>   O                      3.680497             7.508819             -7.003539
| 37>   H                      3.822370             6.627895             -7.386926
| 38>   H                      2.324172             9.011762             -7.391483
| 39>   H                      1.650519             7.439648             -7.782240
| 40>   H                      1.747418             7.886337             -6.125104
| 41>   C                    : 7.161267             6.953844             -6.328759
| 42>   O                    : 6.565770             8.249048             -6.450163
| 43>   H                    : 5.623843             8.067112             -6.211825
| 44>   H                    : 8.046157             6.925746             -6.902645
| 45>   H                    : 7.507824             6.780331             -5.271938
| 46>   H                    : 6.447298             6.227622             -6.655698
| 47> *
| 48>
| 49> #Run DFT-D3 single point of the particle with dimer basis set
| 50> $new_job
| 51> %base "4-112_DFT_B"
| 52> ! wB97X-D3 def2-TZVP TIGHTSCF CHELPG PMODEL
| 53>
| 54> %scf
| 55> MaxIter 1000
| 56> end
| 57>
| 58> * xyz 0 1
| 59>   C                    : 2.306363             7.977900             -7.049044
| 60>   O                    : 3.680497             7.508819             -7.003539
| 61>   H                    : 3.822370             6.627895             -7.386926
| 62>   H                    : 2.324172             9.011762             -7.391483
| 63>   H                    : 1.650519             7.439648             -7.782240
| 64>   H                    : 1.747418             7.886337             -6.125104
| 65>   C                      7.161267             6.953844             -6.328759
| 66>   O                      6.565770             8.249048             -6.450163
| 67>   H                      5.623843             8.067112             -6.211825
| 68>   H                      8.046157             6.925746             -6.902645
| 69>   H                      7.507824             6.780331             -5.271938
| 70>   H                      6.447298             6.227622             -6.655698
| 71> *
| 72>
| 73>                          ****END OF INPUT****
 Total Charge           Charge          ....    0
 Multiplicity           Mult            ....    1
 Number of Electrons    NEL             ....   36
Dispersion correction           -0.001612791
FINAL SINGLE POINT ENERGY      -231.470193533770
Dispersion correction           -0.000293986
FINAL SINGLE POINT ENERGY      -115.731817401583

CARTESIAN COORDINATES (ANGSTROEM)
---------------------------------
  C      2.306363    7.977900   -7.049044
  O      3.680497    7.508819   -7.003539
  H      3.822370    6.627895   -7.386926
  H      2.324172    9.011762   -7.391483
  H      1.650519    7.439648   -7.782240
  H      1.747418    7.886337   -6.125104
  C      7.161267    6.953844   -6.328759
  O      6.565770    8.249048   -6.450163
  H      5.623843    8.067112   -6.211825
  H      8.046157    6.925746   -6.902645
  H      7.507824    6.780331   -5.271938
  H      6.447298    6.227622   -6.655698

 Multiplicity           Mult            ....    1
 Number of Electrons    NEL             ....   18
 Basis Dimension        Dim             ....  172

ORBITAL ENERGIES
----------------

  NO   OCC          E(Eh)            E(eV)
   0   2.0000     -19.232498      -523.3429
   1   2.0000     -10.310694      -280.5683
   2   2.0000      -1.129293       -30.7296
   3   2.0000      -0.793392       -21.5893
   4   2.0000      -0.604954       -16.4616
   5   2.0000      -0.540625       -14.7112
   6   2.0000      -0.528096       -14.3702
   7   2.0000      -0.441909       -12.0249
   8   2.0000      -0.371768       -10.1163
   9   0.0000       0.070694         1.9237
  10   0.0000       0.122089         3.3222
  11   0.0000       0.152833         4.1588
  12   0.0000       0.167715         4.5638
  13   0.0000       0.195966         5.3325

MULLIKEN ATOMIC CHARGES
-----------------------
   0 C :   -0.001443
   1 O :   -0.004294
   2 H :   -0.000099
   3 H :    0.000032
   4 H :    0.000013
   5 H :    0.000019
   6 C :   -0.169858
   7 O :   -0.467592
   8 H :    0.314489
   9 H :    0.120234
  10 H :    0.098369
  11 H :    0.110129
Sum of atomic charges:    0.0000000

LOEWDIN ATOMIC CHARGES
----------------------
   0 C :   -0.001139
   1 O :   -0.012556
   2 H :   -0.001772
   3 H :   -0.000059
   4 H :   -0.000028
   5 H :   -0.000029
   6 C :   -0.370206
   7 O :   -0.094734
   8 H :    0.188935
   9 H :    0.097451
  10 H :    0.101571
  11 H :    0.092565

  Mayer bond orders larger than 0.1
B(  6-C ,  7-O ) :   1.0010 B(  6-C ,  9-H ) :   0.9747 B(  6-C , 10-H ) :   0.9790
B(  6-C , 11-H ) :   0.9806 B(  7-O ,  8-H ) :   0.9041

Dispersion correction           -0.000226292
FINAL SINGLE POINT ENERGY      -115.732454825840

DIPOLE MOMENT
-------------
                                X             Y             Z
Electronic contribution:     -0.59450       1.63913      -0.28608
Nuclear contribution   :      0.27541      -2.26534       0.45029
                        -----------------------------------------
Total Dipole Moment    :     -0.31909      -0.62621       0.16422
                        -----------------------------------------
Magnitude (a.u.)       :      0.72175
Magnitude (Debye)      :      1.83454

Rotational constants in cm-1:     4.188743     0.829574     0.797735
Rotational constants in MHz : 125575.351752 24870.014101 23915.504362

                             ****ORCA TERMINATED NORMALLY****
TOTAL RUN TIME: 0 days 0 hours 1 minutes 28 seconds 189 msec
