                         Program Version 4.1.2  - RELEASE  -
|  1> #Run DFT-D3 single point of the dimer
|  2> ! wB97X-D3 def2-TZVP TIGHTSCF CHELPG PMODEL PAL8
|  3>
|  4> %base "2-10_DFT_AB"
|  5>
|  6> %scf
|  7> MaxIter 1000
|  8> end
|  9>
| 10> * xyz 0 1
| 11>   C                      3.632446             -6.994954            3.184119
| 12>   O                      4.407674             -7.329784            1.949356
| 13>   H                      4.084722             -6.757850            1.277197
| 14>   H                      3.654814             -7.907382            3.783212
| 15>   H                      4.085916             -6.202538            3.691906
| 16>   H                      2.536765             -6.837212            2.963092
| 17>   C                      7.870330             -9.516202            3.642286
| 18>   O                      7.784803             -9.773389            5.046397
| 19>   H                      6.890367             -9.496004            5.288827
| 20>   H                      7.029758             -8.916929            3.367131
| 21>   H                      8.824142             -9.213947            3.272093
| 22>   H                      7.754524             -10.506116           3.127816
| 23> *
| 24>
| 25> #Run DFT-D3 single point of the molecule with dimer basis set
| 26> $new_job
| 27> %base "2-10_DFT_A"
| 28> ! wB97X-D3 def2-TZVP TIGHTSCF CHELPG PMODEL
| 29>
| 30> %scf
| 31> MaxIter 1000
| 32> end
| 33>
| 34> * xyz 0 1
| 35>   C                      3.632446             -6.994954            3.184119
| 36>   O                      4.407674             -7.329784            1.949356
| 37>   H                      4.084722             -6.757850            1.277197
| 38>   H                      3.654814             -7.907382            3.783212
| 39>   H                      4.085916             -6.202538            3.691906
| 40>   H                      2.536765             -6.837212            2.963092
| 41>   C                    : 7.870330             -9.516202            3.642286
| 42>   O                    : 7.784803             -9.773389            5.046397
| 43>   H                    : 6.890367             -9.496004            5.288827
| 44>   H                    : 7.029758             -8.916929            3.367131
| 45>   H                    : 8.824142             -9.213947            3.272093
| 46>   H                    : 7.754524             -10.506116           3.127816
| 47> *
| 48>
| 49> #Run DFT-D3 single point of the particle with dimer basis set
| 50> $new_job
| 51> %base "2-10_DFT_B"
| 52> ! wB97X-D3 def2-TZVP TIGHTSCF CHELPG PMODEL
| 53>
| 54> %scf
| 55> MaxIter 1000
| 56> end
| 57>
| 58> * xyz 0 1
| 59>   C                    : 3.632446             -6.994954            3.184119
| 60>   O                    : 4.407674             -7.329784            1.949356
| 61>   H                    : 4.084722             -6.757850            1.277197
| 62>   H                    : 3.654814             -7.907382            3.783212
| 63>   H                    : 4.085916             -6.202538            3.691906
| 64>   H                    : 2.536765             -6.837212            2.963092
| 65>   C                      7.870330             -9.516202            3.642286
| 66>   O                      7.784803             -9.773389            5.046397
| 67>   H                      6.890367             -9.496004            5.288827
| 68>   H                      7.029758             -8.916929            3.367131
| 69>   H                      8.824142             -9.213947            3.272093
| 70>   H                      7.754524             -10.506116           3.127816
| 71> *
| 72>
| 73>                          ****END OF INPUT****
 Total Charge           Charge          ....    0
 Multiplicity           Mult            ....    1
 Number of Electrons    NEL             ....   36
Dispersion correction           -0.001026126
FINAL SINGLE POINT ENERGY      -231.460563071229
Dispersion correction           -0.000266601
FINAL SINGLE POINT ENERGY      -115.730444700584

CARTESIAN COORDINATES (ANGSTROEM)
---------------------------------
  C      3.632446   -6.994954    3.184119
  O      4.407674   -7.329784    1.949356
  H      4.084722   -6.757850    1.277197
  H      3.654814   -7.907382    3.783212
  H      4.085916   -6.202538    3.691906
  H      2.536765   -6.837212    2.963092
  C      7.870330   -9.516202    3.642286
  O      7.784803   -9.773389    5.046397
  H      6.890367   -9.496004    5.288827
  H      7.029758   -8.916929    3.367131
  H      8.824142   -9.213947    3.272093
  H      7.754524  -10.506116    3.127816

 Multiplicity           Mult            ....    1
 Number of Electrons    NEL             ....   18
 Basis Dimension        Dim             ....  172

ORBITAL ENERGIES
----------------

  NO   OCC          E(Eh)            E(eV)
   0   2.0000     -19.229669      -523.2659
   1   2.0000     -10.312316      -280.6124
   2   2.0000      -1.131892       -30.8003
   3   2.0000      -0.796114       -21.6634
   4   2.0000      -0.609581       -16.5875
   5   2.0000      -0.542925       -14.7737
   6   2.0000      -0.525631       -14.3031
   7   2.0000      -0.441547       -12.0151
   8   2.0000      -0.366936        -9.9848
   9   0.0000       0.071527         1.9464
  10   0.0000       0.114156         3.1063
  11   0.0000       0.150303         4.0900
  12   0.0000       0.166378         4.5274
  13   0.0000       0.179606         4.8873

MULLIKEN ATOMIC CHARGES
-----------------------
   0 C :    0.000077
   1 O :   -0.000088
   2 H :   -0.000018
   3 H :   -0.000056
   4 H :   -0.000055
   5 H :    0.000007
   6 C :   -0.173574
   7 O :   -0.468660
   8 H :    0.314955
   9 H :    0.109482
  10 H :    0.118170
  11 H :    0.099761
Sum of atomic charges:   -0.0000000

LOEWDIN ATOMIC CHARGES
----------------------
   0 C :   -0.000364
   1 O :   -0.000347
   2 H :   -0.000023
   3 H :   -0.000096
   4 H :   -0.000021
   5 H :   -0.000003
   6 C :   -0.371414
   7 O :   -0.094946
   8 H :    0.173923
   9 H :    0.092930
  10 H :    0.097352
  11 H :    0.103007

  Mayer bond orders larger than 0.1
B(  6-C ,  7-O ) :   1.0060 B(  6-C ,  9-H ) :   0.9889 B(  6-C , 10-H ) :   0.9731
B(  6-C , 11-H ) :   0.9808 B(  7-O ,  8-H ) :   0.9024

Dispersion correction           -0.000234486
FINAL SINGLE POINT ENERGY      -115.728742392275

DIPOLE MOMENT
-------------
                                X             Y             Z
Electronic contribution:      0.11445      -0.14301       1.80653
Nuclear contribution   :     -0.64571       0.42412      -2.22165
                        -----------------------------------------
Total Dipole Moment    :     -0.53126       0.28111      -0.41512
                        -----------------------------------------
Magnitude (a.u.)       :      0.73047
Magnitude (Debye)      :      1.85670

Rotational constants in cm-1:     4.307910     0.828771     0.788247
Rotational constants in MHz : 129147.885028 24845.937186 23631.046337

                             ****ORCA TERMINATED NORMALLY****
TOTAL RUN TIME: 0 days 0 hours 4 minutes 44 seconds 295 msec
