                         Program Version 4.1.2  - RELEASE  -
|  1> #Run DFT-D3 single point of the dimer
|  2> ! wB97X-D3 def2-TZVP TIGHTSCF CHELPG PMODEL PAL8
|  3>
|  4> %base "7-157_DFT_AB"
|  5>
|  6> %scf
|  7> MaxIter 1000
|  8> end
|  9>
| 10> * xyz 0 1
| 11>   C                      2.456452             -8.331689            -7.586011
| 12>   O                      2.874135             -8.174088            -6.283950
| 13>   H                      2.866683             -7.217742            -6.105022
| 14>   H                      1.521849             -7.794114            -7.665348
| 15>   H                      3.150249             -8.042174            -8.359437
| 16>   H                      2.292810             -9.379852            -7.728508
| 17>   C                      2.775365             -11.059201           -4.428406
| 18>   O                      2.782174             -9.685765            -4.104138
| 19>   H                      2.214490             -9.178142            -4.698456
| 20>   H                      1.795818             -11.390671           -4.779482
| 21>   H                      3.590928             -11.242125           -5.133909
| 22>   H                      2.947330             -11.674584           -3.518488
| 23> *
| 24>
| 25> #Run DFT-D3 single point of the molecule with dimer basis set
| 26> $new_job
| 27> %base "7-157_DFT_A"
| 28> ! wB97X-D3 def2-TZVP TIGHTSCF CHELPG PMODEL
| 29>
| 30> %scf
| 31> MaxIter 1000
| 32> end
| 33>
| 34> * xyz 0 1
| 35>   C                      2.456452             -8.331689            -7.586011
| 36>   O                      2.874135             -8.174088            -6.283950
| 37>   H                      2.866683             -7.217742            -6.105022
| 38>   H                      1.521849             -7.794114            -7.665348
| 39>   H                      3.150249             -8.042174            -8.359437
| 40>   H                      2.292810             -9.379852            -7.728508
| 41>   C                    : 2.775365             -11.059201           -4.428406
| 42>   O                    : 2.782174             -9.685765            -4.104138
| 43>   H                    : 2.214490             -9.178142            -4.698456
| 44>   H                    : 1.795818             -11.390671           -4.779482
| 45>   H                    : 3.590928             -11.242125           -5.133909
| 46>   H                    : 2.947330             -11.674584           -3.518488
| 47> *
| 48>
| 49> #Run DFT-D3 single point of the particle with dimer basis set
| 50> $new_job
| 51> %base "7-157_DFT_B"
| 52> ! wB97X-D3 def2-TZVP TIGHTSCF CHELPG PMODEL
| 53>
| 54> %scf
| 55> MaxIter 1000
| 56> end
| 57>
| 58> * xyz 0 1
| 59>   C                    : 2.456452             -8.331689            -7.586011
| 60>   O                    : 2.874135             -8.174088            -6.283950
| 61>   H                    : 2.866683             -7.217742            -6.105022
| 62>   H                    : 1.521849             -7.794114            -7.665348
| 63>   H                    : 3.150249             -8.042174            -8.359437
| 64>   H                    : 2.292810             -9.379852            -7.728508
| 65>   C                      2.775365             -11.059201           -4.428406
| 66>   O                      2.782174             -9.685765            -4.104138
| 67>   H                      2.214490             -9.178142            -4.698456
| 68>   H                      1.795818             -11.390671           -4.779482
| 69>   H                      3.590928             -11.242125           -5.133909
| 70>   H                      2.947330             -11.674584           -3.518488
| 71> *
| 72>
| 73>                          ****END OF INPUT****
 Total Charge           Charge          ....    0
 Multiplicity           Mult            ....    1
 Number of Electrons    NEL             ....   36
Dispersion correction           -0.001832292
FINAL SINGLE POINT ENERGY      -231.469865421912
Dispersion correction           -0.000211069
FINAL SINGLE POINT ENERGY      -115.733503153448

CARTESIAN COORDINATES (ANGSTROEM)
---------------------------------
  C      2.456452   -8.331689   -7.586011
  O      2.874135   -8.174088   -6.283950
  H      2.866683   -7.217742   -6.105022
  H      1.521849   -7.794114   -7.665348
  H      3.150249   -8.042174   -8.359437
  H      2.292810   -9.379852   -7.728508
  C      2.775365  -11.059201   -4.428406
  O      2.782174   -9.685765   -4.104138
  H      2.214490   -9.178142   -4.698456
  H      1.795818  -11.390671   -4.779482
  H      3.590928  -11.242125   -5.133909
  H      2.947330  -11.674584   -3.518488

 Multiplicity           Mult            ....    1
 Number of Electrons    NEL             ....   18
 Basis Dimension        Dim             ....  172

ORBITAL ENERGIES
----------------

  NO   OCC          E(Eh)            E(eV)
   0   2.0000     -19.228766      -523.2413
   1   2.0000     -10.315031      -280.6863
   2   2.0000      -1.133377       -30.8408
   3   2.0000      -0.794797       -21.6275
   4   2.0000      -0.609099       -16.5744
   5   2.0000      -0.548081       -14.9140
   6   2.0000      -0.525302       -14.2942
   7   2.0000      -0.425395       -11.5756
   8   2.0000      -0.373668       -10.1680
   9   0.0000       0.073149         1.9905
  10   0.0000       0.134238         3.6528
  11   0.0000       0.143389         3.9018
  12   0.0000       0.178362         4.8535
  13   0.0000       0.184295         5.0149

MULLIKEN ATOMIC CHARGES
-----------------------
   0 C :   -0.004942
   1 O :   -0.008020
   2 H :   -0.001134
   3 H :    0.000391
   4 H :   -0.000007
   5 H :    0.000560
   6 C :   -0.159498
   7 O :   -0.472297
   8 H :    0.317642
   9 H :    0.102653
  10 H :    0.107906
  11 H :    0.116747
Sum of atomic charges:   -0.0000000

LOEWDIN ATOMIC CHARGES
----------------------
   0 C :   -0.003994
   1 O :   -0.026469
   2 H :   -0.002158
   3 H :   -0.000106
   4 H :   -0.000100
   5 H :   -0.000380
   6 C :   -0.386401
   7 O :   -0.062713
   8 H :    0.178411
   9 H :    0.095223
  10 H :    0.097903
  11 H :    0.110782

  Mayer bond orders larger than 0.1
B(  6-C ,  7-O ) :   1.0021 B(  6-C ,  9-H ) :   0.9815 B(  6-C , 10-H ) :   0.9765
B(  6-C , 11-H ) :   0.9717 B(  7-O ,  8-H ) :   0.8958

Dispersion correction           -0.000247320
FINAL SINGLE POINT ENERGY      -115.735529177732

DIPOLE MOMENT
-------------
                                X             Y             Z
Electronic contribution:      0.08434       1.70391       0.46266
Nuclear contribution   :     -0.46589      -1.94755      -0.94676
                        -----------------------------------------
Total Dipole Moment    :     -0.38155      -0.24364      -0.48411
                        -----------------------------------------
Magnitude (a.u.)       :      0.66280
Magnitude (Debye)      :      1.68469

Rotational constants in cm-1:     4.271503     0.826768     0.805474
Rotational constants in MHz : 128056.441420 24785.866927 24147.506332

                             ****ORCA TERMINATED NORMALLY****
TOTAL RUN TIME: 0 days 0 hours 1 minutes 14 seconds 792 msec
