                         Program Version 4.1.2  - RELEASE  -
|  1> #Run DFT-D3 single point of the dimer
|  2> ! wB97X-D3 def2-TZVP TIGHTSCF CHELPG PMODEL PAL8
|  3>
|  4> %base "21-36_DFT_AB"
|  5>
|  6> %scf
|  7> MaxIter 1000
|  8> end
|  9>
| 10> * xyz 0 1
| 11>   C                      2.453454             1.166860             -5.874115
| 12>   O                      3.686145             1.240109             -5.184784
| 13>   H                      3.920853             2.166736             -5.242162
| 14>   H                      1.624176             1.779049             -5.362332
| 15>   H                      2.542419             1.779453             -6.767790
| 16>   H                      2.112095             0.179773             -6.170195
| 17>   C                      1.462838             -0.711124            -1.274654
| 18>   O                      2.243322             -0.188704            -2.242712
| 19>   H                      1.745035             0.212361             -2.959952
| 20>   H                      1.293219             -0.079725            -0.462173
| 21>   H                      0.480284             -1.107234            -1.686789
| 22>   H                      1.961819             -1.640637            -0.787274
| 23> *
| 24>
| 25> #Run DFT-D3 single point of the molecule with dimer basis set
| 26> $new_job
| 27> %base "21-36_DFT_A"
| 28> ! wB97X-D3 def2-TZVP TIGHTSCF CHELPG PMODEL
| 29>
| 30> %scf
| 31> MaxIter 1000
| 32> end
| 33>
| 34> * xyz 0 1
| 35>   C                      2.453454             1.166860             -5.874115
| 36>   O                      3.686145             1.240109             -5.184784
| 37>   H                      3.920853             2.166736             -5.242162
| 38>   H                      1.624176             1.779049             -5.362332
| 39>   H                      2.542419             1.779453             -6.767790
| 40>   H                      2.112095             0.179773             -6.170195
| 41>   C                    : 1.462838             -0.711124            -1.274654
| 42>   O                    : 2.243322             -0.188704            -2.242712
| 43>   H                    : 1.745035             0.212361             -2.959952
| 44>   H                    : 1.293219             -0.079725            -0.462173
| 45>   H                    : 0.480284             -1.107234            -1.686789
| 46>   H                    : 1.961819             -1.640637            -0.787274
| 47> *
| 48>
| 49> #Run DFT-D3 single point of the particle with dimer basis set
| 50> $new_job
| 51> %base "21-36_DFT_B"
| 52> ! wB97X-D3 def2-TZVP TIGHTSCF CHELPG PMODEL
| 53>
| 54> %scf
| 55> MaxIter 1000
| 56> end
| 57>
| 58> * xyz 0 1
| 59>   C                    : 2.453454             1.166860             -5.874115
| 60>   O                    : 3.686145             1.240109             -5.184784
| 61>   H                    : 3.920853             2.166736             -5.242162
| 62>   H                    : 1.624176             1.779049             -5.362332
| 63>   H                    : 2.542419             1.779453             -6.767790
| 64>   H                    : 2.112095             0.179773             -6.170195
| 65>   C                      1.462838             -0.711124            -1.274654
| 66>   O                      2.243322             -0.188704            -2.242712
| 67>   H                      1.745035             0.212361             -2.959952
| 68>   H                      1.293219             -0.079725            -0.462173
| 69>   H                      0.480284             -1.107234            -1.686789
| 70>   H                      1.961819             -1.640637            -0.787274
| 71> *
| 72>
| 73>                          ****END OF INPUT****
 Total Charge           Charge          ....    0
 Multiplicity           Mult            ....    1
 Number of Electrons    NEL             ....   36
Dispersion correction           -0.001309255
FINAL SINGLE POINT ENERGY      -231.456271187674
Dispersion correction           -0.000230652
FINAL SINGLE POINT ENERGY      -115.728493687051

CARTESIAN COORDINATES (ANGSTROEM)
---------------------------------
  C      2.453454    1.166860   -5.874115
  O      3.686145    1.240109   -5.184784
  H      3.920853    2.166736   -5.242162
  H      1.624176    1.779049   -5.362332
  H      2.542419    1.779453   -6.767790
  H      2.112095    0.179773   -6.170195
  C      1.462838   -0.711124   -1.274654
  O      2.243322   -0.188704   -2.242712
  H      1.745035    0.212361   -2.959952
  H      1.293219   -0.079725   -0.462173
  H      0.480284   -1.107234   -1.686789
  H      1.961819   -1.640637   -0.787274

 Multiplicity           Mult            ....    1
 Number of Electrons    NEL             ....   18
 Basis Dimension        Dim             ....  172

ORBITAL ENERGIES
----------------

  NO   OCC          E(Eh)            E(eV)
   0   2.0000     -19.231030      -523.3029
   1   2.0000     -10.313872      -280.6547
   2   2.0000      -1.155909       -31.4539
   3   2.0000      -0.793702       -21.5977
   4   2.0000      -0.624313       -16.9884
   5   2.0000      -0.553957       -15.0739
   6   2.0000      -0.530608       -14.4386
   7   2.0000      -0.415761       -11.3134
   8   2.0000      -0.371949       -10.1212
   9   0.0000       0.073999         2.0136
  10   0.0000       0.126128         3.4321
  11   0.0000       0.153469         4.1761
  12   0.0000       0.168461         4.5841
  13   0.0000       0.191369         5.2074

MULLIKEN ATOMIC CHARGES
-----------------------
   0 C :   -0.000103
   1 O :   -0.000163
   2 H :   -0.000030
   3 H :   -0.000590
   4 H :   -0.000023
   5 H :   -0.000255
   6 C :   -0.144480
   7 O :   -0.466321
   8 H :    0.325337
   9 H :    0.103300
  10 H :    0.086602
  11 H :    0.096725
Sum of atomic charges:   -0.0000000

LOEWDIN ATOMIC CHARGES
----------------------
   0 C :   -0.002495
   1 O :   -0.000569
   2 H :   -0.000061
   3 H :   -0.000608
   4 H :   -0.000034
   5 H :   -0.000224
   6 C :   -0.439761
   7 O :   -0.026409
   8 H :    0.176641
   9 H :    0.080081
  10 H :    0.099360
  11 H :    0.114078

  Mayer bond orders larger than 0.1
B(  6-C ,  7-O ) :   1.0190 B(  6-C ,  9-H ) :   0.9735 B(  6-C , 10-H ) :   0.9876
B(  6-C , 11-H ) :   0.9719 B(  7-O ,  8-H ) :   0.8871

Dispersion correction           -0.000242863
FINAL SINGLE POINT ENERGY      -115.727857181615

DIPOLE MOMENT
-------------
                                X             Y             Z
Electronic contribution:      1.14898       0.87770      -1.27996
Nuclear contribution   :     -1.76076      -0.78711       1.15302
                        -----------------------------------------
Total Dipole Moment    :     -0.61178       0.09059      -0.12694
                        -----------------------------------------
Magnitude (a.u.)       :      0.63134
Magnitude (Debye)      :      1.60474

Rotational constants in cm-1:     4.327847     0.880749     0.844097
Rotational constants in MHz : 129745.603834 26404.175848 25305.404905

                             ****ORCA TERMINATED NORMALLY****
TOTAL RUN TIME: 0 days 0 hours 0 minutes 59 seconds 224 msec
