                         Program Version 4.1.2  - RELEASE  -
|  1> #Run DFT-D3 single point of the dimer
|  2> ! wB97X-D3 def2-TZVP TIGHTSCF  CHELPG PAL8
|  3>
|  4> %base "86_charges"
|  5>
|  6> %scf
|  7> MaxIter 1000
|  8> end
|  9> %output
| 10>   Print[ P_Mayer ] 1
| 11>   Print[ P_NatPop ] 1
| 12>   Print[ P_Hirshfeld ] 1
| 13>   Print[ P_Mulliken ] 1
| 14>   Print [ P_Loewdin ] 1
| 15> end
| 16>
| 17> * xyz 0 1
| 18>   C                      1.449547             7.497749             -5.309497
| 19>   O                      0.507473             6.817382             -6.088610
| 20>   H                      0.855681             6.722775             -7.022863
| 21>   H                      2.078895             8.171518             -5.898656
| 22>   H                      0.947844             8.029111             -4.434158
| 23>   H                      2.215931             6.845951             -4.810663
| 24> *
| 25>
| 26>                          ****END OF INPUT****

CARTESIAN COORDINATES (ANGSTROEM)
---------------------------------
  C      1.449547    7.497749   -5.309497
  O      0.507473    6.817382   -6.088610
  H      0.855681    6.722775   -7.022863
  H      2.078895    8.171518   -5.898656
  H      0.947844    8.029111   -4.434158
  H      2.215931    6.845951   -4.810663

 Total Charge           Charge          ....    0
 Multiplicity           Mult            ....    1
 Number of Electrons    NEL             ....   18
 Basis Dimension        Dim             ....   86

ORBITAL ENERGIES
----------------

  NO   OCC          E(Eh)            E(eV)
   0   2.0000     -19.237132      -523.4690
   1   2.0000     -10.319862      -280.8177
   2   2.0000      -1.134757       -30.8783
   3   2.0000      -0.787390       -21.4260
   4   2.0000      -0.614755       -16.7283
   5   2.0000      -0.532973       -14.5029
   6   2.0000      -0.523947       -14.2573
   7   2.0000      -0.434038       -11.8108
   8   2.0000      -0.368614       -10.0305
   9   0.0000       0.108271         2.9462
  10   0.0000       0.148708         4.0465
  11   0.0000       0.197132         5.3642
  12   0.0000       0.205396         5.5891
  13   0.0000       0.232214         6.3189

MULLIKEN ATOMIC CHARGES
-----------------------
   0 C :   -0.162092
   1 O :   -0.469223
   2 H :    0.321610
   3 H :    0.100148
   4 H :    0.117491
   5 H :    0.092066
Sum of atomic charges:   -0.0000000

LOEWDIN ATOMIC CHARGES
----------------------
   0 C :   -0.414951
   1 O :   -0.082765
   2 H :    0.195712
   3 H :    0.092255
   4 H :    0.114886
   5 H :    0.094864

  Mayer bond orders larger than 0.1
B(  0-C ,  1-O ) :   1.0149 B(  0-C ,  3-H ) :   0.9814 B(  0-C ,  4-H ) :   0.9724
B(  0-C ,  5-H ) :   0.9688 B(  1-O ,  2-H ) :   0.8887

Dispersion correction           -0.000263319
FINAL SINGLE POINT ENERGY      -115.730936036695

DIPOLE MOMENT
-------------
                                X             Y             Z
Electronic contribution:     -1.42461      -0.88398      -1.00628
Nuclear contribution   :      2.00429       1.08815       0.69319
                        -----------------------------------------
Total Dipole Moment    :      0.57968       0.20416      -0.31309
                        -----------------------------------------
Magnitude (a.u.)       :      0.68974
Magnitude (Debye)      :      1.75317

Rotational constants in cm-1:     4.192589     0.834194     0.791672
Rotational constants in MHz : 125690.664881 25008.511723 23733.736258

                             ****ORCA TERMINATED NORMALLY****
TOTAL RUN TIME: 0 days 0 hours 0 minutes 41 seconds 615 msec
