                         Program Version 4.1.2  - RELEASE  -
|  1> #Run DFT-D3 single point of the dimer
|  2> ! wB97X-D3 def2-TZVP TIGHTSCF CHELPG PMODEL PAL8
|  3>
|  4> %base "22-150_DFT_AB"
|  5>
|  6> %scf
|  7> MaxIter 1000
|  8> end
|  9>
| 10> * xyz 0 1
| 11>   C                      5.841575             5.538677             -8.971014
| 12>   O                      5.937929             5.637680             -10.311734
| 13>   H                      6.324297             4.832202             -10.653868
| 14>   H                      5.247490             6.394668             -8.527192
| 15>   H                      5.280921             4.660592             -8.722857
| 16>   H                      6.775231             5.503065             -8.381655
| 17>   C                      9.131496             8.642149             -10.889142
| 18>   O                      8.416454             7.496642             -11.255507
| 19>   H                      7.910878             7.238208             -10.442181
| 20>   H                      8.768745             9.228676             -10.007910
| 21>   H                      10.229135            8.312411             -10.763482
| 22>   H                      9.056931             9.478766             -11.595643
| 23> *
| 24>
| 25> #Run DFT-D3 single point of the molecule with dimer basis set
| 26> $new_job
| 27> %base "22-150_DFT_A"
| 28> ! wB97X-D3 def2-TZVP TIGHTSCF CHELPG PMODEL
| 29>
| 30> %scf
| 31> MaxIter 1000
| 32> end
| 33>
| 34> * xyz 0 1
| 35>   C                      5.841575             5.538677             -8.971014
| 36>   O                      5.937929             5.637680             -10.311734
| 37>   H                      6.324297             4.832202             -10.653868
| 38>   H                      5.247490             6.394668             -8.527192
| 39>   H                      5.280921             4.660592             -8.722857
| 40>   H                      6.775231             5.503065             -8.381655
| 41>   C                    : 9.131496             8.642149             -10.889142
| 42>   O                    : 8.416454             7.496642             -11.255507
| 43>   H                    : 7.910878             7.238208             -10.442181
| 44>   H                    : 8.768745             9.228676             -10.007910
| 45>   H                    : 10.229135            8.312411             -10.763482
| 46>   H                    : 9.056931             9.478766             -11.595643
| 47> *
| 48>
| 49> #Run DFT-D3 single point of the particle with dimer basis set
| 50> $new_job
| 51> %base "22-150_DFT_B"
| 52> ! wB97X-D3 def2-TZVP TIGHTSCF CHELPG PMODEL
| 53>
| 54> %scf
| 55> MaxIter 1000
| 56> end
| 57>
| 58> * xyz 0 1
| 59>   C                    : 5.841575             5.538677             -8.971014
| 60>   O                    : 5.937929             5.637680             -10.311734
| 61>   H                    : 6.324297             4.832202             -10.653868
| 62>   H                    : 5.247490             6.394668             -8.527192
| 63>   H                    : 5.280921             4.660592             -8.722857
| 64>   H                    : 6.775231             5.503065             -8.381655
| 65>   C                      9.131496             8.642149             -10.889142
| 66>   O                      8.416454             7.496642             -11.255507
| 67>   H                      7.910878             7.238208             -10.442181
| 68>   H                      8.768745             9.228676             -10.007910
| 69>   H                      10.229135            8.312411             -10.763482
| 70>   H                      9.056931             9.478766             -11.595643
| 71> *
| 72>
| 73>                          ****END OF INPUT****
 Total Charge           Charge          ....    0
 Multiplicity           Mult            ....    1
 Number of Electrons    NEL             ....   36
Dispersion correction           -0.001472664
FINAL SINGLE POINT ENERGY      -231.461039933334
Dispersion correction           -0.000225161
FINAL SINGLE POINT ENERGY      -115.731840770402

CARTESIAN COORDINATES (ANGSTROEM)
---------------------------------
  C      5.841575    5.538677   -8.971014
  O      5.937929    5.637680  -10.311734
  H      6.324297    4.832202  -10.653868
  H      5.247490    6.394668   -8.527192
  H      5.280921    4.660592   -8.722857
  H      6.775231    5.503065   -8.381655
  C      9.131496    8.642149  -10.889142
  O      8.416454    7.496642  -11.255507
  H      7.910878    7.238208  -10.442181
  H      8.768745    9.228676  -10.007910
  H     10.229135    8.312411  -10.763482
  H      9.056931    9.478766  -11.595643

 Multiplicity           Mult            ....    1
 Number of Electrons    NEL             ....   18
 Basis Dimension        Dim             ....  172

ORBITAL ENERGIES
----------------

  NO   OCC          E(Eh)            E(eV)
   0   2.0000     -19.237711      -523.4847
   1   2.0000     -10.320844      -280.8444
   2   2.0000      -1.139278       -31.0013
   3   2.0000      -0.787079       -21.4175
   4   2.0000      -0.613038       -16.6816
   5   2.0000      -0.542750       -14.7690
   6   2.0000      -0.519750       -14.1431
   7   2.0000      -0.428155       -11.6507
   8   2.0000      -0.373429       -10.1615
   9   0.0000       0.069882         1.9016
  10   0.0000       0.126314         3.4372
  11   0.0000       0.148933         4.0527
  12   0.0000       0.167442         4.5563
  13   0.0000       0.188181         5.1207

MULLIKEN ATOMIC CHARGES
-----------------------
   0 C :   -0.000881
   1 O :    0.000052
   2 H :   -0.000277
   3 H :   -0.000023
   4 H :   -0.000030
   5 H :   -0.000371
   6 C :   -0.185437
   7 O :   -0.457050
   8 H :    0.322391
   9 H :    0.104971
  10 H :    0.105206
  11 H :    0.111449
Sum of atomic charges:   -0.0000000

LOEWDIN ATOMIC CHARGES
----------------------
   0 C :   -0.003250
   1 O :   -0.003390
   2 H :   -0.000643
   3 H :   -0.000085
   4 H :   -0.000064
   5 H :   -0.000546
   6 C :   -0.422035
   7 O :   -0.075210
   8 H :    0.195189
   9 H :    0.100368
  10 H :    0.108594
  11 H :    0.101072

  Mayer bond orders larger than 0.1
B(  6-C ,  7-O ) :   1.0110 B(  6-C ,  9-H ) :   0.9748 B(  6-C , 10-H ) :   0.9804
B(  6-C , 11-H ) :   0.9666 B(  7-O ,  8-H ) :   0.8940

Dispersion correction           -0.000264773
FINAL SINGLE POINT ENERGY      -115.726373809295

DIPOLE MOMENT
-------------
                                X             Y             Z
Electronic contribution:     -0.97225      -1.59610      -0.64943
Nuclear contribution   :      0.87528       1.88341       1.29634
                        -----------------------------------------
Total Dipole Moment    :     -0.09696       0.28731       0.64692
                        -----------------------------------------
Magnitude (a.u.)       :      0.71446
Magnitude (Debye)      :      1.81601

Rotational constants in cm-1:     4.143862     0.827364     0.806552
Rotational constants in MHz : 124229.852338 24803.742407 24179.815367

                             ****ORCA TERMINATED NORMALLY****
TOTAL RUN TIME: 0 days 0 hours 1 minutes 4 seconds 451 msec
