                         Program Version 4.1.2  - RELEASE  -
|  1> #Run DFT-D3 single point of the dimer
|  2> ! wB97X-D3 def2-TZVP TIGHTSCF CHELPG PMODEL PAL8
|  3>
|  4> %base "3-129_DFT_AB"
|  5>
|  6> %scf
|  7> MaxIter 1000
|  8> end
|  9>
| 10> * xyz 0 1
| 11>   C                      -5.125897            10.645962            -7.950531
| 12>   O                      -3.938590            11.012197            -8.624438
| 13>   H                      -4.199529            11.593696            -9.357696
| 14>   H                      -5.823865            11.454333            -7.798836
| 15>   H                      -5.709134            9.760700             -8.411397
| 16>   H                      -4.977675            10.337166            -6.942774
| 17>   C                      -4.786953            7.075287             -5.833262
| 18>   O                      -5.413585            8.261123             -5.360470
| 19>   H                      -5.604644            8.063137             -4.449744
| 20>   H                      -4.462483            6.404452             -5.019683
| 21>   H                      -5.419503            6.496374             -6.558865
| 22>   H                      -3.912728            7.235299             -6.455467
| 23> *
| 24>
| 25> #Run DFT-D3 single point of the molecule with dimer basis set
| 26> $new_job
| 27> %base "3-129_DFT_A"
| 28> ! wB97X-D3 def2-TZVP TIGHTSCF CHELPG PMODEL
| 29>
| 30> %scf
| 31> MaxIter 1000
| 32> end
| 33>
| 34> * xyz 0 1
| 35>   C                      -5.125897            10.645962            -7.950531
| 36>   O                      -3.938590            11.012197            -8.624438
| 37>   H                      -4.199529            11.593696            -9.357696
| 38>   H                      -5.823865            11.454333            -7.798836
| 39>   H                      -5.709134            9.760700             -8.411397
| 40>   H                      -4.977675            10.337166            -6.942774
| 41>   C                    : -4.786953            7.075287             -5.833262
| 42>   O                    : -5.413585            8.261123             -5.360470
| 43>   H                    : -5.604644            8.063137             -4.449744
| 44>   H                    : -4.462483            6.404452             -5.019683
| 45>   H                    : -5.419503            6.496374             -6.558865
| 46>   H                    : -3.912728            7.235299             -6.455467
| 47> *
| 48>
| 49> #Run DFT-D3 single point of the particle with dimer basis set
| 50> $new_job
| 51> %base "3-129_DFT_B"
| 52> ! wB97X-D3 def2-TZVP TIGHTSCF CHELPG PMODEL
| 53>
| 54> %scf
| 55> MaxIter 1000
| 56> end
| 57>
| 58> * xyz 0 1
| 59>   C                    : -5.125897            10.645962            -7.950531
| 60>   O                    : -3.938590            11.012197            -8.624438
| 61>   H                    : -4.199529            11.593696            -9.357696
| 62>   H                    : -5.823865            11.454333            -7.798836
| 63>   H                    : -5.709134            9.760700             -8.411397
| 64>   H                    : -4.977675            10.337166            -6.942774
| 65>   C                      -4.786953            7.075287             -5.833262
| 66>   O                      -5.413585            8.261123             -5.360470
| 67>   H                      -5.604644            8.063137             -4.449744
| 68>   H                      -4.462483            6.404452             -5.019683
| 69>   H                      -5.419503            6.496374             -6.558865
| 70>   H                      -3.912728            7.235299             -6.455467
| 71> *
| 72>
| 73>                          ****END OF INPUT****
 Total Charge           Charge          ....    0
 Multiplicity           Mult            ....    1
 Number of Electrons    NEL             ....   36
Dispersion correction           -0.001565960
FINAL SINGLE POINT ENERGY      -231.465106902058
Dispersion correction           -0.000269654
FINAL SINGLE POINT ENERGY      -115.730948568111

CARTESIAN COORDINATES (ANGSTROEM)
---------------------------------
  C     -5.125897   10.645962   -7.950531
  O     -3.938590   11.012197   -8.624438
  H     -4.199529   11.593696   -9.357696
  H     -5.823865   11.454333   -7.798836
  H     -5.709134    9.760700   -8.411397
  H     -4.977675   10.337166   -6.942774
  C     -4.786953    7.075287   -5.833262
  O     -5.413585    8.261123   -5.360470
  H     -5.604644    8.063137   -4.449744
  H     -4.462483    6.404452   -5.019683
  H     -5.419503    6.496374   -6.558865
  H     -3.912728    7.235299   -6.455467

 Multiplicity           Mult            ....    1
 Number of Electrons    NEL             ....   18
 Basis Dimension        Dim             ....  172

ORBITAL ENERGIES
----------------

  NO   OCC          E(Eh)            E(eV)
   0   2.0000     -19.235782      -523.4322
   1   2.0000     -10.317623      -280.7568
   2   2.0000      -1.141050       -31.0496
   3   2.0000      -0.795519       -21.6472
   4   2.0000      -0.613291       -16.6885
   5   2.0000      -0.536048       -14.5866
   6   2.0000      -0.527491       -14.3538
   7   2.0000      -0.442323       -12.0362
   8   2.0000      -0.373818       -10.1721
   9   0.0000       0.095542         2.5998
  10   0.0000       0.119151         3.2423
  11   0.0000       0.148289         4.0351
  12   0.0000       0.180084         4.9003
  13   0.0000       0.193618         5.2686

MULLIKEN ATOMIC CHARGES
-----------------------
   0 C :    0.003491
   1 O :   -0.000076
   2 H :   -0.000008
   3 H :   -0.000282
   4 H :   -0.000717
   5 H :   -0.008748
   6 C :   -0.190806
   7 O :   -0.449002
   8 H :    0.314358
   9 H :    0.111234
  10 H :    0.101722
  11 H :    0.118834
Sum of atomic charges:   -0.0000000

LOEWDIN ATOMIC CHARGES
----------------------
   0 C :   -0.004107
   1 O :   -0.000030
   2 H :   -0.000008
   3 H :   -0.000044
   4 H :   -0.000415
   5 H :   -0.008093
   6 C :   -0.392365
   7 O :   -0.064016
   8 H :    0.167129
   9 H :    0.100127
  10 H :    0.101641
  11 H :    0.100180

  Mayer bond orders larger than 0.1
B(  6-C ,  7-O ) :   1.0144 B(  6-C ,  9-H ) :   0.9793 B(  6-C , 10-H ) :   0.9747
B(  6-C , 11-H ) :   0.9761 B(  7-O ,  8-H ) :   0.9020

Dispersion correction           -0.000261904
FINAL SINGLE POINT ENERGY      -115.732062343559

DIPOLE MOMENT
-------------
                                X             Y             Z
Electronic contribution:     -0.81960       1.70890       0.59363
Nuclear contribution   :      0.96335      -2.29672      -0.18628
                        -----------------------------------------
Total Dipole Moment    :      0.14374      -0.58782       0.40735
                        -----------------------------------------
Magnitude (a.u.)       :      0.72947
Magnitude (Debye)      :      1.85417

Rotational constants in cm-1:     4.359232     0.818498     0.782270
Rotational constants in MHz : 130686.493442 24537.940764 23451.875619

                             ****ORCA TERMINATED NORMALLY****
TOTAL RUN TIME: 0 days 0 hours 6 minutes 24 seconds 861 msec
