                         Program Version 4.1.2  - RELEASE  -
|  1> #Run DFT-D3 single point of the dimer
|  2> ! wB97X-D3 def2-TZVP TIGHTSCF CHELPG PMODEL PAL8
|  3>
|  4> %base "10-129_DFT_AB"
|  5>
|  6> %scf
|  7> MaxIter 1000
|  8> end
|  9>
| 10> * xyz 0 1
| 11>   C                      -4.428457            9.457185             6.975211
| 12>   O                      -3.977799            8.276667             7.423609
| 13>   H                      -3.298247            8.485323             8.074216
| 14>   H                      -3.876182            10.238919            7.490986
| 15>   H                      -4.354874            9.603095             5.907255
| 16>   H                      -5.539428            9.552613             7.158782
| 17>   C                      -6.367076            7.219084             4.384384
| 18>   O                      -6.531146            5.884104             4.062090
| 19>   H                      -7.046276            5.471730             4.776969
| 20>   H                      -5.481634            7.619671             3.840341
| 21>   H                      -7.226270            7.889155             4.174136
| 22>   H                      -6.196221            7.273434             5.470295
| 23> *
| 24>
| 25> #Run DFT-D3 single point of the molecule with dimer basis set
| 26> $new_job
| 27> %base "10-129_DFT_A"
| 28> ! wB97X-D3 def2-TZVP TIGHTSCF CHELPG PMODEL
| 29>
| 30> %scf
| 31> MaxIter 1000
| 32> end
| 33>
| 34> * xyz 0 1
| 35>   C                      -4.428457            9.457185             6.975211
| 36>   O                      -3.977799            8.276667             7.423609
| 37>   H                      -3.298247            8.485323             8.074216
| 38>   H                      -3.876182            10.238919            7.490986
| 39>   H                      -4.354874            9.603095             5.907255
| 40>   H                      -5.539428            9.552613             7.158782
| 41>   C                    : -6.367076            7.219084             4.384384
| 42>   O                    : -6.531146            5.884104             4.062090
| 43>   H                    : -7.046276            5.471730             4.776969
| 44>   H                    : -5.481634            7.619671             3.840341
| 45>   H                    : -7.226270            7.889155             4.174136
| 46>   H                    : -6.196221            7.273434             5.470295
| 47> *
| 48>
| 49> #Run DFT-D3 single point of the particle with dimer basis set
| 50> $new_job
| 51> %base "10-129_DFT_B"
| 52> ! wB97X-D3 def2-TZVP TIGHTSCF CHELPG PMODEL
| 53>
| 54> %scf
| 55> MaxIter 1000
| 56> end
| 57>
| 58> * xyz 0 1
| 59>   C                    : -4.428457            9.457185             6.975211
| 60>   O                    : -3.977799            8.276667             7.423609
| 61>   H                    : -3.298247            8.485323             8.074216
| 62>   H                    : -3.876182            10.238919            7.490986
| 63>   H                    : -4.354874            9.603095             5.907255
| 64>   H                    : -5.539428            9.552613             7.158782
| 65>   C                      -6.367076            7.219084             4.384384
| 66>   O                      -6.531146            5.884104             4.062090
| 67>   H                      -7.046276            5.471730             4.776969
| 68>   H                      -5.481634            7.619671             3.840341
| 69>   H                      -7.226270            7.889155             4.174136
| 70>   H                      -6.196221            7.273434             5.470295
| 71> *
| 72>
| 73>                          ****END OF INPUT****
 Total Charge           Charge          ....    0
 Multiplicity           Mult            ....    1
 Number of Electrons    NEL             ....   36
Dispersion correction           -0.001524439
FINAL SINGLE POINT ENERGY      -231.463530421536
Dispersion correction           -0.000217365
FINAL SINGLE POINT ENERGY      -115.728052622901

CARTESIAN COORDINATES (ANGSTROEM)
---------------------------------
  C     -4.428457    9.457185    6.975211
  O     -3.977799    8.276667    7.423609
  H     -3.298247    8.485323    8.074216
  H     -3.876182   10.238919    7.490986
  H     -4.354874    9.603095    5.907255
  H     -5.539428    9.552613    7.158782
  C     -6.367076    7.219084    4.384384
  O     -6.531146    5.884104    4.062090
  H     -7.046276    5.471730    4.776969
  H     -5.481634    7.619671    3.840341
  H     -7.226270    7.889155    4.174136
  H     -6.196221    7.273434    5.470295

 Multiplicity           Mult            ....    1
 Number of Electrons    NEL             ....   18
 Basis Dimension        Dim             ....  172

ORBITAL ENERGIES
----------------

  NO   OCC          E(Eh)            E(eV)
   0   2.0000     -19.232144      -523.3332
   1   2.0000     -10.314708      -280.6775
   2   2.0000      -1.145307       -31.1654
   3   2.0000      -0.788929       -21.4678
   4   2.0000      -0.617163       -16.7939
   5   2.0000      -0.541745       -14.7416
   6   2.0000      -0.530469       -14.4348
   7   2.0000      -0.431044       -11.7293
   8   2.0000      -0.370738       -10.0883
   9   0.0000       0.084119         2.2890
  10   0.0000       0.113037         3.0759
  11   0.0000       0.147974         4.0266
  12   0.0000       0.172485         4.6936
  13   0.0000       0.180685         4.9167

MULLIKEN ATOMIC CHARGES
-----------------------
   0 C :   -0.002639
   1 O :    0.000677
   2 H :    0.000029
   3 H :   -0.000197
   4 H :   -0.000090
   5 H :   -0.000328
   6 C :   -0.158358
   7 O :   -0.463058
   8 H :    0.318154
   9 H :    0.114153
  10 H :    0.095384
  11 H :    0.096273
Sum of atomic charges:    0.0000000

LOEWDIN ATOMIC CHARGES
----------------------
   0 C :   -0.004957
   1 O :   -0.000655
   2 H :   -0.000041
   3 H :   -0.000074
   4 H :   -0.001122
   5 H :   -0.001024
   6 C :   -0.415741
   7 O :   -0.058965
   8 H :    0.180094
   9 H :    0.111735
  10 H :    0.093718
  11 H :    0.097032

  Mayer bond orders larger than 0.1
B(  6-C ,  7-O ) :   1.0110 B(  6-C ,  9-H ) :   0.9733 B(  6-C , 10-H ) :   0.9605
B(  6-C , 11-H ) :   0.9926 B(  7-O ,  8-H ) :   0.8959

Dispersion correction           -0.000232913
FINAL SINGLE POINT ENERGY      -115.734203711171

DIPOLE MOMENT
-------------
                                X             Y             Z
Electronic contribution:     -0.16445      -1.76247      -0.61445
Nuclear contribution   :     -0.08894       1.98146       1.19512
                        -----------------------------------------
Total Dipole Moment    :     -0.25339       0.21899       0.58067
                        -----------------------------------------
Magnitude (a.u.)       :      0.67033
Magnitude (Debye)      :      1.70384

Rotational constants in cm-1:     4.203040     0.861652     0.823960
Rotational constants in MHz : 126003.971855 25831.690170 24701.705421

                             ****ORCA TERMINATED NORMALLY****
TOTAL RUN TIME: 0 days 0 hours 1 minutes 3 seconds 480 msec
