                         Program Version 4.1.2  - RELEASE  -
|  1> #Run DFT-D3 single point of the dimer
|  2> ! wB97X-D3 def2-TZVP TIGHTSCF CHELPG PMODEL PAL8
|  3>
|  4> %base "8-213_DFT_AB"
|  5>
|  6> %scf
|  7> MaxIter 1000
|  8> end
|  9>
| 10> * xyz 0 1
| 11>   C                      2.604720             -8.133478            -0.317205
| 12>   O                      2.877057             -9.507206            -0.544329
| 13>   H                      3.838126             -9.677460            -0.716177
| 14>   H                      3.584018             -7.635507            -0.494861
| 15>   H                      1.769554             -7.666843            -0.948239
| 16>   H                      2.273619             -7.822500            0.680722
| 17>   C                      6.194324             -9.414848            1.244742
| 18>   O                      5.805741             -9.575853            -0.140995
| 19>   H                      6.490147             -9.136554            -0.683734
| 20>   H                      6.938503             -10.191691           1.495944
| 21>   H                      6.664594             -8.475354            1.390717
| 22>   H                      5.295334             -9.471924            1.947946
| 23> *
| 24>
| 25> #Run DFT-D3 single point of the molecule with dimer basis set
| 26> $new_job
| 27> %base "8-213_DFT_A"
| 28> ! wB97X-D3 def2-TZVP TIGHTSCF CHELPG PMODEL
| 29>
| 30> %scf
| 31> MaxIter 1000
| 32> end
| 33>
| 34> * xyz 0 1
| 35>   C                      2.604720             -8.133478            -0.317205
| 36>   O                      2.877057             -9.507206            -0.544329
| 37>   H                      3.838126             -9.677460            -0.716177
| 38>   H                      3.584018             -7.635507            -0.494861
| 39>   H                      1.769554             -7.666843            -0.948239
| 40>   H                      2.273619             -7.822500            0.680722
| 41>   C                    : 6.194324             -9.414848            1.244742
| 42>   O                    : 5.805741             -9.575853            -0.140995
| 43>   H                    : 6.490147             -9.136554            -0.683734
| 44>   H                    : 6.938503             -10.191691           1.495944
| 45>   H                    : 6.664594             -8.475354            1.390717
| 46>   H                    : 5.295334             -9.471924            1.947946
| 47> *
| 48>
| 49> #Run DFT-D3 single point of the particle with dimer basis set
| 50> $new_job
| 51> %base "8-213_DFT_B"
| 52> ! wB97X-D3 def2-TZVP TIGHTSCF CHELPG PMODEL
| 53>
| 54> %scf
| 55> MaxIter 1000
| 56> end
| 57>
| 58> * xyz 0 1
| 59>   C                    : 2.604720             -8.133478            -0.317205
| 60>   O                    : 2.877057             -9.507206            -0.544329
| 61>   H                    : 3.838126             -9.677460            -0.716177
| 62>   H                    : 3.584018             -7.635507            -0.494861
| 63>   H                    : 1.769554             -7.666843            -0.948239
| 64>   H                    : 2.273619             -7.822500            0.680722
| 65>   C                      6.194324             -9.414848            1.244742
| 66>   O                      5.805741             -9.575853            -0.140995
| 67>   H                      6.490147             -9.136554            -0.683734
| 68>   H                      6.938503             -10.191691           1.495944
| 69>   H                      6.664594             -8.475354            1.390717
| 70>   H                      5.295334             -9.471924            1.947946
| 71> *
| 72>
| 73>                          ****END OF INPUT****
 Total Charge           Charge          ....    0
 Multiplicity           Mult            ....    1
 Number of Electrons    NEL             ....   36
Dispersion correction           -0.002006607
FINAL SINGLE POINT ENERGY      -231.467655577690
Dispersion correction           -0.000271210
FINAL SINGLE POINT ENERGY      -115.725464535874

CARTESIAN COORDINATES (ANGSTROEM)
---------------------------------
  C      2.604720   -8.133478   -0.317205
  O      2.877057   -9.507206   -0.544329
  H      3.838126   -9.677460   -0.716177
  H      3.584018   -7.635507   -0.494861
  H      1.769554   -7.666843   -0.948239
  H      2.273619   -7.822500    0.680722
  C      6.194324   -9.414848    1.244742
  O      5.805741   -9.575853   -0.140995
  H      6.490147   -9.136554   -0.683734
  H      6.938503  -10.191691    1.495944
  H      6.664594   -8.475354    1.390717
  H      5.295334   -9.471924    1.947946

 Multiplicity           Mult            ....    1
 Number of Electrons    NEL             ....   18
 Basis Dimension        Dim             ....  172

ORBITAL ENERGIES
----------------

  NO   OCC          E(Eh)            E(eV)
   0   2.0000     -19.231758      -523.3227
   1   2.0000     -10.319218      -280.8002
   2   2.0000      -1.123550       -30.5733
   3   2.0000      -0.792974       -21.5779
   4   2.0000      -0.604800       -16.4574
   5   2.0000      -0.538101       -14.6425
   6   2.0000      -0.520326       -14.1588
   7   2.0000      -0.436355       -11.8738
   8   2.0000      -0.373771       -10.1708
   9   0.0000       0.095154         2.5893
  10   0.0000       0.124101         3.3770
  11   0.0000       0.148441         4.0393
  12   0.0000       0.183245         4.9864
  13   0.0000       0.199010         5.4153

MULLIKEN ATOMIC CHARGES
-----------------------
   0 C :    0.006122
   1 O :   -0.001090
   2 H :   -0.006771
   3 H :   -0.009426
   4 H :   -0.000268
   5 H :   -0.000610
   6 C :   -0.175522
   7 O :   -0.474307
   8 H :    0.313890
   9 H :    0.111304
  10 H :    0.114217
  11 H :    0.122464
Sum of atomic charges:    0.0000000

LOEWDIN ATOMIC CHARGES
----------------------
   0 C :   -0.004106
   1 O :   -0.003705
   2 H :   -0.032755
   3 H :   -0.004402
   4 H :   -0.000035
   5 H :   -0.000088
   6 C :   -0.362550
   7 O :   -0.075604
   8 H :    0.176822
   9 H :    0.099656
  10 H :    0.088621
  11 H :    0.118146

  Mayer bond orders larger than 0.1
B(  6-C ,  7-O ) :   0.9804 B(  6-C ,  9-H ) :   0.9726 B(  6-C , 10-H ) :   0.9776
B(  6-C , 11-H ) :   0.9731 B(  7-O ,  8-H ) :   0.8964

Dispersion correction           -0.000250752
FINAL SINGLE POINT ENERGY      -115.732893242354

DIPOLE MOMENT
-------------
                                X             Y             Z
Electronic contribution:     -0.61378      -0.25066      -1.66698
Nuclear contribution   :      1.22628       0.61514       1.90755
                        -----------------------------------------
Total Dipole Moment    :      0.61250       0.36447       0.24056
                        -----------------------------------------
Magnitude (a.u.)       :      0.75224
Magnitude (Debye)      :      1.91205

Rotational constants in cm-1:     4.184486     0.800107     0.769461
Rotational constants in MHz : 125447.739300 23986.596791 23067.855661

                             ****ORCA TERMINATED NORMALLY****
TOTAL RUN TIME: 0 days 0 hours 0 minutes 46 seconds 452 msec
