                         Program Version 4.1.2  - RELEASE  -
|  1> #Run DFT-D3 single point of the dimer
|  2> ! wB97X-D3 def2-TZVP TIGHTSCF CHELPG PMODEL PAL8
|  3>
|  4> %base "4-97_DFT_AB"
|  5>
|  6> %scf
|  7> MaxIter 1000
|  8> end
|  9>
| 10> * xyz 0 1
| 11>   C                      8.304697             0.773642             -7.879795
| 12>   O                      7.697569             -0.052126            -8.879199
| 13>   H                      7.046114             -0.492704            -8.416586
| 14>   H                      8.728058             0.224718             -7.058519
| 15>   H                      9.138744             1.205424             -8.296531
| 16>   H                      7.608282             1.530593             -7.478363
| 17>   C                      7.719289             -1.737762            -3.031296
| 18>   O                      8.518482             -2.780515            -3.374779
| 19>   H                      9.124103             -2.990282            -2.636932
| 20>   H                      7.309833             -1.230837            -3.924038
| 21>   H                      6.883094             -2.092492            -2.403325
| 22>   H                      8.296819             -1.021317            -2.430248
| 23> *
| 24>
| 25> #Run DFT-D3 single point of the molecule with dimer basis set
| 26> $new_job
| 27> %base "4-97_DFT_A"
| 28> ! wB97X-D3 def2-TZVP TIGHTSCF CHELPG PMODEL
| 29>
| 30> %scf
| 31> MaxIter 1000
| 32> end
| 33>
| 34> * xyz 0 1
| 35>   C                      8.304697             0.773642             -7.879795
| 36>   O                      7.697569             -0.052126            -8.879199
| 37>   H                      7.046114             -0.492704            -8.416586
| 38>   H                      8.728058             0.224718             -7.058519
| 39>   H                      9.138744             1.205424             -8.296531
| 40>   H                      7.608282             1.530593             -7.478363
| 41>   C                    : 7.719289             -1.737762            -3.031296
| 42>   O                    : 8.518482             -2.780515            -3.374779
| 43>   H                    : 9.124103             -2.990282            -2.636932
| 44>   H                    : 7.309833             -1.230837            -3.924038
| 45>   H                    : 6.883094             -2.092492            -2.403325
| 46>   H                    : 8.296819             -1.021317            -2.430248
| 47> *
| 48>
| 49> #Run DFT-D3 single point of the particle with dimer basis set
| 50> $new_job
| 51> %base "4-97_DFT_B"
| 52> ! wB97X-D3 def2-TZVP TIGHTSCF CHELPG PMODEL
| 53>
| 54> %scf
| 55> MaxIter 1000
| 56> end
| 57>
| 58> * xyz 0 1
| 59>   C                    : 8.304697             0.773642             -7.879795
| 60>   O                    : 7.697569             -0.052126            -8.879199
| 61>   H                    : 7.046114             -0.492704            -8.416586
| 62>   H                    : 8.728058             0.224718             -7.058519
| 63>   H                    : 9.138744             1.205424             -8.296531
| 64>   H                    : 7.608282             1.530593             -7.478363
| 65>   C                      7.719289             -1.737762            -3.031296
| 66>   O                      8.518482             -2.780515            -3.374779
| 67>   H                      9.124103             -2.990282            -2.636932
| 68>   H                      7.309833             -1.230837            -3.924038
| 69>   H                      6.883094             -2.092492            -2.403325
| 70>   H                      8.296819             -1.021317            -2.430248
| 71> *
| 72>
| 73>                          ****END OF INPUT****
 Total Charge           Charge          ....    0
 Multiplicity           Mult            ....    1
 Number of Electrons    NEL             ....   36
Dispersion correction           -0.000659074
FINAL SINGLE POINT ENERGY      -231.463513218990
Dispersion correction           -0.000227093
FINAL SINGLE POINT ENERGY      -115.729947262006

CARTESIAN COORDINATES (ANGSTROEM)
---------------------------------
  C      8.304697    0.773642   -7.879795
  O      7.697569   -0.052126   -8.879199
  H      7.046114   -0.492704   -8.416586
  H      8.728058    0.224718   -7.058519
  H      9.138744    1.205424   -8.296531
  H      7.608282    1.530593   -7.478363
  C      7.719289   -1.737762   -3.031296
  O      8.518482   -2.780515   -3.374779
  H      9.124103   -2.990282   -2.636932
  H      7.309833   -1.230837   -3.924038
  H      6.883094   -2.092492   -2.403325
  H      8.296819   -1.021317   -2.430248

 Multiplicity           Mult            ....    1
 Number of Electrons    NEL             ....   18
 Basis Dimension        Dim             ....  172

ORBITAL ENERGIES
----------------

  NO   OCC          E(Eh)            E(eV)
   0   2.0000     -19.228643      -523.2380
   1   2.0000     -10.310751      -280.5698
   2   2.0000      -1.150382       -31.3035
   3   2.0000      -0.788809       -21.4646
   4   2.0000      -0.619175       -16.8486
   5   2.0000      -0.545815       -14.8524
   6   2.0000      -0.536825       -14.6077
   7   2.0000      -0.425870       -11.5885
   8   2.0000      -0.366669        -9.9776
   9   0.0000       0.087233         2.3737
  10   0.0000       0.112015         3.0481
  11   0.0000       0.155185         4.2228
  12   0.0000       0.169065         4.6005
  13   0.0000       0.186323         5.0701

MULLIKEN ATOMIC CHARGES
-----------------------
   0 C :   -0.000237
   1 O :    0.000003
   2 H :   -0.000005
   3 H :    0.000221
   4 H :    0.000005
   5 H :    0.000012
   6 C :   -0.150093
   7 O :   -0.466188
   8 H :    0.320230
   9 H :    0.112588
  10 H :    0.090952
  11 H :    0.092512
Sum of atomic charges:   -0.0000000

LOEWDIN ATOMIC CHARGES
----------------------
   0 C :   -0.000087
   1 O :   -0.000001
   2 H :   -0.000006
   3 H :   -0.000052
   4 H :   -0.000000
   5 H :   -0.000007
   6 C :   -0.431474
   7 O :   -0.046653
   8 H :    0.184444
   9 H :    0.108571
  10 H :    0.092477
  11 H :    0.092789

  Mayer bond orders larger than 0.1
B(  6-C ,  7-O ) :   1.0081 B(  6-C ,  9-H ) :   0.9703 B(  6-C , 10-H ) :   0.9765
B(  6-C , 11-H ) :   0.9884 B(  7-O ,  8-H ) :   0.8917

Dispersion correction           -0.000216598
FINAL SINGLE POINT ENERGY      -115.733282504716

DIPOLE MOMENT
-------------
                                X             Y             Z
Electronic contribution:      1.00164      -1.38081      -0.65170
Nuclear contribution   :     -0.88776       1.63151       1.23994
                        -----------------------------------------
Total Dipole Moment    :      0.11388       0.25070       0.58824
                        -----------------------------------------
Magnitude (a.u.)       :      0.64949
Magnitude (Debye)      :      1.65088

Rotational constants in cm-1:     4.210290     0.888014     0.851247
Rotational constants in MHz : 126221.303997 26622.002066 25519.731718

                             ****ORCA TERMINATED NORMALLY****
TOTAL RUN TIME: 0 days 0 hours 1 minutes 32 seconds 677 msec
