                         Program Version 4.1.2  - RELEASE  -
|  1> #Run DFT-D3 single point of the dimer
|  2> ! wB97X-D3 def2-TZVP TIGHTSCF CHELPG PMODEL PAL8
|  3>
|  4> %base "6-140_DFT_AB"
|  5>
|  6> %scf
|  7> MaxIter 1000
|  8> end
|  9>
| 10> * xyz 0 1
| 11>   C                      -4.761511            4.033597             0.644561
| 12>   O                      -5.840978            3.433233             0.049642
| 13>   H                      -5.492849            2.523633             0.104784
| 14>   H                      -3.783085            3.629081             0.423102
| 15>   H                      -4.640133            5.102742             0.387107
| 16>   H                      -4.887416            4.115966             1.738798
| 17>   C                      -7.912925            0.992242             3.941858
| 18>   O                      -6.750561            1.834238             4.058305
| 19>   H                      -7.014602            2.794689             4.036021
| 20>   H                      -8.535824            1.214894             3.059006
| 21>   H                      -7.644131            -0.054217            3.733480
| 22>   H                      -8.441307            0.935733             4.903011
| 23> *
| 24>
| 25> #Run DFT-D3 single point of the molecule with dimer basis set
| 26> $new_job
| 27> %base "6-140_DFT_A"
| 28> ! wB97X-D3 def2-TZVP TIGHTSCF CHELPG PMODEL
| 29>
| 30> %scf
| 31> MaxIter 1000
| 32> end
| 33>
| 34> * xyz 0 1
| 35>   C                      -4.761511            4.033597             0.644561
| 36>   O                      -5.840978            3.433233             0.049642
| 37>   H                      -5.492849            2.523633             0.104784
| 38>   H                      -3.783085            3.629081             0.423102
| 39>   H                      -4.640133            5.102742             0.387107
| 40>   H                      -4.887416            4.115966             1.738798
| 41>   C                    : -7.912925            0.992242             3.941858
| 42>   O                    : -6.750561            1.834238             4.058305
| 43>   H                    : -7.014602            2.794689             4.036021
| 44>   H                    : -8.535824            1.214894             3.059006
| 45>   H                    : -7.644131            -0.054217            3.733480
| 46>   H                    : -8.441307            0.935733             4.903011
| 47> *
| 48>
| 49> #Run DFT-D3 single point of the particle with dimer basis set
| 50> $new_job
| 51> %base "6-140_DFT_B"
| 52> ! wB97X-D3 def2-TZVP TIGHTSCF CHELPG PMODEL
| 53>
| 54> %scf
| 55> MaxIter 1000
| 56> end
| 57>
| 58> * xyz 0 1
| 59>   C                    : -4.761511            4.033597             0.644561
| 60>   O                    : -5.840978            3.433233             0.049642
| 61>   H                    : -5.492849            2.523633             0.104784
| 62>   H                    : -3.783085            3.629081             0.423102
| 63>   H                    : -4.640133            5.102742             0.387107
| 64>   H                    : -4.887416            4.115966             1.738798
| 65>   C                      -7.912925            0.992242             3.941858
| 66>   O                      -6.750561            1.834238             4.058305
| 67>   H                      -7.014602            2.794689             4.036021
| 68>   H                      -8.535824            1.214894             3.059006
| 69>   H                      -7.644131            -0.054217            3.733480
| 70>   H                      -8.441307            0.935733             4.903011
| 71> *
| 72>
| 73>                          ****END OF INPUT****
 Total Charge           Charge          ....    0
 Multiplicity           Mult            ....    1
 Number of Electrons    NEL             ....   36
Dispersion correction           -0.000952860
FINAL SINGLE POINT ENERGY      -231.459953172126
Dispersion correction           -0.000218104
FINAL SINGLE POINT ENERGY      -115.726807028000

CARTESIAN COORDINATES (ANGSTROEM)
---------------------------------
  C     -4.761511    4.033597    0.644561
  O     -5.840978    3.433233    0.049642
  H     -5.492849    2.523633    0.104784
  H     -3.783085    3.629081    0.423102
  H     -4.640133    5.102742    0.387107
  H     -4.887416    4.115966    1.738798
  C     -7.912925    0.992242    3.941858
  O     -6.750561    1.834238    4.058305
  H     -7.014602    2.794689    4.036021
  H     -8.535824    1.214894    3.059006
  H     -7.644131   -0.054217    3.733480
  H     -8.441307    0.935733    4.903011

 Multiplicity           Mult            ....    1
 Number of Electrons    NEL             ....   18
 Basis Dimension        Dim             ....  172

ORBITAL ENERGIES
----------------

  NO   OCC          E(Eh)            E(eV)
   0   2.0000     -19.233481      -523.3696
   1   2.0000     -10.317171      -280.7445
   2   2.0000      -1.120139       -30.4805
   3   2.0000      -0.794744       -21.6261
   4   2.0000      -0.597926       -16.2704
   5   2.0000      -0.545908       -14.8549
   6   2.0000      -0.521079       -14.1793
   7   2.0000      -0.423114       -11.5135
   8   2.0000      -0.376527       -10.2458
   9   0.0000       0.086598         2.3564
  10   0.0000       0.118942         3.2366
  11   0.0000       0.145573         3.9612
  12   0.0000       0.171329         4.6621
  13   0.0000       0.197524         5.3749

MULLIKEN ATOMIC CHARGES
-----------------------
   0 C :    0.000375
   1 O :    0.000018
   2 H :   -0.000240
   3 H :   -0.000010
   4 H :   -0.000083
   5 H :   -0.002055
   6 C :   -0.175595
   7 O :   -0.483525
   8 H :    0.320320
   9 H :    0.110077
  10 H :    0.118797
  11 H :    0.111922
Sum of atomic charges:    0.0000000

LOEWDIN ATOMIC CHARGES
----------------------
   0 C :   -0.000680
   1 O :   -0.000068
   2 H :   -0.000242
   3 H :   -0.000003
   4 H :   -0.000013
   5 H :   -0.000849
   6 C :   -0.379014
   7 O :   -0.112948
   8 H :    0.187444
   9 H :    0.098906
  10 H :    0.109363
  11 H :    0.098104

  Mayer bond orders larger than 0.1
B(  6-C ,  7-O ) :   1.0009 B(  6-C ,  9-H ) :   0.9733 B(  6-C , 10-H ) :   0.9714
B(  6-C , 11-H ) :   0.9760 B(  7-O ,  8-H ) :   0.8902

Dispersion correction           -0.000276120
FINAL SINGLE POINT ENERGY      -115.731737288211

DIPOLE MOMENT
-------------
                                X             Y             Z
Electronic contribution:      1.51837       1.03895       0.17388
Nuclear contribution   :     -2.15642      -0.81565      -0.24677
                        -----------------------------------------
Total Dipole Moment    :     -0.63805       0.22331      -0.07289
                        -----------------------------------------
Magnitude (a.u.)       :      0.67992
Magnitude (Debye)      :      1.72822

Rotational constants in cm-1:     4.294924     0.788844     0.773260
Rotational constants in MHz : 128758.582761 23648.952901 23181.764560

                             ****ORCA TERMINATED NORMALLY****
TOTAL RUN TIME: 0 days 0 hours 1 minutes 2 seconds 150 msec
