                         Program Version 4.1.2  - RELEASE  -
|  1> #Run DFT-D3 single point of the dimer
|  2> ! wB97X-D3 def2-TZVP TIGHTSCF CHELPG PMODEL PAL8
|  3>
|  4> %base "19-178_DFT_AB"
|  5>
|  6> %scf
|  7> MaxIter 1000
|  8> end
|  9>
| 10> * xyz 0 1
| 11>   C                      1.734881             6.465670             2.421053
| 12>   O                      2.634085             6.724561             1.380352
| 13>   H                      2.969693             5.856025             1.094452
| 14>   H                      0.869834             5.980634             1.995787
| 15>   H                      2.162642             5.752771             3.164728
| 16>   H                      1.436188             7.411125             2.924409
| 17>   C                      4.295671             3.733466             0.817341
| 18>   O                      2.897017             3.811469             0.464852
| 19>   H                      2.560319             3.075837             0.969836
| 20>   H                      4.950979             4.390941             0.274118
| 21>   H                      4.439813             4.079853             1.906679
| 22>   H                      4.730280             2.730398             0.723484
| 23> *
| 24>
| 25> #Run DFT-D3 single point of the molecule with dimer basis set
| 26> $new_job
| 27> %base "19-178_DFT_A"
| 28> ! wB97X-D3 def2-TZVP TIGHTSCF CHELPG PMODEL
| 29>
| 30> %scf
| 31> MaxIter 1000
| 32> end
| 33>
| 34> * xyz 0 1
| 35>   C                      1.734881             6.465670             2.421053
| 36>   O                      2.634085             6.724561             1.380352
| 37>   H                      2.969693             5.856025             1.094452
| 38>   H                      0.869834             5.980634             1.995787
| 39>   H                      2.162642             5.752771             3.164728
| 40>   H                      1.436188             7.411125             2.924409
| 41>   C                    : 4.295671             3.733466             0.817341
| 42>   O                    : 2.897017             3.811469             0.464852
| 43>   H                    : 2.560319             3.075837             0.969836
| 44>   H                    : 4.950979             4.390941             0.274118
| 45>   H                    : 4.439813             4.079853             1.906679
| 46>   H                    : 4.730280             2.730398             0.723484
| 47> *
| 48>
| 49> #Run DFT-D3 single point of the particle with dimer basis set
| 50> $new_job
| 51> %base "19-178_DFT_B"
| 52> ! wB97X-D3 def2-TZVP TIGHTSCF CHELPG PMODEL
| 53>
| 54> %scf
| 55> MaxIter 1000
| 56> end
| 57>
| 58> * xyz 0 1
| 59>   C                    : 1.734881             6.465670             2.421053
| 60>   O                    : 2.634085             6.724561             1.380352
| 61>   H                    : 2.969693             5.856025             1.094452
| 62>   H                    : 0.869834             5.980634             1.995787
| 63>   H                    : 2.162642             5.752771             3.164728
| 64>   H                    : 1.436188             7.411125             2.924409
| 65>   C                      4.295671             3.733466             0.817341
| 66>   O                      2.897017             3.811469             0.464852
| 67>   H                      2.560319             3.075837             0.969836
| 68>   H                      4.950979             4.390941             0.274118
| 69>   H                      4.439813             4.079853             1.906679
| 70>   H                      4.730280             2.730398             0.723484
| 71> *
| 72>
| 73>                          ****END OF INPUT****
 Total Charge           Charge          ....    0
 Multiplicity           Mult            ....    1
 Number of Electrons    NEL             ....   36
Dispersion correction           -0.002090829
FINAL SINGLE POINT ENERGY      -231.472001472806
Dispersion correction           -0.000219867
FINAL SINGLE POINT ENERGY      -115.735299187217

CARTESIAN COORDINATES (ANGSTROEM)
---------------------------------
  C      1.734881    6.465670    2.421053
  O      2.634085    6.724561    1.380352
  H      2.969693    5.856025    1.094452
  H      0.869834    5.980634    1.995787
  H      2.162642    5.752771    3.164728
  H      1.436188    7.411125    2.924409
  C      4.295671    3.733466    0.817341
  O      2.897017    3.811469    0.464852
  H      2.560319    3.075837    0.969836
  H      4.950979    4.390941    0.274118
  H      4.439813    4.079853    1.906679
  H      4.730280    2.730398    0.723484

 Multiplicity           Mult            ....    1
 Number of Electrons    NEL             ....   18
 Basis Dimension        Dim             ....  172

ORBITAL ENERGIES
----------------

  NO   OCC          E(Eh)            E(eV)
   0   2.0000     -19.236909      -523.4629
   1   2.0000     -10.321552      -280.8637
   2   2.0000      -1.136433       -30.9239
   3   2.0000      -0.794120       -21.6091
   4   2.0000      -0.604975       -16.4622
   5   2.0000      -0.533482       -14.5168
   6   2.0000      -0.529621       -14.4117
   7   2.0000      -0.444576       -12.0975
   8   2.0000      -0.376197       -10.2368
   9   0.0000       0.092386         2.5139
  10   0.0000       0.130199         3.5429
  11   0.0000       0.145771         3.9666
  12   0.0000       0.181652         4.9430
  13   0.0000       0.187229         5.0948

MULLIKEN ATOMIC CHARGES
-----------------------
   0 C :   -0.004059
   1 O :   -0.002707
   2 H :    0.012902
   3 H :   -0.001829
   4 H :   -0.001155
   5 H :   -0.000381
   6 C :   -0.209221
   7 O :   -0.462492
   8 H :    0.316017
   9 H :    0.124947
  10 H :    0.104779
  11 H :    0.123200
Sum of atomic charges:   -0.0000000

LOEWDIN ATOMIC CHARGES
----------------------
   0 C :   -0.006148
   1 O :   -0.002606
   2 H :   -0.022219
   3 H :   -0.001229
   4 H :   -0.000757
   5 H :   -0.000106
   6 C :   -0.374711
   7 O :   -0.068874
   8 H :    0.168550
   9 H :    0.103287
  10 H :    0.106902
  11 H :    0.097911

  Mayer bond orders larger than 0.1
B(  6-C ,  7-O ) :   0.9970 B(  6-C ,  9-H ) :   0.9767 B(  6-C , 10-H ) :   0.9759
B(  6-C , 11-H ) :   0.9684 B(  7-O ,  8-H ) :   0.9022

Dispersion correction           -0.000250691
FINAL SINGLE POINT ENERGY      -115.730965611589

DIPOLE MOMENT
-------------
                                X             Y             Z
Electronic contribution:     -1.83440       0.19881      -0.73788
Nuclear contribution   :      2.19952      -0.68396       1.15356
                        -----------------------------------------
Total Dipole Moment    :      0.36512      -0.48515       0.41568
                        -----------------------------------------
Magnitude (a.u.)       :      0.73585
Magnitude (Debye)      :      1.87037

Rotational constants in cm-1:     4.257105     0.796775     0.773613
Rotational constants in MHz : 127624.789402 23886.716620 23192.347661

                             ****ORCA TERMINATED NORMALLY****
TOTAL RUN TIME: 0 days 0 hours 1 minutes 42 seconds 210 msec
