                         Program Version 4.1.2  - RELEASE  -
|  1> #Run DFT-D3 single point of the dimer
|  2> ! wB97X-D3 def2-TZVP TIGHTSCF CHELPG PMODEL PAL8
|  3>
|  4> %base "9-33_DFT_AB"
|  5>
|  6> %scf
|  7> MaxIter 1000
|  8> end
|  9>
| 10> * xyz 0 1
| 11>   C                      -2.236262            -7.219065            -3.038028
| 12>   O                      -2.089203            -8.488530            -3.702297
| 13>   H                      -2.620605            -8.479153            -4.503310
| 14>   H                      -1.906942            -6.405743            -3.624474
| 15>   H                      -3.225869            -6.961767            -2.730361
| 16>   H                      -1.644495            -7.133655            -2.155844
| 17>   C                      -0.411850            -2.100247            -4.063294
| 18>   O                      -1.012722            -2.373101            -5.308068
| 19>   H                      -0.394791            -2.178237            -6.031232
| 20>   H                      0.676770             -2.216128            -4.156537
| 21>   H                      -0.601774            -1.071963            -3.796479
| 22>   H                      -0.723615            -2.888617            -3.255990
| 23> *
| 24>
| 25> #Run DFT-D3 single point of the molecule with dimer basis set
| 26> $new_job
| 27> %base "9-33_DFT_A"
| 28> ! wB97X-D3 def2-TZVP TIGHTSCF CHELPG PMODEL
| 29>
| 30> %scf
| 31> MaxIter 1000
| 32> end
| 33>
| 34> * xyz 0 1
| 35>   C                      -2.236262            -7.219065            -3.038028
| 36>   O                      -2.089203            -8.488530            -3.702297
| 37>   H                      -2.620605            -8.479153            -4.503310
| 38>   H                      -1.906942            -6.405743            -3.624474
| 39>   H                      -3.225869            -6.961767            -2.730361
| 40>   H                      -1.644495            -7.133655            -2.155844
| 41>   C                    : -0.411850            -2.100247            -4.063294
| 42>   O                    : -1.012722            -2.373101            -5.308068
| 43>   H                    : -0.394791            -2.178237            -6.031232
| 44>   H                    : 0.676770             -2.216128            -4.156537
| 45>   H                    : -0.601774            -1.071963            -3.796479
| 46>   H                    : -0.723615            -2.888617            -3.255990
| 47> *
| 48>
| 49> #Run DFT-D3 single point of the particle with dimer basis set
| 50> $new_job
| 51> %base "9-33_DFT_B"
| 52> ! wB97X-D3 def2-TZVP TIGHTSCF CHELPG PMODEL
| 53>
| 54> %scf
| 55> MaxIter 1000
| 56> end
| 57>
| 58> * xyz 0 1
| 59>   C                    : -2.236262            -7.219065            -3.038028
| 60>   O                    : -2.089203            -8.488530            -3.702297
| 61>   H                    : -2.620605            -8.479153            -4.503310
| 62>   H                    : -1.906942            -6.405743            -3.624474
| 63>   H                    : -3.225869            -6.961767            -2.730361
| 64>   H                    : -1.644495            -7.133655            -2.155844
| 65>   C                      -0.411850            -2.100247            -4.063294
| 66>   O                      -1.012722            -2.373101            -5.308068
| 67>   H                      -0.394791            -2.178237            -6.031232
| 68>   H                      0.676770             -2.216128            -4.156537
| 69>   H                      -0.601774            -1.071963            -3.796479
| 70>   H                      -0.723615            -2.888617            -3.255990
| 71> *
| 72>
| 73>                          ****END OF INPUT****
 Total Charge           Charge          ....    0
 Multiplicity           Mult            ....    1
 Number of Electrons    NEL             ....   36
Dispersion correction           -0.000711352
FINAL SINGLE POINT ENERGY      -231.463373246376
Dispersion correction           -0.000258077
FINAL SINGLE POINT ENERGY      -115.732153066246

CARTESIAN COORDINATES (ANGSTROEM)
---------------------------------
  C     -2.236262   -7.219065   -3.038028
  O     -2.089203   -8.488530   -3.702297
  H     -2.620605   -8.479153   -4.503310
  H     -1.906942   -6.405743   -3.624474
  H     -3.225869   -6.961767   -2.730361
  H     -1.644495   -7.133655   -2.155844
  C     -0.411850   -2.100247   -4.063294
  O     -1.012722   -2.373101   -5.308068
  H     -0.394791   -2.178237   -6.031232
  H      0.676770   -2.216128   -4.156537
  H     -0.601774   -1.071963   -3.796479
  H     -0.723615   -2.888617   -3.255990

 Multiplicity           Mult            ....    1
 Number of Electrons    NEL             ....   18
 Basis Dimension        Dim             ....  172

ORBITAL ENERGIES
----------------

  NO   OCC          E(Eh)            E(eV)
   0   2.0000     -19.228379      -523.2308
   1   2.0000     -10.319688      -280.8130
   2   2.0000      -1.133970       -30.8569
   3   2.0000      -0.789198       -21.4752
   4   2.0000      -0.610762       -16.6197
   5   2.0000      -0.547155       -14.8888
   6   2.0000      -0.519215       -14.1286
   7   2.0000      -0.423495       -11.5239
   8   2.0000      -0.373186       -10.1549
   9   0.0000       0.089096         2.4244
  10   0.0000       0.112234         3.0540
  11   0.0000       0.145760         3.9663
  12   0.0000       0.168213         4.5773
  13   0.0000       0.185181         5.0390

MULLIKEN ATOMIC CHARGES
-----------------------
   0 C :   -0.000186
   1 O :    0.000001
   2 H :   -0.000002
   3 H :   -0.000090
   4 H :    0.000009
   5 H :    0.000038
   6 C :   -0.165541
   7 O :   -0.479638
   8 H :    0.318155
   9 H :    0.104001
  10 H :    0.108176
  11 H :    0.115077
Sum of atomic charges:    0.0000000

LOEWDIN ATOMIC CHARGES
----------------------
   0 C :   -0.000078
   1 O :   -0.000001
   2 H :   -0.000000
   3 H :   -0.000120
   4 H :   -0.000002
   5 H :   -0.000008
   6 C :   -0.395733
   7 O :   -0.085287
   8 H :    0.175075
   9 H :    0.094659
  10 H :    0.091878
  11 H :    0.119618

  Mayer bond orders larger than 0.1
B(  6-C ,  7-O ) :   0.9974 B(  6-C ,  9-H ) :   0.9862 B(  6-C , 10-H ) :   0.9734
B(  6-C , 11-H ) :   0.9669 B(  7-O ,  8-H ) :   0.8951

Dispersion correction           -0.000244508
FINAL SINGLE POINT ENERGY      -115.730660327049

DIPOLE MOMENT
-------------
                                X             Y             Z
Electronic contribution:     -0.94812      -0.31355      -1.50627
Nuclear contribution   :      1.61651       0.54699       1.51416
                        -----------------------------------------
Total Dipole Moment    :      0.66839       0.23344       0.00789
                        -----------------------------------------
Magnitude (a.u.)       :      0.70803
Magnitude (Debye)      :      1.79967

Rotational constants in cm-1:     4.130804     0.830684     0.803186
Rotational constants in MHz : 123838.390020 24903.281903 24078.916404

                             ****ORCA TERMINATED NORMALLY****
TOTAL RUN TIME: 0 days 0 hours 0 minutes 39 seconds 116 msec
