                         Program Version 4.1.2  - RELEASE  -
|  1> #Run DFT-D3 single point of the dimer
|  2> ! wB97X-D3 def2-TZVP TIGHTSCF CHELPG PMODEL PAL8
|  3>
|  4> %base "19-37_DFT_AB"
|  5>
|  6> %scf
|  7> MaxIter 1000
|  8> end
|  9>
| 10> * xyz 0 1
| 11>   C                      7.257563             6.735818             4.442851
| 12>   O                      8.386543             7.556154             4.548185
| 13>   H                      9.044606             7.039462             5.018656
| 14>   H                      7.278685             6.428361             3.430371
| 15>   H                      7.463774             5.931356             5.183014
| 16>   H                      6.305239             7.244127             4.579032
| 17>   C                      7.706852             11.032768            3.316569
| 18>   O                      8.837876             10.276557            3.809578
| 19>   H                      8.568376             9.385786             3.554597
| 20>   H                      7.579536             10.969036            2.189089
| 21>   H                      6.795105             10.734238            3.870401
| 22>   H                      7.911743             12.103925            3.460636
| 23> *
| 24>
| 25> #Run DFT-D3 single point of the molecule with dimer basis set
| 26> $new_job
| 27> %base "19-37_DFT_A"
| 28> ! wB97X-D3 def2-TZVP TIGHTSCF CHELPG PMODEL
| 29>
| 30> %scf
| 31> MaxIter 1000
| 32> end
| 33>
| 34> * xyz 0 1
| 35>   C                      7.257563             6.735818             4.442851
| 36>   O                      8.386543             7.556154             4.548185
| 37>   H                      9.044606             7.039462             5.018656
| 38>   H                      7.278685             6.428361             3.430371
| 39>   H                      7.463774             5.931356             5.183014
| 40>   H                      6.305239             7.244127             4.579032
| 41>   C                    : 7.706852             11.032768            3.316569
| 42>   O                    : 8.837876             10.276557            3.809578
| 43>   H                    : 8.568376             9.385786             3.554597
| 44>   H                    : 7.579536             10.969036            2.189089
| 45>   H                    : 6.795105             10.734238            3.870401
| 46>   H                    : 7.911743             12.103925            3.460636
| 47> *
| 48>
| 49> #Run DFT-D3 single point of the particle with dimer basis set
| 50> $new_job
| 51> %base "19-37_DFT_B"
| 52> ! wB97X-D3 def2-TZVP TIGHTSCF CHELPG PMODEL
| 53>
| 54> %scf
| 55> MaxIter 1000
| 56> end
| 57>
| 58> * xyz 0 1
| 59>   C                    : 7.257563             6.735818             4.442851
| 60>   O                    : 8.386543             7.556154             4.548185
| 61>   H                    : 9.044606             7.039462             5.018656
| 62>   H                    : 7.278685             6.428361             3.430371
| 63>   H                    : 7.463774             5.931356             5.183014
| 64>   H                    : 6.305239             7.244127             4.579032
| 65>   C                      7.706852             11.032768            3.316569
| 66>   O                      8.837876             10.276557            3.809578
| 67>   H                      8.568376             9.385786             3.554597
| 68>   H                      7.579536             10.969036            2.189089
| 69>   H                      6.795105             10.734238            3.870401
| 70>   H                      7.911743             12.103925            3.460636
| 71> *
| 72>
| 73>                          ****END OF INPUT****
 Total Charge           Charge          ....    0
 Multiplicity           Mult            ....    1
 Number of Electrons    NEL             ....   36
Dispersion correction           -0.001595949
FINAL SINGLE POINT ENERGY      -231.464197020508
Dispersion correction           -0.000206596
FINAL SINGLE POINT ENERGY      -115.726693843918

CARTESIAN COORDINATES (ANGSTROEM)
---------------------------------
  C      7.257563    6.735818    4.442851
  O      8.386543    7.556154    4.548185
  H      9.044606    7.039462    5.018656
  H      7.278685    6.428361    3.430371
  H      7.463774    5.931356    5.183014
  H      6.305239    7.244127    4.579032
  C      7.706852   11.032768    3.316569
  O      8.837876   10.276557    3.809578
  H      8.568376    9.385786    3.554597
  H      7.579536   10.969036    2.189089
  H      6.795105   10.734238    3.870401
  H      7.911743   12.103925    3.460636

 Multiplicity           Mult            ....    1
 Number of Electrons    NEL             ....   18
 Basis Dimension        Dim             ....  172

ORBITAL ENERGIES
----------------

  NO   OCC          E(Eh)            E(eV)
   0   2.0000     -19.235119      -523.4142
   1   2.0000     -10.322939      -280.9015
   2   2.0000      -1.131952       -30.8020
   3   2.0000      -0.789139       -21.4736
   4   2.0000      -0.599852       -16.3228
   5   2.0000      -0.544652       -14.8207
   6   2.0000      -0.517476       -14.0813
   7   2.0000      -0.440498       -11.9866
   8   2.0000      -0.377864       -10.2822
   9   0.0000       0.071949         1.9578
  10   0.0000       0.130208         3.5431
  11   0.0000       0.146243         3.9795
  12   0.0000       0.170038         4.6270
  13   0.0000       0.179951         4.8967

MULLIKEN ATOMIC CHARGES
-----------------------
   0 C :   -0.003468
   1 O :   -0.003399
   2 H :   -0.000464
   3 H :    0.000248
   4 H :    0.000051
   5 H :    0.000145
   6 C :   -0.194474
   7 O :   -0.456710
   8 H :    0.313343
   9 H :    0.107471
  10 H :    0.112465
  11 H :    0.124792
Sum of atomic charges:    0.0000000

LOEWDIN ATOMIC CHARGES
----------------------
   0 C :   -0.002796
   1 O :   -0.016564
   2 H :   -0.000978
   3 H :   -0.000149
   4 H :   -0.000072
   5 H :   -0.000154
   6 C :   -0.377845
   7 O :   -0.089656
   8 H :    0.176737
   9 H :    0.102877
  10 H :    0.099479
  11 H :    0.109123

  Mayer bond orders larger than 0.1
B(  6-C ,  7-O ) :   1.0024 B(  6-C ,  9-H ) :   0.9723 B(  6-C , 10-H ) :   0.9699
B(  6-C , 11-H ) :   0.9746 B(  7-O ,  8-H ) :   0.9053

Dispersion correction           -0.000245503
FINAL SINGLE POINT ENERGY      -115.733238086818

DIPOLE MOMENT
-------------
                                X             Y             Z
Electronic contribution:      1.48945      -0.85049       0.73221
Nuclear contribution   :     -2.08849       0.64246      -1.07715
                        -----------------------------------------
Total Dipole Moment    :     -0.59904      -0.20802      -0.34493
                        -----------------------------------------
Magnitude (a.u.)       :      0.72188
Magnitude (Debye)      :      1.83487

Rotational constants in cm-1:     4.080350     0.802002     0.779121
Rotational constants in MHz : 122325.823423 24043.422989 23357.464417

                             ****ORCA TERMINATED NORMALLY****
TOTAL RUN TIME: 0 days 0 hours 0 minutes 54 seconds 158 msec
