                         Program Version 4.1.2  - RELEASE  -
|  1> #Run DFT-D3 single point of the dimer
|  2> ! wB97X-D3 def2-TZVP TIGHTSCF CHELPG PMODEL PAL8
|  3>
|  4> %base "15-133_DFT_AB"
|  5>
|  6> %scf
|  7> MaxIter 1000
|  8> end
|  9>
| 10> * xyz 0 1
| 11>   C                      8.333353             5.513837             5.380126
| 12>   O                      9.205957             5.227535             6.419786
| 13>   H                      8.747401             5.686495             7.167722
| 14>   H                      7.288762             5.499684             5.703675
| 15>   H                      8.573081             6.488046             4.882362
| 16>   H                      8.373617             4.670108             4.635545
| 17>   C                      8.801717             7.016015             9.246804
| 18>   O                      7.755388             6.219266             8.845088
| 19>   H                      7.295070             5.892641             9.580147
| 20>   H                      9.336976             6.494440             10.057822
| 21>   H                      9.570985             7.269247             8.465971
| 22>   H                      8.421084             8.041279             9.507340
| 23> *
| 24>
| 25> #Run DFT-D3 single point of the molecule with dimer basis set
| 26> $new_job
| 27> %base "15-133_DFT_A"
| 28> ! wB97X-D3 def2-TZVP TIGHTSCF CHELPG PMODEL
| 29>
| 30> %scf
| 31> MaxIter 1000
| 32> end
| 33>
| 34> * xyz 0 1
| 35>   C                      8.333353             5.513837             5.380126
| 36>   O                      9.205957             5.227535             6.419786
| 37>   H                      8.747401             5.686495             7.167722
| 38>   H                      7.288762             5.499684             5.703675
| 39>   H                      8.573081             6.488046             4.882362
| 40>   H                      8.373617             4.670108             4.635545
| 41>   C                    : 8.801717             7.016015             9.246804
| 42>   O                    : 7.755388             6.219266             8.845088
| 43>   H                    : 7.295070             5.892641             9.580147
| 44>   H                    : 9.336976             6.494440             10.057822
| 45>   H                    : 9.570985             7.269247             8.465971
| 46>   H                    : 8.421084             8.041279             9.507340
| 47> *
| 48>
| 49> #Run DFT-D3 single point of the particle with dimer basis set
| 50> $new_job
| 51> %base "15-133_DFT_B"
| 52> ! wB97X-D3 def2-TZVP TIGHTSCF CHELPG PMODEL
| 53>
| 54> %scf
| 55> MaxIter 1000
| 56> end
| 57>
| 58> * xyz 0 1
| 59>   C                    : 8.333353             5.513837             5.380126
| 60>   O                    : 9.205957             5.227535             6.419786
| 61>   H                    : 8.747401             5.686495             7.167722
| 62>   H                    : 7.288762             5.499684             5.703675
| 63>   H                    : 8.573081             6.488046             4.882362
| 64>   H                    : 8.373617             4.670108             4.635545
| 65>   C                      8.801717             7.016015             9.246804
| 66>   O                      7.755388             6.219266             8.845088
| 67>   H                      7.295070             5.892641             9.580147
| 68>   H                      9.336976             6.494440             10.057822
| 69>   H                      9.570985             7.269247             8.465971
| 70>   H                      8.421084             8.041279             9.507340
| 71> *
| 72>
| 73>                          ****END OF INPUT****
 Total Charge           Charge          ....    0
 Multiplicity           Mult            ....    1
 Number of Electrons    NEL             ....   36
Dispersion correction           -0.001831547
FINAL SINGLE POINT ENERGY      -231.468845380871
Dispersion correction           -0.000225492
FINAL SINGLE POINT ENERGY      -115.731901721380

CARTESIAN COORDINATES (ANGSTROEM)
---------------------------------
  C      8.333353    5.513837    5.380126
  O      9.205957    5.227535    6.419786
  H      8.747401    5.686495    7.167722
  H      7.288762    5.499684    5.703675
  H      8.573081    6.488046    4.882362
  H      8.373617    4.670108    4.635545
  C      8.801717    7.016015    9.246804
  O      7.755388    6.219266    8.845088
  H      7.295070    5.892641    9.580147
  H      9.336976    6.494440   10.057822
  H      9.570985    7.269247    8.465971
  H      8.421084    8.041279    9.507340

 Multiplicity           Mult            ....    1
 Number of Electrons    NEL             ....   18
 Basis Dimension        Dim             ....  172

ORBITAL ENERGIES
----------------

  NO   OCC          E(Eh)            E(eV)
   0   2.0000     -19.226749      -523.1864
   1   2.0000     -10.318638      -280.7844
   2   2.0000      -1.154854       -31.4252
   3   2.0000      -0.794387       -21.6164
   4   2.0000      -0.618657       -16.8345
   5   2.0000      -0.552547       -15.0356
   6   2.0000      -0.533294       -14.5117
   7   2.0000      -0.420442       -11.4408
   8   2.0000      -0.371766       -10.1163
   9   0.0000       0.099748         2.7143
  10   0.0000       0.125506         3.4152
  11   0.0000       0.151521         4.1231
  12   0.0000       0.190952         5.1961
  13   0.0000       0.199796         5.4367

MULLIKEN ATOMIC CHARGES
-----------------------
   0 C :    0.001431
   1 O :   -0.002565
   2 H :    0.003153
   3 H :   -0.003163
   4 H :   -0.000154
   5 H :   -0.000082
   6 C :   -0.159461
   7 O :   -0.460283
   8 H :    0.310876
   9 H :    0.100528
  10 H :    0.116155
  11 H :    0.093564
Sum of atomic charges:    0.0000000

LOEWDIN ATOMIC CHARGES
----------------------
   0 C :   -0.002851
   1 O :   -0.003701
   2 H :   -0.029265
   3 H :   -0.001514
   4 H :   -0.000033
   5 H :   -0.000015
   6 C :   -0.413152
   7 O :   -0.010801
   8 H :    0.151015
   9 H :    0.097373
  10 H :    0.115039
  11 H :    0.097905

  Mayer bond orders larger than 0.1
B(  6-C ,  7-O ) :   0.9902 B(  6-C ,  9-H ) :   0.9842 B(  6-C , 10-H ) :   0.9747
B(  6-C , 11-H ) :   0.9740 B(  7-O ,  8-H ) :   0.9006

Dispersion correction           -0.000233370
FINAL SINGLE POINT ENERGY      -115.729889104436

DIPOLE MOMENT
-------------
                                X             Y             Z
Electronic contribution:     -1.37245      -1.11117      -0.63845
Nuclear contribution   :      1.47518       1.18666       1.26127
                        -----------------------------------------
Total Dipole Moment    :      0.10273       0.07550       0.62282
                        -----------------------------------------
Magnitude (a.u.)       :      0.63573
Magnitude (Debye)      :      1.61591

Rotational constants in cm-1:     4.302501     0.855983     0.833956
Rotational constants in MHz : 128985.745663 25661.732976 25001.377217

                             ****ORCA TERMINATED NORMALLY****
TOTAL RUN TIME: 0 days 0 hours 1 minutes 5 seconds 11 msec
