                         Program Version 4.1.2  - RELEASE  -
|  1> #Run DFT-D3 single point of the dimer
|  2> ! wB97X-D3 def2-TZVP TIGHTSCF CHELPG PMODEL PAL8
|  3>
|  4> %base "14-218_DFT_AB"
|  5>
|  6> %scf
|  7> MaxIter 1000
|  8> end
|  9>
| 10> * xyz 0 1
| 11>   C                      -1.453790            3.205992             -5.926784
| 12>   O                      -1.457875            2.228123             -6.998101
| 13>   H                      -0.703341            1.666101             -6.898070
| 14>   H                      -1.332936            2.770356             -4.893537
| 15>   H                      -0.664551            4.000581             -6.041633
| 16>   H                      -2.377194            3.697130             -5.930275
| 17>   C                      0.864074             -0.186070            -5.966287
| 18>   O                      1.037888             0.478722             -7.171851
| 19>   H                      1.971567             0.439262             -7.331044
| 20>   H                      1.203016             0.394362             -5.112619
| 21>   H                      -0.235655            -0.221451            -5.806584
| 22>   H                      1.194174             -1.183852            -6.068807
| 23> *
| 24>
| 25> #Run DFT-D3 single point of the molecule with dimer basis set
| 26> $new_job
| 27> %base "14-218_DFT_A"
| 28> ! wB97X-D3 def2-TZVP TIGHTSCF CHELPG PMODEL
| 29>
| 30> %scf
| 31> MaxIter 1000
| 32> end
| 33>
| 34> * xyz 0 1
| 35>   C                      -1.453790            3.205992             -5.926784
| 36>   O                      -1.457875            2.228123             -6.998101
| 37>   H                      -0.703341            1.666101             -6.898070
| 38>   H                      -1.332936            2.770356             -4.893537
| 39>   H                      -0.664551            4.000581             -6.041633
| 40>   H                      -2.377194            3.697130             -5.930275
| 41>   C                    : 0.864074             -0.186070            -5.966287
| 42>   O                    : 1.037888             0.478722             -7.171851
| 43>   H                    : 1.971567             0.439262             -7.331044
| 44>   H                    : 1.203016             0.394362             -5.112619
| 45>   H                    : -0.235655            -0.221451            -5.806584
| 46>   H                    : 1.194174             -1.183852            -6.068807
| 47> *
| 48>
| 49> #Run DFT-D3 single point of the particle with dimer basis set
| 50> $new_job
| 51> %base "14-218_DFT_B"
| 52> ! wB97X-D3 def2-TZVP TIGHTSCF CHELPG PMODEL
| 53>
| 54> %scf
| 55> MaxIter 1000
| 56> end
| 57>
| 58> * xyz 0 1
| 59>   C                    : -1.453790            3.205992             -5.926784
| 60>   O                    : -1.457875            2.228123             -6.998101
| 61>   H                    : -0.703341            1.666101             -6.898070
| 62>   H                    : -1.332936            2.770356             -4.893537
| 63>   H                    : -0.664551            4.000581             -6.041633
| 64>   H                    : -2.377194            3.697130             -5.930275
| 65>   C                      0.864074             -0.186070            -5.966287
| 66>   O                      1.037888             0.478722             -7.171851
| 67>   H                      1.971567             0.439262             -7.331044
| 68>   H                      1.203016             0.394362             -5.112619
| 69>   H                      -0.235655            -0.221451            -5.806584
| 70>   H                      1.194174             -1.183852            -6.068807
| 71> *
| 72>
| 73>                          ****END OF INPUT****
 Total Charge           Charge          ....    0
 Multiplicity           Mult            ....    1
 Number of Electrons    NEL             ....   36
Dispersion correction           -0.001867314
FINAL SINGLE POINT ENERGY      -231.471000904580
Dispersion correction           -0.000278673
FINAL SINGLE POINT ENERGY      -115.733884223673

CARTESIAN COORDINATES (ANGSTROEM)
---------------------------------
  C     -1.453790    3.205992   -5.926784
  O     -1.457875    2.228123   -6.998101
  H     -0.703341    1.666101   -6.898070
  H     -1.332936    2.770356   -4.893537
  H     -0.664551    4.000581   -6.041633
  H     -2.377194    3.697130   -5.930275
  C      0.864074   -0.186070   -5.966287
  O      1.037888    0.478722   -7.171851
  H      1.971567    0.439262   -7.331044
  H      1.203016    0.394362   -5.112619
  H     -0.235655   -0.221451   -5.806584
  H      1.194174   -1.183852   -6.068807

 Multiplicity           Mult            ....    1
 Number of Electrons    NEL             ....   18
 Basis Dimension        Dim             ....  172

ORBITAL ENERGIES
----------------

  NO   OCC          E(Eh)            E(eV)
   0   2.0000     -19.228192      -523.2257
   1   2.0000     -10.306183      -280.4455
   2   2.0000      -1.149114       -31.2690
   3   2.0000      -0.795174       -21.6378
   4   2.0000      -0.612365       -16.6633
   5   2.0000      -0.562824       -15.3152
   6   2.0000      -0.523835       -14.2543
   7   2.0000      -0.427836       -11.6420
   8   2.0000      -0.376705       -10.2507
   9   0.0000       0.093752         2.5511
  10   0.0000       0.125275         3.4089
  11   0.0000       0.157758         4.2928
  12   0.0000       0.180802         4.9199
  13   0.0000       0.199014         5.4154

MULLIKEN ATOMIC CHARGES
-----------------------
   0 C :   -0.002188
   1 O :   -0.001494
   2 H :    0.002516
   3 H :    0.000017
   4 H :   -0.000140
   5 H :   -0.000046
   6 C :   -0.165712
   7 O :   -0.460951
   8 H :    0.305030
   9 H :    0.101250
  10 H :    0.109100
  11 H :    0.112618
Sum of atomic charges:    0.0000000

LOEWDIN ATOMIC CHARGES
----------------------
   0 C :   -0.001342
   1 O :   -0.002831
   2 H :   -0.023282
   3 H :   -0.000212
   4 H :   -0.000097
   5 H :   -0.000024
   6 C :   -0.400477
   7 O :   -0.035006
   8 H :    0.162367
   9 H :    0.094971
  10 H :    0.116071
  11 H :    0.089862

  Mayer bond orders larger than 0.1
B(  6-C ,  7-O ) :   0.9950 B(  6-C ,  9-H ) :   0.9729 B(  6-C , 10-H ) :   0.9814
B(  6-C , 11-H ) :   0.9782 B(  7-O ,  8-H ) :   0.9051

Dispersion correction           -0.000210111
FINAL SINGLE POINT ENERGY      -115.732285470240

DIPOLE MOMENT
-------------
                                X             Y             Z
Electronic contribution:      0.27436       0.81172      -1.52707
Nuclear contribution   :      0.23035      -1.09928       1.87798
                        -----------------------------------------
Total Dipole Moment    :      0.50471      -0.28755       0.35092
                        -----------------------------------------
Magnitude (a.u.)       :      0.67865
Magnitude (Debye)      :      1.72498

Rotational constants in cm-1:     4.286358     0.866738     0.843340
Rotational constants in MHz : 128501.772528 25984.163236 25282.693952

                             ****ORCA TERMINATED NORMALLY****
TOTAL RUN TIME: 0 days 0 hours 1 minutes 10 seconds 215 msec
