                         Program Version 4.1.2  - RELEASE  -
|  1> #Run DFT-D3 single point of the dimer
|  2> ! wB97X-D3 def2-TZVP TIGHTSCF CHELPG PMODEL PAL8
|  3>
|  4> %base "12-190_DFT_AB"
|  5>
|  6> %scf
|  7> MaxIter 1000
|  8> end
|  9>
| 10> * xyz 0 1
| 11>   C                      -10.971152           -2.665389            -4.953442
| 12>   O                      -10.717473           -3.560666            -6.020242
| 13>   H                      -10.533705           -4.501108            -5.707436
| 14>   H                      -10.303741           -2.923326            -4.047030
| 15>   H                      -10.627708           -1.688875            -5.238717
| 16>   H                      -12.032232           -2.637491            -4.701038
| 17>   C                      -9.522491            -5.988262            -4.198713
| 18>   O                      -10.164935           -6.317978            -5.379145
| 19>   H                      -10.451616           -7.256169            -5.300307
| 20>   H                      -9.353840            -4.933357            -4.025562
| 21>   H                      -10.020528           -6.543591            -3.336253
| 22>   H                      -8.547244            -6.355437            -4.102323
| 23> *
| 24>
| 25> #Run DFT-D3 single point of the molecule with dimer basis set
| 26> $new_job
| 27> %base "12-190_DFT_A"
| 28> ! wB97X-D3 def2-TZVP TIGHTSCF CHELPG PMODEL
| 29>
| 30> %scf
| 31> MaxIter 1000
| 32> end
| 33>
| 34> * xyz 0 1
| 35>   C                      -10.971152           -2.665389            -4.953442
| 36>   O                      -10.717473           -3.560666            -6.020242
| 37>   H                      -10.533705           -4.501108            -5.707436
| 38>   H                      -10.303741           -2.923326            -4.047030
| 39>   H                      -10.627708           -1.688875            -5.238717
| 40>   H                      -12.032232           -2.637491            -4.701038
| 41>   C                    : -9.522491            -5.988262            -4.198713
| 42>   O                    : -10.164935           -6.317978            -5.379145
| 43>   H                    : -10.451616           -7.256169            -5.300307
| 44>   H                    : -9.353840            -4.933357            -4.025562
| 45>   H                    : -10.020528           -6.543591            -3.336253
| 46>   H                    : -8.547244            -6.355437            -4.102323
| 47> *
| 48>
| 49> #Run DFT-D3 single point of the particle with dimer basis set
| 50> $new_job
| 51> %base "12-190_DFT_B"
| 52> ! wB97X-D3 def2-TZVP TIGHTSCF CHELPG PMODEL
| 53>
| 54> %scf
| 55> MaxIter 1000
| 56> end
| 57>
| 58> * xyz 0 1
| 59>   C                    : -10.971152           -2.665389            -4.953442
| 60>   O                    : -10.717473           -3.560666            -6.020242
| 61>   H                    : -10.533705           -4.501108            -5.707436
| 62>   H                    : -10.303741           -2.923326            -4.047030
| 63>   H                    : -10.627708           -1.688875            -5.238717
| 64>   H                    : -12.032232           -2.637491            -4.701038
| 65>   C                      -9.522491            -5.988262            -4.198713
| 66>   O                      -10.164935           -6.317978            -5.379145
| 67>   H                      -10.451616           -7.256169            -5.300307
| 68>   H                      -9.353840            -4.933357            -4.025562
| 69>   H                      -10.020528           -6.543591            -3.336253
| 70>   H                      -8.547244            -6.355437            -4.102323
| 71> *
| 72>
| 73>                          ****END OF INPUT****
 Total Charge           Charge          ....    0
 Multiplicity           Mult            ....    1
 Number of Electrons    NEL             ....   36
Dispersion correction           -0.001962089
FINAL SINGLE POINT ENERGY      -231.462549134272
Dispersion correction           -0.000263074
FINAL SINGLE POINT ENERGY      -115.731490033915

CARTESIAN COORDINATES (ANGSTROEM)
---------------------------------
  C    -10.971152   -2.665389   -4.953442
  O    -10.717473   -3.560666   -6.020242
  H    -10.533705   -4.501108   -5.707436
  H    -10.303741   -2.923326   -4.047030
  H    -10.627708   -1.688875   -5.238717
  H    -12.032232   -2.637491   -4.701038
  C     -9.522491   -5.988262   -4.198713
  O    -10.164935   -6.317978   -5.379145
  H    -10.451616   -7.256169   -5.300307
  H     -9.353840   -4.933357   -4.025562
  H    -10.020528   -6.543591   -3.336253
  H     -8.547244   -6.355437   -4.102323

 Multiplicity           Mult            ....    1
 Number of Electrons    NEL             ....   18
 Basis Dimension        Dim             ....  172

ORBITAL ENERGIES
----------------

  NO   OCC          E(Eh)            E(eV)
   0   2.0000     -19.235006      -523.4111
   1   2.0000     -10.309228      -280.5283
   2   2.0000      -1.143624       -31.1196
   3   2.0000      -0.796507       -21.6741
   4   2.0000      -0.618990       -16.8436
   5   2.0000      -0.545800       -14.8520
   6   2.0000      -0.528719       -14.3872
   7   2.0000      -0.435557       -11.8521
   8   2.0000      -0.367128        -9.9901
   9   0.0000       0.096280         2.6199
  10   0.0000       0.114195         3.1074
  11   0.0000       0.155578         4.2335
  12   0.0000       0.197238         5.3671
  13   0.0000       0.200729         5.4621

MULLIKEN ATOMIC CHARGES
-----------------------
   0 C :    0.000531
   1 O :    0.000484
   2 H :   -0.006566
   3 H :   -0.001053
   4 H :    0.000035
   5 H :   -0.000244
   6 C :   -0.165897
   7 O :   -0.457500
   8 H :    0.317181
   9 H :    0.124264
  10 H :    0.088133
  11 H :    0.100632
Sum of atomic charges:   -0.0000000

LOEWDIN ATOMIC CHARGES
----------------------
   0 C :   -0.005170
   1 O :   -0.004411
   2 H :   -0.040518
   3 H :   -0.005404
   4 H :   -0.000022
   5 H :   -0.000045
   6 C :   -0.401657
   7 O :   -0.031472
   8 H :    0.189177
   9 H :    0.113683
  10 H :    0.103270
  11 H :    0.082570

  Mayer bond orders larger than 0.1
B(  6-C ,  7-O ) :   0.9981 B(  6-C ,  9-H ) :   0.9771 B(  6-C , 10-H ) :   0.9917
B(  6-C , 11-H ) :   0.9678 B(  7-O ,  8-H ) :   0.8910

Dispersion correction           -0.000229287
FINAL SINGLE POINT ENERGY      -115.726382552409

DIPOLE MOMENT
-------------
                                X             Y             Z
Electronic contribution:     -0.86226      -0.15732      -1.74864
Nuclear contribution   :      0.96686      -0.31535       2.22805
                        -----------------------------------------
Total Dipole Moment    :      0.10460      -0.47267       0.47941
                        -----------------------------------------
Magnitude (a.u.)       :      0.68132
Magnitude (Debye)      :      1.73177

Rotational constants in cm-1:     4.398686     0.863761     0.809978
Rotational constants in MHz : 131869.278844 25894.893927 24282.525033

                             ****ORCA TERMINATED NORMALLY****
TOTAL RUN TIME: 0 days 0 hours 1 minutes 9 seconds 171 msec
