                         Program Version 4.1.2  - RELEASE  -
|  1> #Run DFT-D3 single point of the dimer
|  2> ! wB97X-D3 def2-TZVP TIGHTSCF CHELPG PMODEL PAL8
|  3>
|  4> %base "17-207_DFT_AB"
|  5>
|  6> %scf
|  7> MaxIter 1000
|  8> end
|  9>
| 10> * xyz 0 1
| 11>   C                      8.014316             -5.941950            -6.617654
| 12>   O                      8.114571             -4.769030            -7.390481
| 13>   H                      8.823657             -5.032683            -7.996795
| 14>   H                      8.737297             -5.974831            -5.831176
| 15>   H                      7.019085             -6.186425            -6.241785
| 16>   H                      8.308500             -6.885411            -7.121500
| 17>   C                      4.285054             -4.118987            -8.771822
| 18>   O                      5.215044             -4.544347            -7.797496
| 19>   H                      6.041568             -4.361255            -8.291741
| 20>   H                      4.291076             -3.066954            -8.798043
| 21>   H                      4.511558             -4.496756            -9.780242
| 22>   H                      3.264107             -4.300645            -8.519207
| 23> *
| 24>
| 25> #Run DFT-D3 single point of the molecule with dimer basis set
| 26> $new_job
| 27> %base "17-207_DFT_A"
| 28> ! wB97X-D3 def2-TZVP TIGHTSCF CHELPG PMODEL
| 29>
| 30> %scf
| 31> MaxIter 1000
| 32> end
| 33>
| 34> * xyz 0 1
| 35>   C                      8.014316             -5.941950            -6.617654
| 36>   O                      8.114571             -4.769030            -7.390481
| 37>   H                      8.823657             -5.032683            -7.996795
| 38>   H                      8.737297             -5.974831            -5.831176
| 39>   H                      7.019085             -6.186425            -6.241785
| 40>   H                      8.308500             -6.885411            -7.121500
| 41>   C                    : 4.285054             -4.118987            -8.771822
| 42>   O                    : 5.215044             -4.544347            -7.797496
| 43>   H                    : 6.041568             -4.361255            -8.291741
| 44>   H                    : 4.291076             -3.066954            -8.798043
| 45>   H                    : 4.511558             -4.496756            -9.780242
| 46>   H                    : 3.264107             -4.300645            -8.519207
| 47> *
| 48>
| 49> #Run DFT-D3 single point of the particle with dimer basis set
| 50> $new_job
| 51> %base "17-207_DFT_B"
| 52> ! wB97X-D3 def2-TZVP TIGHTSCF CHELPG PMODEL
| 53>
| 54> %scf
| 55> MaxIter 1000
| 56> end
| 57>
| 58> * xyz 0 1
| 59>   C                    : 8.014316             -5.941950            -6.617654
| 60>   O                    : 8.114571             -4.769030            -7.390481
| 61>   H                    : 8.823657             -5.032683            -7.996795
| 62>   H                    : 8.737297             -5.974831            -5.831176
| 63>   H                    : 7.019085             -6.186425            -6.241785
| 64>   H                    : 8.308500             -6.885411            -7.121500
| 65>   C                      4.285054             -4.118987            -8.771822
| 66>   O                      5.215044             -4.544347            -7.797496
| 67>   H                      6.041568             -4.361255            -8.291741
| 68>   H                      4.291076             -3.066954            -8.798043
| 69>   H                      4.511558             -4.496756            -9.780242
| 70>   H                      3.264107             -4.300645            -8.519207
| 71> *
| 72>
| 73>                          ****END OF INPUT****
 Total Charge           Charge          ....    0
 Multiplicity           Mult            ....    1
 Number of Electrons    NEL             ....   36
Dispersion correction           -0.001575564
FINAL SINGLE POINT ENERGY      -231.462748932147
Dispersion correction           -0.000234469
FINAL SINGLE POINT ENERGY      -115.728494184616

CARTESIAN COORDINATES (ANGSTROEM)
---------------------------------
  C      8.014316   -5.941950   -6.617654
  O      8.114571   -4.769030   -7.390481
  H      8.823657   -5.032683   -7.996795
  H      8.737297   -5.974831   -5.831176
  H      7.019085   -6.186425   -6.241785
  H      8.308500   -6.885411   -7.121500
  C      4.285054   -4.118987   -8.771822
  O      5.215044   -4.544347   -7.797496
  H      6.041568   -4.361255   -8.291741
  H      4.291076   -3.066954   -8.798043
  H      4.511558   -4.496756   -9.780242
  H      3.264107   -4.300645   -8.519207

 Multiplicity           Mult            ....    1
 Number of Electrons    NEL             ....   18
 Basis Dimension        Dim             ....  172

ORBITAL ENERGIES
----------------

  NO   OCC          E(Eh)            E(eV)
   0   2.0000     -19.235171      -523.4156
   1   2.0000     -10.306675      -280.4589
   2   2.0000      -1.139821       -31.0161
   3   2.0000      -0.797296       -21.6955
   4   2.0000      -0.607806       -16.5392
   5   2.0000      -0.547338       -14.8938
   6   2.0000      -0.530806       -14.4440
   7   2.0000      -0.443315       -12.0632
   8   2.0000      -0.373102       -10.1526
   9   0.0000       0.081930         2.2294
  10   0.0000       0.124874         3.3980
  11   0.0000       0.156566         4.2604
  12   0.0000       0.176779         4.8104
  13   0.0000       0.201081         5.4717

MULLIKEN ATOMIC CHARGES
-----------------------
   0 C :   -0.001399
   1 O :   -0.000625
   2 H :   -0.000074
   3 H :   -0.000219
   4 H :   -0.003675
   5 H :    0.000217
   6 C :   -0.187072
   7 O :   -0.453830
   8 H :    0.318376
   9 H :    0.108449
  10 H :    0.101885
  11 H :    0.117966
Sum of atomic charges:   -0.0000000

LOEWDIN ATOMIC CHARGES
----------------------
   0 C :   -0.007828
   1 O :   -0.008458
   2 H :   -0.000583
   3 H :   -0.000094
   4 H :   -0.003809
   5 H :   -0.000089
   6 C :   -0.389937
   7 O :   -0.070838
   8 H :    0.193284
   9 H :    0.088314
  10 H :    0.097344
  11 H :    0.102693

  Mayer bond orders larger than 0.1
B(  6-C ,  7-O ) :   0.9970 B(  6-C ,  9-H ) :   0.9806 B(  6-C , 10-H ) :   0.9807
B(  6-C , 11-H ) :   0.9758 B(  7-O ,  8-H ) :   0.8979

Dispersion correction           -0.000209937
FINAL SINGLE POINT ENERGY      -115.729561153815

DIPOLE MOMENT
-------------
                                X             Y             Z
Electronic contribution:      1.05574      -0.69640       1.39753
Nuclear contribution   :     -0.94220       0.99907      -2.06595
                        -----------------------------------------
Total Dipole Moment    :      0.11354       0.30267      -0.66842
                        -----------------------------------------
Magnitude (a.u.)       :      0.74248
Magnitude (Debye)      :      1.88724

Rotational constants in cm-1:     4.369743     0.846217     0.807234
Rotational constants in MHz : 131001.591789 25368.946447 24200.278672

                             ****ORCA TERMINATED NORMALLY****
TOTAL RUN TIME: 0 days 0 hours 1 minutes 10 seconds 959 msec
