                         Program Version 4.1.2  - RELEASE  -
|  1> #Run DFT-D3 single point of the dimer
|  2> ! wB97X-D3 def2-TZVP TIGHTSCF CHELPG PMODEL PAL8
|  3>
|  4> %base "15-162_DFT_AB"
|  5>
|  6> %scf
|  7> MaxIter 1000
|  8> end
|  9>
| 10> * xyz 0 1
| 11>   C                      3.467180             1.393242             0.592832
| 12>   O                      3.199770             2.200727             -0.571443
| 13>   H                      2.595145             1.775491             -1.163679
| 14>   H                      3.979197             0.438904             0.292025
| 15>   H                      4.181762             1.851568             1.262663
| 16>   H                      2.615667             1.283709             1.299601
| 17>   C                      2.834694             1.313277             -3.854308
| 18>   O                      1.751785             0.556903             -3.436012
| 19>   H                      2.066395             -0.173826            -2.896472
| 20>   H                      3.157317             2.106656             -3.162448
| 21>   H                      3.678442             0.677222             -4.101450
| 22>   H                      2.647903             1.812435             -4.759623
| 23> *
| 24>
| 25> #Run DFT-D3 single point of the molecule with dimer basis set
| 26> $new_job
| 27> %base "15-162_DFT_A"
| 28> ! wB97X-D3 def2-TZVP TIGHTSCF CHELPG PMODEL
| 29>
| 30> %scf
| 31> MaxIter 1000
| 32> end
| 33>
| 34> * xyz 0 1
| 35>   C                      3.467180             1.393242             0.592832
| 36>   O                      3.199770             2.200727             -0.571443
| 37>   H                      2.595145             1.775491             -1.163679
| 38>   H                      3.979197             0.438904             0.292025
| 39>   H                      4.181762             1.851568             1.262663
| 40>   H                      2.615667             1.283709             1.299601
| 41>   C                    : 2.834694             1.313277             -3.854308
| 42>   O                    : 1.751785             0.556903             -3.436012
| 43>   H                    : 2.066395             -0.173826            -2.896472
| 44>   H                    : 3.157317             2.106656             -3.162448
| 45>   H                    : 3.678442             0.677222             -4.101450
| 46>   H                    : 2.647903             1.812435             -4.759623
| 47> *
| 48>
| 49> #Run DFT-D3 single point of the particle with dimer basis set
| 50> $new_job
| 51> %base "15-162_DFT_B"
| 52> ! wB97X-D3 def2-TZVP TIGHTSCF CHELPG PMODEL
| 53>
| 54> %scf
| 55> MaxIter 1000
| 56> end
| 57>
| 58> * xyz 0 1
| 59>   C                    : 3.467180             1.393242             0.592832
| 60>   O                    : 3.199770             2.200727             -0.571443
| 61>   H                    : 2.595145             1.775491             -1.163679
| 62>   H                    : 3.979197             0.438904             0.292025
| 63>   H                    : 4.181762             1.851568             1.262663
| 64>   H                    : 2.615667             1.283709             1.299601
| 65>   C                      2.834694             1.313277             -3.854308
| 66>   O                      1.751785             0.556903             -3.436012
| 67>   H                      2.066395             -0.173826            -2.896472
| 68>   H                      3.157317             2.106656             -3.162448
| 69>   H                      3.678442             0.677222             -4.101450
| 70>   H                      2.647903             1.812435             -4.759623
| 71> *
| 72>
| 73>                          ****END OF INPUT****
 Total Charge           Charge          ....    0
 Multiplicity           Mult            ....    1
 Number of Electrons    NEL             ....   36
Dispersion correction           -0.001772015
FINAL SINGLE POINT ENERGY      -231.466976159040
Dispersion correction           -0.000284390
FINAL SINGLE POINT ENERGY      -115.731213925376

CARTESIAN COORDINATES (ANGSTROEM)
---------------------------------
  C      3.467180    1.393242    0.592832
  O      3.199770    2.200727   -0.571443
  H      2.595145    1.775491   -1.163679
  H      3.979197    0.438904    0.292025
  H      4.181762    1.851568    1.262663
  H      2.615667    1.283709    1.299601
  C      2.834694    1.313277   -3.854308
  O      1.751785    0.556903   -3.436012
  H      2.066395   -0.173826   -2.896472
  H      3.157317    2.106656   -3.162448
  H      3.678442    0.677222   -4.101450
  H      2.647903    1.812435   -4.759623

 Multiplicity           Mult            ....    1
 Number of Electrons    NEL             ....   18
 Basis Dimension        Dim             ....  172

ORBITAL ENERGIES
----------------

  NO   OCC          E(Eh)            E(eV)
   0   2.0000     -19.231978      -523.3287
   1   2.0000     -10.305254      -280.4202
   2   2.0000      -1.145094       -31.1596
   3   2.0000      -0.800541       -21.7838
   4   2.0000      -0.617611       -16.8060
   5   2.0000      -0.545222       -14.8362
   6   2.0000      -0.536788       -14.6067
   7   2.0000      -0.428170       -11.6511
   8   2.0000      -0.375030       -10.2051
   9   0.0000       0.081541         2.2189
  10   0.0000       0.124297         3.3823
  11   0.0000       0.150889         4.1059
  12   0.0000       0.175491         4.7753
  13   0.0000       0.194884         5.3031

MULLIKEN ATOMIC CHARGES
-----------------------
   0 C :   -0.000475
   1 O :    0.000101
   2 H :   -0.002586
   3 H :   -0.000013
   4 H :    0.000002
   5 H :    0.000004
   6 C :   -0.162798
   7 O :   -0.470283
   8 H :    0.320990
   9 H :    0.091130
  10 H :    0.101903
  11 H :    0.122025
Sum of atomic charges:    0.0000000

LOEWDIN ATOMIC CHARGES
----------------------
   0 C :   -0.000521
   1 O :   -0.004375
   2 H :   -0.010108
   3 H :   -0.000057
   4 H :   -0.000006
   5 H :   -0.000005
   6 C :   -0.401314
   7 O :   -0.049786
   8 H :    0.174221
   9 H :    0.098564
  10 H :    0.095611
  11 H :    0.097776

  Mayer bond orders larger than 0.1
B(  6-C ,  7-O ) :   1.0081 B(  6-C ,  9-H ) :   0.9736 B(  6-C , 10-H ) :   0.9890
B(  6-C , 11-H ) :   0.9776 B(  7-O ,  8-H ) :   0.8959

Dispersion correction           -0.000238823
FINAL SINGLE POINT ENERGY      -115.733956122088

DIPOLE MOMENT
-------------
                                X             Y             Z
Electronic contribution:     -1.58081      -0.92436       0.51646
Nuclear contribution   :      2.19429       0.73085      -0.37313
                        -----------------------------------------
Total Dipole Moment    :      0.61347      -0.19351       0.14333
                        -----------------------------------------
Magnitude (a.u.)       :      0.65905
Magnitude (Debye)      :      1.67516

Rotational constants in cm-1:     4.518200     0.848943     0.825399
Rotational constants in MHz : 135452.236508 25450.667191 24744.825671

                             ****ORCA TERMINATED NORMALLY****
TOTAL RUN TIME: 0 days 0 hours 1 minutes 6 seconds 122 msec
