                         Program Version 4.1.2  - RELEASE  -
|  1> #Run DFT-D3 single point of the dimer
|  2> ! wB97X-D3 def2-TZVP TIGHTSCF CHELPG PMODEL PAL8
|  3>
|  4> %base "11-54_DFT_AB"
|  5>
|  6> %scf
|  7> MaxIter 1000
|  8> end
|  9>
| 10> * xyz 0 1
| 11>   C                      -2.287004            -7.105774            -7.763036
| 12>   O                      -0.949285            -7.170664            -8.203545
| 13>   H                      -0.939735            -7.506460            -9.050222
| 14>   H                      -2.333886            -6.430946            -6.937260
| 15>   H                      -2.922818            -6.617067            -8.546304
| 16>   H                      -2.776979            -8.069040            -7.408969
| 17>   C                      -0.126466            -7.668901            -4.868698
| 18>   O                      0.538743             -8.388895            -5.905771
| 19>   H                      0.233319             -8.126804            -6.738606
| 20>   H                      -1.219544            -8.059974            -4.893778
| 21>   H                      0.273618             -7.846774            -3.918215
| 22>   H                      -0.142561            -6.508430            -5.077860
| 23> *
| 24>
| 25> #Run DFT-D3 single point of the molecule with dimer basis set
| 26> $new_job
| 27> %base "11-54_DFT_A"
| 28> ! wB97X-D3 def2-TZVP TIGHTSCF CHELPG PMODEL
| 29>
| 30> %scf
| 31> MaxIter 1000
| 32> end
| 33>
| 34> * xyz 0 1
| 35>   C                      -2.287004            -7.105774            -7.763036
| 36>   O                      -0.949285            -7.170664            -8.203545
| 37>   H                      -0.939735            -7.506460            -9.050222
| 38>   H                      -2.333886            -6.430946            -6.937260
| 39>   H                      -2.922818            -6.617067            -8.546304
| 40>   H                      -2.776979            -8.069040            -7.408969
| 41>   C                    : -0.126466            -7.668901            -4.868698
| 42>   O                    : 0.538743             -8.388895            -5.905771
| 43>   H                    : 0.233319             -8.126804            -6.738606
| 44>   H                    : -1.219544            -8.059974            -4.893778
| 45>   H                    : 0.273618             -7.846774            -3.918215
| 46>   H                    : -0.142561            -6.508430            -5.077860
| 47> *
| 48>
| 49> #Run DFT-D3 single point of the particle with dimer basis set
| 50> $new_job
| 51> %base "11-54_DFT_B"
| 52> ! wB97X-D3 def2-TZVP TIGHTSCF CHELPG PMODEL
| 53>
| 54> %scf
| 55> MaxIter 1000
| 56> end
| 57>
| 58> * xyz 0 1
| 59>   C                    : -2.287004            -7.105774            -7.763036
| 60>   O                    : -0.949285            -7.170664            -8.203545
| 61>   H                    : -0.939735            -7.506460            -9.050222
| 62>   H                    : -2.333886            -6.430946            -6.937260
| 63>   H                    : -2.922818            -6.617067            -8.546304
| 64>   H                    : -2.776979            -8.069040            -7.408969
| 65>   C                      -0.126466            -7.668901            -4.868698
| 66>   O                      0.538743             -8.388895            -5.905771
| 67>   H                      0.233319             -8.126804            -6.738606
| 68>   H                      -1.219544            -8.059974            -4.893778
| 69>   H                      0.273618             -7.846774            -3.918215
| 70>   H                      -0.142561            -6.508430            -5.077860
| 71> *
| 72>
| 73>                          ****END OF INPUT****
 Total Charge           Charge          ....    0
 Multiplicity           Mult            ....    1
 Number of Electrons    NEL             ....   36
Dispersion correction           -0.002313798
FINAL SINGLE POINT ENERGY      -231.466542956755
Dispersion correction           -0.000256816
FINAL SINGLE POINT ENERGY      -115.732081439717

CARTESIAN COORDINATES (ANGSTROEM)
---------------------------------
  C     -2.287004   -7.105774   -7.763036
  O     -0.949285   -7.170664   -8.203545
  H     -0.939735   -7.506460   -9.050222
  H     -2.333886   -6.430946   -6.937260
  H     -2.922818   -6.617067   -8.546304
  H     -2.776979   -8.069040   -7.408969
  C     -0.126466   -7.668901   -4.868698
  O      0.538743   -8.388895   -5.905771
  H      0.233319   -8.126804   -6.738606
  H     -1.219544   -8.059974   -4.893778
  H      0.273618   -7.846774   -3.918215
  H     -0.142561   -6.508430   -5.077860

 Multiplicity           Mult            ....    1
 Number of Electrons    NEL             ....   18
 Basis Dimension        Dim             ....  172

ORBITAL ENERGIES
----------------

  NO   OCC          E(Eh)            E(eV)
   0   2.0000     -19.226451      -523.1783
   1   2.0000     -10.327328      -281.0209
   2   2.0000      -1.138394       -30.9773
   3   2.0000      -0.795386       -21.6435
   4   2.0000      -0.606616       -16.5069
   5   2.0000      -0.541300       -14.7295
   6   2.0000      -0.528323       -14.3764
   7   2.0000      -0.431622       -11.7450
   8   2.0000      -0.369819       -10.0633
   9   0.0000       0.070452         1.9171
  10   0.0000       0.136329         3.7097
  11   0.0000       0.140052         3.8110
  12   0.0000       0.164329         4.4716
  13   0.0000       0.186844         5.0843

MULLIKEN ATOMIC CHARGES
-----------------------
   0 C :   -0.000140
   1 O :   -0.002543
   2 H :   -0.000345
   3 H :   -0.001937
   4 H :   -0.000005
   5 H :   -0.000250
   6 C :   -0.179230
   7 O :   -0.469456
   8 H :    0.310750
   9 H :    0.102647
  10 H :    0.139068
  11 H :    0.101441
Sum of atomic charges:   -0.0000000

LOEWDIN ATOMIC CHARGES
----------------------
   0 C :   -0.007402
   1 O :   -0.012176
   2 H :   -0.000924
   3 H :   -0.001961
   4 H :   -0.000079
   5 H :   -0.000685
   6 C :   -0.372020
   7 O :   -0.063400
   8 H :    0.146642
   9 H :    0.108794
  10 H :    0.094029
  11 H :    0.109182

  Mayer bond orders larger than 0.1
B(  6-C ,  7-O ) :   0.9797 B(  6-C ,  9-H ) :   0.9820 B(  6-C , 10-H ) :   0.9692
B(  6-C , 11-H ) :   0.9707 B(  7-O ,  8-H ) :   0.9135

Dispersion correction           -0.000256206
FINAL SINGLE POINT ENERGY      -115.726675057934

DIPOLE MOMENT
-------------
                                X             Y             Z
Electronic contribution:      1.08869      -1.01605      -1.09429
Nuclear contribution   :     -1.52784       1.45330       0.98995
                        -----------------------------------------
Total Dipole Moment    :     -0.43914       0.43725      -0.10433
                        -----------------------------------------
Magnitude (a.u.)       :      0.62843
Magnitude (Debye)      :      1.59734

Rotational constants in cm-1:     4.116479     0.809890     0.790050
Rotational constants in MHz : 123408.936149 24279.885175 23685.115116

                             ****ORCA TERMINATED NORMALLY****
TOTAL RUN TIME: 0 days 0 hours 1 minutes 12 seconds 550 msec
