                         Program Version 4.1.2  - RELEASE  -
|  1> #Run DFT-D3 single point of the dimer
|  2> ! wB97X-D3 def2-TZVP TIGHTSCF CHELPG PMODEL PAL8
|  3>
|  4> %base "8-169_DFT_AB"
|  5>
|  6> %scf
|  7> MaxIter 1000
|  8> end
|  9>
| 10> * xyz 0 1
| 11>   C                      -5.503489            -1.823382            -3.854024
| 12>   O                      -6.297757            -0.649085            -3.729353
| 13>   H                      -6.427129            -0.363208            -4.663941
| 14>   H                      -6.107571            -2.712703            -4.141055
| 15>   H                      -4.877116            -1.810856            -4.734280
| 16>   H                      -4.867101            -2.034921            -2.975977
| 17>   C                      -9.021103            -2.447147            -2.266905
| 18>   O                      -8.303614            -1.278762            -1.949975
| 19>   H                      -7.432322            -1.333857            -2.389903
| 20>   H                      -9.896593            -2.652528            -1.635555
| 21>   H                      -9.254280            -2.464779            -3.357145
| 22>   H                      -8.310638            -3.283385            -1.944165
| 23> *
| 24>
| 25> #Run DFT-D3 single point of the molecule with dimer basis set
| 26> $new_job
| 27> %base "8-169_DFT_A"
| 28> ! wB97X-D3 def2-TZVP TIGHTSCF CHELPG PMODEL
| 29>
| 30> %scf
| 31> MaxIter 1000
| 32> end
| 33>
| 34> * xyz 0 1
| 35>   C                      -5.503489            -1.823382            -3.854024
| 36>   O                      -6.297757            -0.649085            -3.729353
| 37>   H                      -6.427129            -0.363208            -4.663941
| 38>   H                      -6.107571            -2.712703            -4.141055
| 39>   H                      -4.877116            -1.810856            -4.734280
| 40>   H                      -4.867101            -2.034921            -2.975977
| 41>   C                    : -9.021103            -2.447147            -2.266905
| 42>   O                    : -8.303614            -1.278762            -1.949975
| 43>   H                    : -7.432322            -1.333857            -2.389903
| 44>   H                    : -9.896593            -2.652528            -1.635555
| 45>   H                    : -9.254280            -2.464779            -3.357145
| 46>   H                    : -8.310638            -3.283385            -1.944165
| 47> *
| 48>
| 49> #Run DFT-D3 single point of the particle with dimer basis set
| 50> $new_job
| 51> %base "8-169_DFT_B"
| 52> ! wB97X-D3 def2-TZVP TIGHTSCF CHELPG PMODEL
| 53>
| 54> %scf
| 55> MaxIter 1000
| 56> end
| 57>
| 58> * xyz 0 1
| 59>   C                    : -5.503489            -1.823382            -3.854024
| 60>   O                    : -6.297757            -0.649085            -3.729353
| 61>   H                    : -6.427129            -0.363208            -4.663941
| 62>   H                    : -6.107571            -2.712703            -4.141055
| 63>   H                    : -4.877116            -1.810856            -4.734280
| 64>   H                    : -4.867101            -2.034921            -2.975977
| 65>   C                      -9.021103            -2.447147            -2.266905
| 66>   O                      -8.303614            -1.278762            -1.949975
| 67>   H                      -7.432322            -1.333857            -2.389903
| 68>   H                      -9.896593            -2.652528            -1.635555
| 69>   H                      -9.254280            -2.464779            -3.357145
| 70>   H                      -8.310638            -3.283385            -1.944165
| 71> *
| 72>
| 73>                          ****END OF INPUT****
 Total Charge           Charge          ....    0
 Multiplicity           Mult            ....    1
 Number of Electrons    NEL             ....   36
Dispersion correction           -0.002031664
FINAL SINGLE POINT ENERGY      -231.463325786416
Dispersion correction           -0.000243697
FINAL SINGLE POINT ENERGY      -115.730619324003

CARTESIAN COORDINATES (ANGSTROEM)
---------------------------------
  C     -5.503489   -1.823382   -3.854024
  O     -6.297757   -0.649085   -3.729353
  H     -6.427129   -0.363208   -4.663941
  H     -6.107571   -2.712703   -4.141055
  H     -4.877116   -1.810856   -4.734280
  H     -4.867101   -2.034921   -2.975977
  C     -9.021103   -2.447147   -2.266905
  O     -8.303614   -1.278762   -1.949975
  H     -7.432322   -1.333857   -2.389903
  H     -9.896593   -2.652528   -1.635555
  H     -9.254280   -2.464779   -3.357145
  H     -8.310638   -3.283385   -1.944165

 Multiplicity           Mult            ....    1
 Number of Electrons    NEL             ....   18
 Basis Dimension        Dim             ....  172

ORBITAL ENERGIES
----------------

  NO   OCC          E(Eh)            E(eV)
   0   2.0000     -19.230394      -523.2856
   1   2.0000     -10.321300      -280.8568
   2   2.0000      -1.135605       -30.9014
   3   2.0000      -0.787285       -21.4231
   4   2.0000      -0.602935       -16.4067
   5   2.0000      -0.549785       -14.9604
   6   2.0000      -0.530403       -14.4330
   7   2.0000      -0.422506       -11.4970
   8   2.0000      -0.370313       -10.0767
   9   0.0000       0.066471         1.8088
  10   0.0000       0.137895         3.7523
  11   0.0000       0.149582         4.0703
  12   0.0000       0.153789         4.1848
  13   0.0000       0.195927         5.3315

MULLIKEN ATOMIC CHARGES
-----------------------
   0 C :   -0.005436
   1 O :   -0.005441
   2 H :   -0.000529
   3 H :    0.000631
   4 H :   -0.000177
   5 H :    0.000365
   6 C :   -0.171287
   7 O :   -0.466848
   8 H :    0.319478
   9 H :    0.126680
  10 H :    0.104706
  11 H :    0.097858
Sum of atomic charges:    0.0000000

LOEWDIN ATOMIC CHARGES
----------------------
   0 C :   -0.011380
   1 O :   -0.023146
   2 H :   -0.001345
   3 H :   -0.001063
   4 H :   -0.000211
   5 H :   -0.000587
   6 C :   -0.398148
   7 O :   -0.070461
   8 H :    0.193774
   9 H :    0.108365
  10 H :    0.099173
  11 H :    0.105029

  Mayer bond orders larger than 0.1
B(  6-C ,  7-O ) :   0.9868 B(  6-C ,  9-H ) :   0.9676 B(  6-C , 10-H ) :   0.9683
B(  6-C , 11-H ) :   0.9919 B(  7-O ,  8-H ) :   0.9019

Dispersion correction           -0.000229713
FINAL SINGLE POINT ENERGY      -115.729395823156

DIPOLE MOMENT
-------------
                                X             Y             Z
Electronic contribution:      0.60690       1.64473       0.43688
Nuclear contribution   :     -0.36324      -2.13635      -0.80392
                        -----------------------------------------
Total Dipole Moment    :      0.24367      -0.49161      -0.36704
                        -----------------------------------------
Magnitude (a.u.)       :      0.66013
Magnitude (Debye)      :      1.67792

Rotational constants in cm-1:     4.085637     0.831733     0.812302
Rotational constants in MHz : 122484.303337 24934.718465 24352.189906

                             ****ORCA TERMINATED NORMALLY****
TOTAL RUN TIME: 0 days 0 hours 0 minutes 49 seconds 257 msec
