                         Program Version 4.1.2  - RELEASE  -
|  1> #Run DFT-D3 single point of the dimer
|  2> ! wB97X-D3 def2-TZVP TIGHTSCF CHELPG PMODEL PAL8
|  3>
|  4> %base "4-184_DFT_AB"
|  5>
|  6> %scf
|  7> MaxIter 1000
|  8> end
|  9>
| 10> * xyz 0 1
| 11>   C                      4.264224             9.550144             6.218596
| 12>   O                      4.588996             8.759427             5.073923
| 13>   H                      4.627013             9.333018             4.330637
| 14>   H                      3.395416             10.202376            6.075310
| 15>   H                      4.016887             8.866824             7.026298
| 16>   H                      5.004359             10.190719            6.491255
| 17>   C                      3.208912             8.523574             1.890041
| 18>   O                      4.022419             9.685875             2.003729
| 19>   H                      4.329274             9.884666             1.116175
| 20>   H                      3.838737             7.602119             1.554761
| 21>   H                      2.728100             8.354032             2.919526
| 22>   H                      2.387934             8.697139             1.159460
| 23> *
| 24>
| 25> #Run DFT-D3 single point of the molecule with dimer basis set
| 26> $new_job
| 27> %base "4-184_DFT_A"
| 28> ! wB97X-D3 def2-TZVP TIGHTSCF CHELPG PMODEL
| 29>
| 30> %scf
| 31> MaxIter 1000
| 32> end
| 33>
| 34> * xyz 0 1
| 35>   C                      4.264224             9.550144             6.218596
| 36>   O                      4.588996             8.759427             5.073923
| 37>   H                      4.627013             9.333018             4.330637
| 38>   H                      3.395416             10.202376            6.075310
| 39>   H                      4.016887             8.866824             7.026298
| 40>   H                      5.004359             10.190719            6.491255
| 41>   C                    : 3.208912             8.523574             1.890041
| 42>   O                    : 4.022419             9.685875             2.003729
| 43>   H                    : 4.329274             9.884666             1.116175
| 44>   H                    : 3.838737             7.602119             1.554761
| 45>   H                    : 2.728100             8.354032             2.919526
| 46>   H                    : 2.387934             8.697139             1.159460
| 47> *
| 48>
| 49> #Run DFT-D3 single point of the particle with dimer basis set
| 50> $new_job
| 51> %base "4-184_DFT_B"
| 52> ! wB97X-D3 def2-TZVP TIGHTSCF CHELPG PMODEL
| 53>
| 54> %scf
| 55> MaxIter 1000
| 56> end
| 57>
| 58> * xyz 0 1
| 59>   C                    : 4.264224             9.550144             6.218596
| 60>   O                    : 4.588996             8.759427             5.073923
| 61>   H                    : 4.627013             9.333018             4.330637
| 62>   H                    : 3.395416             10.202376            6.075310
| 63>   H                    : 4.016887             8.866824             7.026298
| 64>   H                    : 5.004359             10.190719            6.491255
| 65>   C                      3.208912             8.523574             1.890041
| 66>   O                      4.022419             9.685875             2.003729
| 67>   H                      4.329274             9.884666             1.116175
| 68>   H                      3.838737             7.602119             1.554761
| 69>   H                      2.728100             8.354032             2.919526
| 70>   H                      2.387934             8.697139             1.159460
| 71> *
| 72>
| 73>                          ****END OF INPUT****
 Total Charge           Charge          ....    0
 Multiplicity           Mult            ....    1
 Number of Electrons    NEL             ....   36
Dispersion correction           -0.001665856
FINAL SINGLE POINT ENERGY      -231.470713149342
Dispersion correction           -0.000235162
FINAL SINGLE POINT ENERGY      -115.732254328722

CARTESIAN COORDINATES (ANGSTROEM)
---------------------------------
  C      4.264224    9.550144    6.218596
  O      4.588996    8.759427    5.073923
  H      4.627013    9.333018    4.330637
  H      3.395416   10.202376    6.075310
  H      4.016887    8.866824    7.026298
  H      5.004359   10.190719    6.491255
  C      3.208912    8.523574    1.890041
  O      4.022419    9.685875    2.003729
  H      4.329274    9.884666    1.116175
  H      3.838737    7.602119    1.554761
  H      2.728100    8.354032    2.919526
  H      2.387934    8.697139    1.159460

 Multiplicity           Mult            ....    1
 Number of Electrons    NEL             ....   18
 Basis Dimension        Dim             ....  172

ORBITAL ENERGIES
----------------

  NO   OCC          E(Eh)            E(eV)
   0   2.0000     -19.231980      -523.3288
   1   2.0000     -10.329334      -281.0755
   2   2.0000      -1.135921       -30.9100
   3   2.0000      -0.783575       -21.3222
   4   2.0000      -0.606692       -16.5089
   5   2.0000      -0.536396       -14.5961
   6   2.0000      -0.519369       -14.1328
   7   2.0000      -0.434340       -11.8190
   8   2.0000      -0.373536       -10.1644
   9   0.0000       0.093703         2.5498
  10   0.0000       0.117961         3.2099
  11   0.0000       0.151116         4.1121
  12   0.0000       0.181132         4.9289
  13   0.0000       0.194014         5.2794

MULLIKEN ATOMIC CHARGES
-----------------------
   0 C :    0.000024
   1 O :    0.000022
   2 H :   -0.004618
   3 H :   -0.000106
   4 H :   -0.000019
   5 H :   -0.000036
   6 C :   -0.177873
   7 O :   -0.462132
   8 H :    0.310192
   9 H :    0.101294
  10 H :    0.123454
  11 H :    0.109799
Sum of atomic charges:    0.0000000

LOEWDIN ATOMIC CHARGES
----------------------
   0 C :   -0.000438
   1 O :   -0.001909
   2 H :   -0.012888
   3 H :   -0.000045
   4 H :   -0.000005
   5 H :   -0.000006
   6 C :   -0.395984
   7 O :   -0.076483
   8 H :    0.166733
   9 H :    0.104895
  10 H :    0.120054
  11 H :    0.096078

  Mayer bond orders larger than 0.1
B(  6-C ,  7-O ) :   0.9902 B(  6-C ,  9-H ) :   0.9680 B(  6-C , 10-H ) :   0.9721
B(  6-C , 11-H ) :   0.9704 B(  7-O ,  8-H ) :   0.9000

Dispersion correction           -0.000252827
FINAL SINGLE POINT ENERGY      -115.732439950971

DIPOLE MOMENT
-------------
                                X             Y             Z
Electronic contribution:      1.00831       1.50495       0.27204
Nuclear contribution   :     -1.15077      -1.80564      -0.87630
                        -----------------------------------------
Total Dipole Moment    :     -0.14247      -0.30069      -0.60426
                        -----------------------------------------
Magnitude (a.u.)       :      0.68981
Magnitude (Debye)      :      1.75336

Rotational constants in cm-1:     3.925355     0.820812     0.790189
Rotational constants in MHz : 117679.187497 24607.332102 23689.258972

                             ****ORCA TERMINATED NORMALLY****
TOTAL RUN TIME: 0 days 0 hours 1 minutes 34 seconds 245 msec
