                         Program Version 4.1.2  - RELEASE  -
|  1> #Run DFT-D3 single point of the dimer
|  2> ! wB97X-D3 def2-TZVP TIGHTSCF CHELPG PMODEL PAL8
|  3>
|  4> %base "21-100_DFT_AB"
|  5>
|  6> %scf
|  7> MaxIter 1000
|  8> end
|  9>
| 10> * xyz 0 1
| 11>   C                      -9.935633            -1.088503            1.284899
| 12>   O                      -11.033869           -1.960237            1.345496
| 13>   H                      -11.887862           -1.623931            1.666152
| 14>   H                      -8.996411            -1.368978            1.817904
| 15>   H                      -9.676983            -0.896278            0.194077
| 16>   H                      -10.219109           -0.076535            1.690126
| 17>   C                      -10.777602           1.030449             -1.777996
| 18>   O                      -10.678284           0.377406             -2.983869
| 19>   H                      -11.158741           0.888158             -3.630139
| 20>   H                      -10.704947           2.088159             -1.815619
| 21>   H                      -11.597081           0.684501             -1.143351
| 22>   H                      -9.859059            0.880859             -1.216230
| 23> *
| 24>
| 25> #Run DFT-D3 single point of the molecule with dimer basis set
| 26> $new_job
| 27> %base "21-100_DFT_A"
| 28> ! wB97X-D3 def2-TZVP TIGHTSCF CHELPG PMODEL
| 29>
| 30> %scf
| 31> MaxIter 1000
| 32> end
| 33>
| 34> * xyz 0 1
| 35>   C                      -9.935633            -1.088503            1.284899
| 36>   O                      -11.033869           -1.960237            1.345496
| 37>   H                      -11.887862           -1.623931            1.666152
| 38>   H                      -8.996411            -1.368978            1.817904
| 39>   H                      -9.676983            -0.896278            0.194077
| 40>   H                      -10.219109           -0.076535            1.690126
| 41>   C                    : -10.777602           1.030449             -1.777996
| 42>   O                    : -10.678284           0.377406             -2.983869
| 43>   H                    : -11.158741           0.888158             -3.630139
| 44>   H                    : -10.704947           2.088159             -1.815619
| 45>   H                    : -11.597081           0.684501             -1.143351
| 46>   H                    : -9.859059            0.880859             -1.216230
| 47> *
| 48>
| 49> #Run DFT-D3 single point of the particle with dimer basis set
| 50> $new_job
| 51> %base "21-100_DFT_B"
| 52> ! wB97X-D3 def2-TZVP TIGHTSCF CHELPG PMODEL
| 53>
| 54> %scf
| 55> MaxIter 1000
| 56> end
| 57>
| 58> * xyz 0 1
| 59>   C                    : -9.935633            -1.088503            1.284899
| 60>   O                    : -11.033869           -1.960237            1.345496
| 61>   H                    : -11.887862           -1.623931            1.666152
| 62>   H                    : -8.996411            -1.368978            1.817904
| 63>   H                    : -9.676983            -0.896278            0.194077
| 64>   H                    : -10.219109           -0.076535            1.690126
| 65>   C                      -10.777602           1.030449             -1.777996
| 66>   O                      -10.678284           0.377406             -2.983869
| 67>   H                      -11.158741           0.888158             -3.630139
| 68>   H                      -10.704947           2.088159             -1.815619
| 69>   H                      -11.597081           0.684501             -1.143351
| 70>   H                      -9.859059            0.880859             -1.216230
| 71> *
| 72>
| 73>                          ****END OF INPUT****
 Total Charge           Charge          ....    0
 Multiplicity           Mult            ....    1
 Number of Electrons    NEL             ....   36
Dispersion correction           -0.001641758
FINAL SINGLE POINT ENERGY      -231.459029290999
Dispersion correction           -0.000280027
FINAL SINGLE POINT ENERGY      -115.728165527622

CARTESIAN COORDINATES (ANGSTROEM)
---------------------------------
  C     -9.935633   -1.088503    1.284899
  O    -11.033869   -1.960237    1.345496
  H    -11.887862   -1.623931    1.666152
  H     -8.996411   -1.368978    1.817904
  H     -9.676983   -0.896278    0.194077
  H    -10.219109   -0.076535    1.690126
  C    -10.777602    1.030449   -1.777996
  O    -10.678284    0.377406   -2.983869
  H    -11.158741    0.888158   -3.630139
  H    -10.704947    2.088159   -1.815619
  H    -11.597081    0.684501   -1.143351
  H     -9.859059    0.880859   -1.216230

 Multiplicity           Mult            ....    1
 Number of Electrons    NEL             ....   18
 Basis Dimension        Dim             ....  172

ORBITAL ENERGIES
----------------

  NO   OCC          E(Eh)            E(eV)
   0   2.0000     -19.231781      -523.3234
   1   2.0000     -10.303742      -280.3791
   2   2.0000      -1.150836       -31.3158
   3   2.0000      -0.800408       -21.7802
   4   2.0000      -0.621822       -16.9206
   5   2.0000      -0.553920       -15.0729
   6   2.0000      -0.527650       -14.3581
   7   2.0000      -0.424312       -11.5461
   8   2.0000      -0.377416       -10.2700
   9   0.0000       0.088192         2.3998
  10   0.0000       0.120450         3.2776
  11   0.0000       0.157711         4.2915
  12   0.0000       0.160784         4.3752
  13   0.0000       0.192905         5.2492

MULLIKEN ATOMIC CHARGES
-----------------------
   0 C :   -0.004452
   1 O :    0.000178
   2 H :   -0.000067
   3 H :    0.000044
   4 H :    0.004662
   5 H :    0.000632
   6 C :   -0.174971
   7 O :   -0.459665
   8 H :    0.316328
   9 H :    0.109760
  10 H :    0.099745
  11 H :    0.107806
Sum of atomic charges:    0.0000000

LOEWDIN ATOMIC CHARGES
----------------------
   0 C :   -0.004855
   1 O :   -0.000066
   2 H :   -0.000113
   3 H :   -0.000023
   4 H :   -0.006073
   5 H :   -0.000555
   6 C :   -0.417473
   7 O :   -0.039264
   8 H :    0.169700
   9 H :    0.090880
  10 H :    0.097057
  11 H :    0.110784

  Mayer bond orders larger than 0.1
B(  6-C ,  7-O ) :   1.0170 B(  6-C ,  9-H ) :   0.9743 B(  6-C , 10-H ) :   0.9754
B(  6-C , 11-H ) :   0.9746 B(  7-O ,  8-H ) :   0.8998

Dispersion correction           -0.000237397
FINAL SINGLE POINT ENERGY      -115.730785350542

DIPOLE MOMENT
-------------
                                X             Y             Z
Electronic contribution:      0.05217      -0.96355      -1.65649
Nuclear contribution   :     -0.35702       1.56298       1.68229
                        -----------------------------------------
Total Dipole Moment    :     -0.30485       0.59942       0.02581
                        -----------------------------------------
Magnitude (a.u.)       :      0.67299
Magnitude (Debye)      :      1.71059

Rotational constants in cm-1:     4.522705     0.855999     0.841200
Rotational constants in MHz : 135587.269886 25662.209839 25218.528213

                             ****ORCA TERMINATED NORMALLY****
TOTAL RUN TIME: 0 days 0 hours 0 minutes 59 seconds 611 msec
