                         Program Version 4.1.2  - RELEASE  -
|  1> #Run DFT-D3 single point of the dimer
|  2> ! wB97X-D3 def2-TZVP TIGHTSCF CHELPG PMODEL PAL8
|  3>
|  4> %base "15-121_DFT_AB"
|  5>
|  6> %scf
|  7> MaxIter 1000
|  8> end
|  9>
| 10> * xyz 0 1
| 11>   C                      4.368537             5.393558             -2.809895
| 12>   O                      3.561577             5.915263             -3.882099
| 13>   H                      2.747769             6.147654             -3.483270
| 14>   H                      4.522148             6.098134             -2.062670
| 15>   H                      3.985404             4.497609             -2.348490
| 16>   H                      5.365098             5.152908             -3.121065
| 17>   C                      4.213219             6.390561             -7.710729
| 18>   O                      4.760920             5.928539             -6.468823
| 19>   H                      4.182617             6.120073             -5.792908
| 20>   H                      4.909156             6.099919             -8.450513
| 21>   H                      3.268754             5.973161             -7.900404
| 22>   H                      4.083967             7.469272             -7.787671
| 23> *
| 24>
| 25> #Run DFT-D3 single point of the molecule with dimer basis set
| 26> $new_job
| 27> %base "15-121_DFT_A"
| 28> ! wB97X-D3 def2-TZVP TIGHTSCF CHELPG PMODEL
| 29>
| 30> %scf
| 31> MaxIter 1000
| 32> end
| 33>
| 34> * xyz 0 1
| 35>   C                      4.368537             5.393558             -2.809895
| 36>   O                      3.561577             5.915263             -3.882099
| 37>   H                      2.747769             6.147654             -3.483270
| 38>   H                      4.522148             6.098134             -2.062670
| 39>   H                      3.985404             4.497609             -2.348490
| 40>   H                      5.365098             5.152908             -3.121065
| 41>   C                    : 4.213219             6.390561             -7.710729
| 42>   O                    : 4.760920             5.928539             -6.468823
| 43>   H                    : 4.182617             6.120073             -5.792908
| 44>   H                    : 4.909156             6.099919             -8.450513
| 45>   H                    : 3.268754             5.973161             -7.900404
| 46>   H                    : 4.083967             7.469272             -7.787671
| 47> *
| 48>
| 49> #Run DFT-D3 single point of the particle with dimer basis set
| 50> $new_job
| 51> %base "15-121_DFT_B"
| 52> ! wB97X-D3 def2-TZVP TIGHTSCF CHELPG PMODEL
| 53>
| 54> %scf
| 55> MaxIter 1000
| 56> end
| 57>
| 58> * xyz 0 1
| 59>   C                    : 4.368537             5.393558             -2.809895
| 60>   O                    : 3.561577             5.915263             -3.882099
| 61>   H                    : 2.747769             6.147654             -3.483270
| 62>   H                    : 4.522148             6.098134             -2.062670
| 63>   H                    : 3.985404             4.497609             -2.348490
| 64>   H                    : 5.365098             5.152908             -3.121065
| 65>   C                      4.213219             6.390561             -7.710729
| 66>   O                      4.760920             5.928539             -6.468823
| 67>   H                      4.182617             6.120073             -5.792908
| 68>   H                      4.909156             6.099919             -8.450513
| 69>   H                      3.268754             5.973161             -7.900404
| 70>   H                      4.083967             7.469272             -7.787671
| 71> *
| 72>
| 73>                          ****END OF INPUT****
 Total Charge           Charge          ....    0
 Multiplicity           Mult            ....    1
 Number of Electrons    NEL             ....   36
Dispersion correction           -0.001447282
FINAL SINGLE POINT ENERGY      -231.470820752396
Dispersion correction           -0.000239997
FINAL SINGLE POINT ENERGY      -115.732072058949

CARTESIAN COORDINATES (ANGSTROEM)
---------------------------------
  C      4.368537    5.393558   -2.809895
  O      3.561577    5.915263   -3.882099
  H      2.747769    6.147654   -3.483270
  H      4.522148    6.098134   -2.062670
  H      3.985404    4.497609   -2.348490
  H      5.365098    5.152908   -3.121065
  C      4.213219    6.390561   -7.710729
  O      4.760920    5.928539   -6.468823
  H      4.182617    6.120073   -5.792908
  H      4.909156    6.099919   -8.450513
  H      3.268754    5.973161   -7.900404
  H      4.083967    7.469272   -7.787671

 Multiplicity           Mult            ....    1
 Number of Electrons    NEL             ....   18
 Basis Dimension        Dim             ....  172

ORBITAL ENERGIES
----------------

  NO   OCC          E(Eh)            E(eV)
   0   2.0000     -19.224570      -523.1272
   1   2.0000     -10.305219      -280.4193
   2   2.0000      -1.139375       -31.0040
   3   2.0000      -0.808682       -22.0054
   4   2.0000      -0.617943       -16.8151
   5   2.0000      -0.541534       -14.7359
   6   2.0000      -0.526582       -14.3290
   7   2.0000      -0.441529       -12.0146
   8   2.0000      -0.376746       -10.2518
   9   0.0000       0.078173         2.1272
  10   0.0000       0.130260         3.5446
  11   0.0000       0.155650         4.2355
  12   0.0000       0.171972         4.6796
  13   0.0000       0.203288         5.5317

MULLIKEN ATOMIC CHARGES
-----------------------
   0 C :   -0.000702
   1 O :   -0.000834
   2 H :   -0.000071
   3 H :    0.000059
   4 H :    0.000094
   5 H :   -0.000754
   6 C :   -0.159443
   7 O :   -0.464684
   8 H :    0.295462
   9 H :    0.125481
  10 H :    0.105036
  11 H :    0.100357
Sum of atomic charges:    0.0000000

LOEWDIN ATOMIC CHARGES
----------------------
   0 C :   -0.002523
   1 O :   -0.015821
   2 H :   -0.000839
   3 H :   -0.000041
   4 H :   -0.000035
   5 H :   -0.000500
   6 C :   -0.351655
   7 O :   -0.052365
   8 H :    0.137167
   9 H :    0.104590
  10 H :    0.087066
  11 H :    0.094957

  Mayer bond orders larger than 0.1
B(  6-C ,  7-O ) :   0.9917 B(  6-C ,  9-H ) :   0.9769 B(  6-C , 10-H ) :   0.9786
B(  6-C , 11-H ) :   0.9743 B(  7-O ,  8-H ) :   0.9194

Dispersion correction           -0.000239143
FINAL SINGLE POINT ENERGY      -115.732441383778

DIPOLE MOMENT
-------------
                                X             Y             Z
Electronic contribution:      0.74547      -0.63417       1.47730
Nuclear contribution   :     -1.35695       0.94442      -1.57081
                        -----------------------------------------
Total Dipole Moment    :     -0.61148       0.31025      -0.09350
                        -----------------------------------------
Magnitude (a.u.)       :      0.69203
Magnitude (Debye)      :      1.75899

Rotational constants in cm-1:     4.598092     0.819078     0.790820
Rotational constants in MHz : 137847.322192 24555.347808 23708.193005

                             ****ORCA TERMINATED NORMALLY****
TOTAL RUN TIME: 0 days 0 hours 1 minutes 0 seconds 857 msec
