                         Program Version 4.1.2  - RELEASE  -
|  1> #Run DFT-D3 single point of the dimer
|  2> ! wB97X-D3 def2-TZVP TIGHTSCF CHELPG PMODEL PAL8
|  3>
|  4> %base "17-169_DFT_AB"
|  5>
|  6> %scf
|  7> MaxIter 1000
|  8> end
|  9>
| 10> * xyz 0 1
| 11>   C                      8.915855             -6.208702            4.350031
| 12>   O                      7.767237             -6.944024            4.488190
| 13>   H                      7.996220             -7.702451            5.042601
| 14>   H                      9.496857             -6.199584            5.282683
| 15>   H                      9.538436             -6.503789            3.478665
| 16>   H                      8.630338             -5.185743            4.188997
| 17>   C                      5.828474             -4.478692            5.740824
| 18>   O                      5.992873             -4.691048            4.348628
| 19>   H                      6.191507             -5.635749            4.191753
| 20>   H                      6.727600             -4.485124            6.268104
| 21>   H                      5.386833             -3.495659            5.965815
| 22>   H                      5.111332             -5.201312            6.076706
| 23> *
| 24>
| 25> #Run DFT-D3 single point of the molecule with dimer basis set
| 26> $new_job
| 27> %base "17-169_DFT_A"
| 28> ! wB97X-D3 def2-TZVP TIGHTSCF CHELPG PMODEL
| 29>
| 30> %scf
| 31> MaxIter 1000
| 32> end
| 33>
| 34> * xyz 0 1
| 35>   C                      8.915855             -6.208702            4.350031
| 36>   O                      7.767237             -6.944024            4.488190
| 37>   H                      7.996220             -7.702451            5.042601
| 38>   H                      9.496857             -6.199584            5.282683
| 39>   H                      9.538436             -6.503789            3.478665
| 40>   H                      8.630338             -5.185743            4.188997
| 41>   C                    : 5.828474             -4.478692            5.740824
| 42>   O                    : 5.992873             -4.691048            4.348628
| 43>   H                    : 6.191507             -5.635749            4.191753
| 44>   H                    : 6.727600             -4.485124            6.268104
| 45>   H                    : 5.386833             -3.495659            5.965815
| 46>   H                    : 5.111332             -5.201312            6.076706
| 47> *
| 48>
| 49> #Run DFT-D3 single point of the particle with dimer basis set
| 50> $new_job
| 51> %base "17-169_DFT_B"
| 52> ! wB97X-D3 def2-TZVP TIGHTSCF CHELPG PMODEL
| 53>
| 54> %scf
| 55> MaxIter 1000
| 56> end
| 57>
| 58> * xyz 0 1
| 59>   C                    : 8.915855             -6.208702            4.350031
| 60>   O                    : 7.767237             -6.944024            4.488190
| 61>   H                    : 7.996220             -7.702451            5.042601
| 62>   H                    : 9.496857             -6.199584            5.282683
| 63>   H                    : 9.538436             -6.503789            3.478665
| 64>   H                    : 8.630338             -5.185743            4.188997
| 65>   C                      5.828474             -4.478692            5.740824
| 66>   O                      5.992873             -4.691048            4.348628
| 67>   H                      6.191507             -5.635749            4.191753
| 68>   H                      6.727600             -4.485124            6.268104
| 69>   H                      5.386833             -3.495659            5.965815
| 70>   H                      5.111332             -5.201312            6.076706
| 71> *
| 72>
| 73>                          ****END OF INPUT****
 Total Charge           Charge          ....    0
 Multiplicity           Mult            ....    1
 Number of Electrons    NEL             ....   36
Dispersion correction           -0.002178740
FINAL SINGLE POINT ENERGY      -231.474992889362
Dispersion correction           -0.000225650
FINAL SINGLE POINT ENERGY      -115.734711696168

CARTESIAN COORDINATES (ANGSTROEM)
---------------------------------
  C      8.915855   -6.208702    4.350031
  O      7.767237   -6.944024    4.488190
  H      7.996220   -7.702451    5.042601
  H      9.496857   -6.199584    5.282683
  H      9.538436   -6.503789    3.478665
  H      8.630338   -5.185743    4.188997
  C      5.828474   -4.478692    5.740824
  O      5.992873   -4.691048    4.348628
  H      6.191507   -5.635749    4.191753
  H      6.727600   -4.485124    6.268104
  H      5.386833   -3.495659    5.965815
  H      5.111332   -5.201312    6.076706

 Multiplicity           Mult            ....    1
 Number of Electrons    NEL             ....   18
 Basis Dimension        Dim             ....  172

ORBITAL ENERGIES
----------------

  NO   OCC          E(Eh)            E(eV)
   0   2.0000     -19.230523      -523.2891
   1   2.0000     -10.305911      -280.4381
   2   2.0000      -1.130613       -30.7655
   3   2.0000      -0.799921       -21.7670
   4   2.0000      -0.605626       -16.4799
   5   2.0000      -0.556684       -15.1481
   6   2.0000      -0.527275       -14.3479
   7   2.0000      -0.425971       -11.5913
   8   2.0000      -0.375868       -10.2279
   9   0.0000       0.075555         2.0560
  10   0.0000       0.136299         3.7089
  11   0.0000       0.149048         4.0558
  12   0.0000       0.166840         4.5400
  13   0.0000       0.189949         5.1688

MULLIKEN ATOMIC CHARGES
-----------------------
   0 C :   -0.002971
   1 O :   -0.004259
   2 H :   -0.000220
   3 H :    0.000024
   4 H :    0.000062
   5 H :   -0.008007
   6 C :   -0.168312
   7 O :   -0.474713
   8 H :    0.319646
   9 H :    0.111422
  10 H :    0.116969
  11 H :    0.110357
Sum of atomic charges:   -0.0000000

LOEWDIN ATOMIC CHARGES
----------------------
   0 C :   -0.010607
   1 O :   -0.016100
   2 H :   -0.000694
   3 H :   -0.000165
   4 H :   -0.000117
   5 H :   -0.007942
   6 C :   -0.372767
   7 O :   -0.070125
   8 H :    0.186175
   9 H :    0.085272
  10 H :    0.111460
  11 H :    0.095610

  Mayer bond orders larger than 0.1
B(  6-C ,  7-O ) :   0.9949 B(  6-C ,  9-H ) :   0.9722 B(  6-C , 10-H ) :   0.9734
B(  6-C , 11-H ) :   0.9914 B(  7-O ,  8-H ) :   0.8953

Dispersion correction           -0.000230848
FINAL SINGLE POINT ENERGY      -115.732886335643

DIPOLE MOMENT
-------------
                                X             Y             Z
Electronic contribution:      0.25879      -0.14460      -1.73535
Nuclear contribution   :     -0.22210      -0.34388       2.22056
                        -----------------------------------------
Total Dipole Moment    :      0.03670      -0.48848       0.48521
                        -----------------------------------------
Magnitude (a.u.)       :      0.68948
Magnitude (Debye)      :      1.75252

Rotational constants in cm-1:     4.442833     0.827827     0.801812
Rotational constants in MHz : 133192.778359 24817.643245 24037.706717

                             ****ORCA TERMINATED NORMALLY****
TOTAL RUN TIME: 0 days 0 hours 1 minutes 14 seconds 407 msec
