                         Program Version 4.1.2  - RELEASE  -
|  1> #Run DFT-D3 single point of the dimer
|  2> ! wB97X-D3 def2-TZVP TIGHTSCF CHELPG PMODEL PAL8
|  3>
|  4> %base "5-100_DFT_AB"
|  5>
|  6> %scf
|  7> MaxIter 1000
|  8> end
|  9>
| 10> * xyz 0 1
| 11>   C                      9.518140             -9.620616            -3.107383
| 12>   O                      10.506839            -9.162423            -4.033828
| 13>   H                      10.192911            -8.597301            -4.716816
| 14>   H                      8.766802             -8.855435            -2.834577
| 15>   H                      8.944407             -10.443229           -3.539903
| 16>   H                      9.859461             -9.901562            -2.110812
| 17>   C                      9.076317             -5.967435            -4.734897
| 18>   O                      9.273547             -7.182211            -5.322843
| 19>   H                      8.842955             -7.318156            -6.125872
| 20>   H                      9.628322             -5.988942            -3.794146
| 21>   H                      9.534314             -5.152722            -5.386626
| 22>   H                      8.051998             -5.713673            -4.507228
| 23> *
| 24>
| 25> #Run DFT-D3 single point of the molecule with dimer basis set
| 26> $new_job
| 27> %base "5-100_DFT_A"
| 28> ! wB97X-D3 def2-TZVP TIGHTSCF CHELPG PMODEL
| 29>
| 30> %scf
| 31> MaxIter 1000
| 32> end
| 33>
| 34> * xyz 0 1
| 35>   C                      9.518140             -9.620616            -3.107383
| 36>   O                      10.506839            -9.162423            -4.033828
| 37>   H                      10.192911            -8.597301            -4.716816
| 38>   H                      8.766802             -8.855435            -2.834577
| 39>   H                      8.944407             -10.443229           -3.539903
| 40>   H                      9.859461             -9.901562            -2.110812
| 41>   C                    : 9.076317             -5.967435            -4.734897
| 42>   O                    : 9.273547             -7.182211            -5.322843
| 43>   H                    : 8.842955             -7.318156            -6.125872
| 44>   H                    : 9.628322             -5.988942            -3.794146
| 45>   H                    : 9.534314             -5.152722            -5.386626
| 46>   H                    : 8.051998             -5.713673            -4.507228
| 47> *
| 48>
| 49> #Run DFT-D3 single point of the particle with dimer basis set
| 50> $new_job
| 51> %base "5-100_DFT_B"
| 52> ! wB97X-D3 def2-TZVP TIGHTSCF CHELPG PMODEL
| 53>
| 54> %scf
| 55> MaxIter 1000
| 56> end
| 57>
| 58> * xyz 0 1
| 59>   C                    : 9.518140             -9.620616            -3.107383
| 60>   O                    : 10.506839            -9.162423            -4.033828
| 61>   H                    : 10.192911            -8.597301            -4.716816
| 62>   H                    : 8.766802             -8.855435            -2.834577
| 63>   H                    : 8.944407             -10.443229           -3.539903
| 64>   H                    : 9.859461             -9.901562            -2.110812
| 65>   C                      9.076317             -5.967435            -4.734897
| 66>   O                      9.273547             -7.182211            -5.322843
| 67>   H                      8.842955             -7.318156            -6.125872
| 68>   H                      9.628322             -5.988942            -3.794146
| 69>   H                      9.534314             -5.152722            -5.386626
| 70>   H                      8.051998             -5.713673            -4.507228
| 71> *
| 72>
| 73>                          ****END OF INPUT****
 Total Charge           Charge          ....    0
 Multiplicity           Mult            ....    1
 Number of Electrons    NEL             ....   36
Dispersion correction           -0.002051954
FINAL SINGLE POINT ENERGY      -231.469683150037
Dispersion correction           -0.000278238
FINAL SINGLE POINT ENERGY      -115.730892296617

CARTESIAN COORDINATES (ANGSTROEM)
---------------------------------
  C      9.518140   -9.620616   -3.107383
  O     10.506839   -9.162423   -4.033828
  H     10.192911   -8.597301   -4.716816
  H      8.766802   -8.855435   -2.834577
  H      8.944407  -10.443229   -3.539903
  H      9.859461   -9.901562   -2.110812
  C      9.076317   -5.967435   -4.734897
  O      9.273547   -7.182211   -5.322843
  H      8.842955   -7.318156   -6.125872
  H      9.628322   -5.988942   -3.794146
  H      9.534314   -5.152722   -5.386626
  H      8.051998   -5.713673   -4.507228

 Multiplicity           Mult            ....    1
 Number of Electrons    NEL             ....   18
 Basis Dimension        Dim             ....  172

ORBITAL ENERGIES
----------------

  NO   OCC          E(Eh)            E(eV)
   0   2.0000     -19.225072      -523.1408
   1   2.0000     -10.312177      -280.6086
   2   2.0000      -1.155666       -31.4473
   3   2.0000      -0.801590       -21.8124
   4   2.0000      -0.625520       -17.0213
   5   2.0000      -0.545526       -14.8445
   6   2.0000      -0.535308       -14.5665
   7   2.0000      -0.423035       -11.5114
   8   2.0000      -0.371698       -10.1144
   9   0.0000       0.099046         2.6952
  10   0.0000       0.131734         3.5847
  11   0.0000       0.154543         4.2053
  12   0.0000       0.189514         5.1569
  13   0.0000       0.203235         5.5303

MULLIKEN ATOMIC CHARGES
-----------------------
   0 C :   -0.000110
   1 O :    0.001866
   2 H :   -0.009203
   3 H :   -0.002273
   4 H :   -0.000590
   5 H :   -0.000317
   6 C :   -0.128823
   7 O :   -0.470175
   8 H :    0.309788
   9 H :    0.117445
  10 H :    0.087997
  11 H :    0.094393
Sum of atomic charges:    0.0000000

LOEWDIN ATOMIC CHARGES
----------------------
   0 C :   -0.007565
   1 O :   -0.009885
   2 H :   -0.057443
   3 H :   -0.001914
   4 H :   -0.000259
   5 H :   -0.000118
   6 C :   -0.412472
   7 O :    0.042809
   8 H :    0.144995
   9 H :    0.111496
  10 H :    0.101067
  11 H :    0.089289

  Mayer bond orders larger than 0.1
B(  6-C ,  7-O ) :   0.9870 B(  6-C ,  9-H ) :   0.9784 B(  6-C , 10-H ) :   0.9779
B(  6-C , 11-H ) :   0.9696 B(  7-O ,  8-H ) :   0.8998

Dispersion correction           -0.000239193
FINAL SINGLE POINT ENERGY      -115.732749463093

DIPOLE MOMENT
-------------
                                X             Y             Z
Electronic contribution:      0.19908      -1.65909      -0.68136
Nuclear contribution   :     -0.57112       2.01825       0.38071
                        -----------------------------------------
Total Dipole Moment    :     -0.37204       0.35916      -0.30064
                        -----------------------------------------
Magnitude (a.u.)       :      0.59816
Magnitude (Debye)      :      1.52041

Rotational constants in cm-1:     4.387233     0.870117     0.846952
Rotational constants in MHz : 131525.929858 26085.448235 25390.997165

                             ****ORCA TERMINATED NORMALLY****
TOTAL RUN TIME: 0 days 0 hours 1 minutes 1 seconds 421 msec
