                         Program Version 4.1.2  - RELEASE  -
|  1> #Run DFT-D3 single point of the dimer
|  2> ! wB97X-D3 def2-TZVP TIGHTSCF CHELPG PMODEL PAL8
|  3>
|  4> %base "15-211_DFT_AB"
|  5>
|  6> %scf
|  7> MaxIter 1000
|  8> end
|  9>
| 10> * xyz 0 1
| 11>   C                      -10.794103           7.923745             -0.381378
| 12>   O                      -9.384621            8.224671             -0.537492
| 13>   H                      -8.927272            7.739375             0.112836
| 14>   H                      -11.348183           8.222421             -1.285125
| 15>   H                      -10.884560           6.832683             -0.192969
| 16>   H                      -11.337824           8.388577             0.464184
| 17>   C                      -9.322901            11.078570            -2.047191
| 18>   O                      -9.225321            9.984224             -2.949248
| 19>   H                      -9.121819            9.197441             -2.412125
| 20>   H                      -9.874648            10.829413            -1.138850
| 21>   H                      -8.353701            11.301344            -1.708211
| 22>   H                      -9.668864            11.916965            -2.614837
| 23> *
| 24>
| 25> #Run DFT-D3 single point of the molecule with dimer basis set
| 26> $new_job
| 27> %base "15-211_DFT_A"
| 28> ! wB97X-D3 def2-TZVP TIGHTSCF CHELPG PMODEL
| 29>
| 30> %scf
| 31> MaxIter 1000
| 32> end
| 33>
| 34> * xyz 0 1
| 35>   C                      -10.794103           7.923745             -0.381378
| 36>   O                      -9.384621            8.224671             -0.537492
| 37>   H                      -8.927272            7.739375             0.112836
| 38>   H                      -11.348183           8.222421             -1.285125
| 39>   H                      -10.884560           6.832683             -0.192969
| 40>   H                      -11.337824           8.388577             0.464184
| 41>   C                    : -9.322901            11.078570            -2.047191
| 42>   O                    : -9.225321            9.984224             -2.949248
| 43>   H                    : -9.121819            9.197441             -2.412125
| 44>   H                    : -9.874648            10.829413            -1.138850
| 45>   H                    : -8.353701            11.301344            -1.708211
| 46>   H                    : -9.668864            11.916965            -2.614837
| 47> *
| 48>
| 49> #Run DFT-D3 single point of the particle with dimer basis set
| 50> $new_job
| 51> %base "15-211_DFT_B"
| 52> ! wB97X-D3 def2-TZVP TIGHTSCF CHELPG PMODEL
| 53>
| 54> %scf
| 55> MaxIter 1000
| 56> end
| 57>
| 58> * xyz 0 1
| 59>   C                    : -10.794103           7.923745             -0.381378
| 60>   O                    : -9.384621            8.224671             -0.537492
| 61>   H                    : -8.927272            7.739375             0.112836
| 62>   H                    : -11.348183           8.222421             -1.285125
| 63>   H                    : -10.884560           6.832683             -0.192969
| 64>   H                    : -11.337824           8.388577             0.464184
| 65>   C                      -9.322901            11.078570            -2.047191
| 66>   O                      -9.225321            9.984224             -2.949248
| 67>   H                      -9.121819            9.197441             -2.412125
| 68>   H                      -9.874648            10.829413            -1.138850
| 69>   H                      -8.353701            11.301344            -1.708211
| 70>   H                      -9.668864            11.916965            -2.614837
| 71> *
| 72>
| 73>                          ****END OF INPUT****
 Total Charge           Charge          ....    0
 Multiplicity           Mult            ....    1
 Number of Electrons    NEL             ....   36
Dispersion correction           -0.002171235
FINAL SINGLE POINT ENERGY      -231.474441809452
Dispersion correction           -0.000264749
FINAL SINGLE POINT ENERGY      -115.732891496807

CARTESIAN COORDINATES (ANGSTROEM)
---------------------------------
  C    -10.794103    7.923745   -0.381378
  O     -9.384621    8.224671   -0.537492
  H     -8.927272    7.739375    0.112836
  H    -11.348183    8.222421   -1.285125
  H    -10.884560    6.832683   -0.192969
  H    -11.337824    8.388577    0.464184
  C     -9.322901   11.078570   -2.047191
  O     -9.225321    9.984224   -2.949248
  H     -9.121819    9.197441   -2.412125
  H     -9.874648   10.829413   -1.138850
  H     -8.353701   11.301344   -1.708211
  H     -9.668864   11.916965   -2.614837

 Multiplicity           Mult            ....    1
 Number of Electrons    NEL             ....   18
 Basis Dimension        Dim             ....  172

ORBITAL ENERGIES
----------------

  NO   OCC          E(Eh)            E(eV)
   0   2.0000     -19.227688      -523.2120
   1   2.0000     -10.305468      -280.4260
   2   2.0000      -1.134242       -30.8643
   3   2.0000      -0.799977       -21.7685
   4   2.0000      -0.614060       -16.7094
   5   2.0000      -0.538815       -14.6619
   6   2.0000      -0.528955       -14.3936
   7   2.0000      -0.443558       -12.0698
   8   2.0000      -0.370010       -10.0685
   9   0.0000       0.069138         1.8813
  10   0.0000       0.137617         3.7447
  11   0.0000       0.152180         4.1410
  12   0.0000       0.160608         4.3704
  13   0.0000       0.189375         5.1532

MULLIKEN ATOMIC CHARGES
-----------------------
   0 C :   -0.000073
   1 O :   -0.003689
   2 H :   -0.000269
   3 H :   -0.003413
   4 H :   -0.000024
   5 H :   -0.000264
   6 C :   -0.157945
   7 O :   -0.472373
   8 H :    0.310886
   9 H :    0.100696
  10 H :    0.103062
  11 H :    0.123407
Sum of atomic charges:   -0.0000000

LOEWDIN ATOMIC CHARGES
----------------------
   0 C :   -0.006363
   1 O :   -0.013433
   2 H :   -0.000570
   3 H :   -0.002218
   4 H :   -0.000051
   5 H :   -0.000212
   6 C :   -0.364301
   7 O :   -0.072725
   8 H :    0.169149
   9 H :    0.097475
  10 H :    0.087336
  11 H :    0.105911

  Mayer bond orders larger than 0.1
B(  6-C ,  7-O ) :   0.9859 B(  6-C ,  9-H ) :   0.9758 B(  6-C , 10-H ) :   0.9847
B(  6-C , 11-H ) :   0.9762 B(  7-O ,  8-H ) :   0.9098

Dispersion correction           -0.000217156
FINAL SINGLE POINT ENERGY      -115.733283850636

DIPOLE MOMENT
-------------
                                X             Y             Z
Electronic contribution:      0.00935      -1.20827      -1.23885
Nuclear contribution   :      0.04129       1.16615       1.94155
                        -----------------------------------------
Total Dipole Moment    :      0.05065      -0.04212       0.70271
                        -----------------------------------------
Magnitude (a.u.)       :      0.70579
Magnitude (Debye)      :      1.79397

Rotational constants in cm-1:     4.352845     0.845187     0.800613
Rotational constants in MHz : 130495.011623 25338.070546 24001.778706

                             ****ORCA TERMINATED NORMALLY****
TOTAL RUN TIME: 0 days 0 hours 1 minutes 6 seconds 741 msec
