                         Program Version 4.1.2  - RELEASE  -
|  1> #Run DFT-D3 single point of the dimer
|  2> ! wB97X-D3 def2-TZVP TIGHTSCF CHELPG PMODEL PAL8
|  3>
|  4> %base "22-93_DFT_AB"
|  5>
|  6> %scf
|  7> MaxIter 1000
|  8> end
|  9>
| 10> * xyz 0 1
| 11>   C                      2.808889             0.844054             -8.414163
| 12>   O                      2.751306             -0.322919            -7.643315
| 13>   H                      2.321928             -0.062151            -6.767259
| 14>   H                      3.391022             0.885911             -9.374107
| 15>   H                      1.750066             0.987597             -8.760820
| 16>   H                      3.044555             1.683032             -7.747926
| 17>   C                      6.151161             -1.735530            -8.769065
| 18>   O                      7.219285             -1.244227            -7.964567
| 19>   H                      6.934977             -0.470784            -7.466124
| 20>   H                      6.370894             -1.592989            -9.827518
| 21>   H                      6.054427             -2.841521            -8.626636
| 22>   H                      5.204015             -1.181408            -8.545412
| 23> *
| 24>
| 25> #Run DFT-D3 single point of the molecule with dimer basis set
| 26> $new_job
| 27> %base "22-93_DFT_A"
| 28> ! wB97X-D3 def2-TZVP TIGHTSCF CHELPG PMODEL
| 29>
| 30> %scf
| 31> MaxIter 1000
| 32> end
| 33>
| 34> * xyz 0 1
| 35>   C                      2.808889             0.844054             -8.414163
| 36>   O                      2.751306             -0.322919            -7.643315
| 37>   H                      2.321928             -0.062151            -6.767259
| 38>   H                      3.391022             0.885911             -9.374107
| 39>   H                      1.750066             0.987597             -8.760820
| 40>   H                      3.044555             1.683032             -7.747926
| 41>   C                    : 6.151161             -1.735530            -8.769065
| 42>   O                    : 7.219285             -1.244227            -7.964567
| 43>   H                    : 6.934977             -0.470784            -7.466124
| 44>   H                    : 6.370894             -1.592989            -9.827518
| 45>   H                    : 6.054427             -2.841521            -8.626636
| 46>   H                    : 5.204015             -1.181408            -8.545412
| 47> *
| 48>
| 49> #Run DFT-D3 single point of the particle with dimer basis set
| 50> $new_job
| 51> %base "22-93_DFT_B"
| 52> ! wB97X-D3 def2-TZVP TIGHTSCF CHELPG PMODEL
| 53>
| 54> %scf
| 55> MaxIter 1000
| 56> end
| 57>
| 58> * xyz 0 1
| 59>   C                    : 2.808889             0.844054             -8.414163
| 60>   O                    : 2.751306             -0.322919            -7.643315
| 61>   H                    : 2.321928             -0.062151            -6.767259
| 62>   H                    : 3.391022             0.885911             -9.374107
| 63>   H                    : 1.750066             0.987597             -8.760820
| 64>   H                    : 3.044555             1.683032             -7.747926
| 65>   C                      6.151161             -1.735530            -8.769065
| 66>   O                      7.219285             -1.244227            -7.964567
| 67>   H                      6.934977             -0.470784            -7.466124
| 68>   H                      6.370894             -1.592989            -9.827518
| 69>   H                      6.054427             -2.841521            -8.626636
| 70>   H                      5.204015             -1.181408            -8.545412
| 71> *
| 72>
| 73>                          ****END OF INPUT****
 Total Charge           Charge          ....    0
 Multiplicity           Mult            ....    1
 Number of Electrons    NEL             ....   36
Dispersion correction           -0.001423515
FINAL SINGLE POINT ENERGY      -231.460219659690
Dispersion correction           -0.000226306
FINAL SINGLE POINT ENERGY      -115.723934562920

CARTESIAN COORDINATES (ANGSTROEM)
---------------------------------
  C      2.808889    0.844054   -8.414163
  O      2.751306   -0.322919   -7.643315
  H      2.321928   -0.062151   -6.767259
  H      3.391022    0.885911   -9.374107
  H      1.750066    0.987597   -8.760820
  H      3.044555    1.683032   -7.747926
  C      6.151161   -1.735530   -8.769065
  O      7.219285   -1.244227   -7.964567
  H      6.934977   -0.470784   -7.466124
  H      6.370894   -1.592989   -9.827518
  H      6.054427   -2.841521   -8.626636
  H      5.204015   -1.181408   -8.545412

 Multiplicity           Mult            ....    1
 Number of Electrons    NEL             ....   18
 Basis Dimension        Dim             ....  172

ORBITAL ENERGIES
----------------

  NO   OCC          E(Eh)            E(eV)
   0   2.0000     -19.228002      -523.2205
   1   2.0000     -10.319378      -280.8045
   2   2.0000      -1.130229       -30.7551
   3   2.0000      -0.792441       -21.5634
   4   2.0000      -0.607826       -16.5398
   5   2.0000      -0.533236       -14.5101
   6   2.0000      -0.529785       -14.4162
   7   2.0000      -0.431463       -11.7407
   8   2.0000      -0.370656       -10.0861
   9   0.0000       0.074491         2.0270
  10   0.0000       0.120564         3.2807
  11   0.0000       0.150209         4.0874
  12   0.0000       0.159844         4.3496
  13   0.0000       0.184206         5.0125

MULLIKEN ATOMIC CHARGES
-----------------------
   0 C :    0.000766
   1 O :    0.000148
   2 H :   -0.000044
   3 H :   -0.000381
   4 H :    0.000048
   5 H :   -0.000219
   6 C :   -0.162312
   7 O :   -0.480254
   8 H :    0.317873
   9 H :    0.111666
  10 H :    0.115122
  11 H :    0.097586
Sum of atomic charges:    0.0000000

LOEWDIN ATOMIC CHARGES
----------------------
   0 C :   -0.003671
   1 O :   -0.002364
   2 H :   -0.000137
   3 H :   -0.000921
   4 H :   -0.000034
   5 H :   -0.000066
   6 C :   -0.379645
   7 O :   -0.090740
   8 H :    0.168867
   9 H :    0.096886
  10 H :    0.107355
  11 H :    0.104469

  Mayer bond orders larger than 0.1
B(  6-C ,  7-O ) :   1.0086 B(  6-C ,  9-H ) :   0.9738 B(  6-C , 10-H ) :   0.9750
B(  6-C , 11-H ) :   0.9859 B(  7-O ,  8-H ) :   0.8987

Dispersion correction           -0.000258813
FINAL SINGLE POINT ENERGY      -115.734285257460

DIPOLE MOMENT
-------------
                                X             Y             Z
Electronic contribution:      1.41012       0.53261       0.99762
Nuclear contribution   :     -2.02657      -0.21581      -1.00103
                        -----------------------------------------
Total Dipole Moment    :     -0.61645       0.31681      -0.00341
                        -----------------------------------------
Magnitude (a.u.)       :      0.69310
Magnitude (Debye)      :      1.76172

Rotational constants in cm-1:     4.191575     0.821118     0.784778
Rotational constants in MHz : 125660.267952 24616.499631 23527.045273

                             ****ORCA TERMINATED NORMALLY****
TOTAL RUN TIME: 0 days 0 hours 0 minutes 55 seconds 966 msec
