                         Program Version 4.1.2  - RELEASE  -
|  1> #Run DFT-D3 single point of the dimer
|  2> ! wB97X-D3 def2-TZVP TIGHTSCF CHELPG PMODEL PAL8
|  3>
|  4> %base "10-213_DFT_AB"
|  5>
|  6> %scf
|  7> MaxIter 1000
|  8> end
|  9>
| 10> * xyz 0 1
| 11>   C                      9.069161             -5.712244            9.406238
| 12>   O                      10.040695            -6.311949            10.277282
| 13>   H                      10.610652            -7.034416            9.867214
| 14>   H                      8.056287             -6.025366            9.670342
| 15>   H                      9.116941             -4.657783            9.522753
| 16>   H                      9.379569             -5.914232            8.345167
| 17>   C                      10.475603            -9.325516            8.956078
| 18>   O                      11.235142            -8.352020            8.354772
| 19>   H                      12.017669            -8.830265            8.098839
| 20>   H                      10.776717            -9.520806            9.967534
| 21>   H                      9.405311             -8.932766            8.977934
| 22>   H                      10.446090            -10.276402           8.406369
| 23> *
| 24>
| 25> #Run DFT-D3 single point of the molecule with dimer basis set
| 26> $new_job
| 27> %base "10-213_DFT_A"
| 28> ! wB97X-D3 def2-TZVP TIGHTSCF CHELPG PMODEL
| 29>
| 30> %scf
| 31> MaxIter 1000
| 32> end
| 33>
| 34> * xyz 0 1
| 35>   C                      9.069161             -5.712244            9.406238
| 36>   O                      10.040695            -6.311949            10.277282
| 37>   H                      10.610652            -7.034416            9.867214
| 38>   H                      8.056287             -6.025366            9.670342
| 39>   H                      9.116941             -4.657783            9.522753
| 40>   H                      9.379569             -5.914232            8.345167
| 41>   C                    : 10.475603            -9.325516            8.956078
| 42>   O                    : 11.235142            -8.352020            8.354772
| 43>   H                    : 12.017669            -8.830265            8.098839
| 44>   H                    : 10.776717            -9.520806            9.967534
| 45>   H                    : 9.405311             -8.932766            8.977934
| 46>   H                    : 10.446090            -10.276402           8.406369
| 47> *
| 48>
| 49> #Run DFT-D3 single point of the particle with dimer basis set
| 50> $new_job
| 51> %base "10-213_DFT_B"
| 52> ! wB97X-D3 def2-TZVP TIGHTSCF CHELPG PMODEL
| 53>
| 54> %scf
| 55> MaxIter 1000
| 56> end
| 57>
| 58> * xyz 0 1
| 59>   C                    : 9.069161             -5.712244            9.406238
| 60>   O                    : 10.040695            -6.311949            10.277282
| 61>   H                    : 10.610652            -7.034416            9.867214
| 62>   H                    : 8.056287             -6.025366            9.670342
| 63>   H                    : 9.116941             -4.657783            9.522753
| 64>   H                    : 9.379569             -5.914232            8.345167
| 65>   C                      10.475603            -9.325516            8.956078
| 66>   O                      11.235142            -8.352020            8.354772
| 67>   H                      12.017669            -8.830265            8.098839
| 68>   H                      10.776717            -9.520806            9.967534
| 69>   H                      9.405311             -8.932766            8.977934
| 70>   H                      10.446090            -10.276402           8.406369
| 71> *
| 72>
| 73>                          ****END OF INPUT****
 Total Charge           Charge          ....    0
 Multiplicity           Mult            ....    1
 Number of Electrons    NEL             ....   36
Dispersion correction           -0.002086525
FINAL SINGLE POINT ENERGY      -231.469504886800
Dispersion correction           -0.000264782
FINAL SINGLE POINT ENERGY      -115.730077491818

CARTESIAN COORDINATES (ANGSTROEM)
---------------------------------
  C      9.069161   -5.712244    9.406238
  O     10.040695   -6.311949   10.277282
  H     10.610652   -7.034416    9.867214
  H      8.056287   -6.025366    9.670342
  H      9.116941   -4.657783    9.522753
  H      9.379569   -5.914232    8.345167
  C     10.475603   -9.325516    8.956078
  O     11.235142   -8.352020    8.354772
  H     12.017669   -8.830265    8.098839
  H     10.776717   -9.520806    9.967534
  H      9.405311   -8.932766    8.977934
  H     10.446090  -10.276402    8.406369

 Multiplicity           Mult            ....    1
 Number of Electrons    NEL             ....   18
 Basis Dimension        Dim             ....  172

ORBITAL ENERGIES
----------------

  NO   OCC          E(Eh)            E(eV)
   0   2.0000     -19.232890      -523.3536
   1   2.0000     -10.311947      -280.6023
   2   2.0000      -1.156566       -31.4717
   3   2.0000      -0.789583       -21.4857
   4   2.0000      -0.621392       -16.9089
   5   2.0000      -0.550789       -14.9877
   6   2.0000      -0.525941       -14.3116
   7   2.0000      -0.434179       -11.8146
   8   2.0000      -0.374878       -10.2009
   9   0.0000       0.096312         2.6208
  10   0.0000       0.124618         3.3910
  11   0.0000       0.157375         4.2824
  12   0.0000       0.182194         4.9578
  13   0.0000       0.191497         5.2109

MULLIKEN ATOMIC CHARGES
-----------------------
   0 C :    0.003154
   1 O :   -0.001322
   2 H :   -0.000427
   3 H :   -0.000466
   4 H :   -0.000060
   5 H :   -0.003379
   6 C :   -0.174646
   7 O :   -0.450405
   8 H :    0.309820
   9 H :    0.101111
  10 H :    0.109584
  11 H :    0.107035
Sum of atomic charges:   -0.0000000

LOEWDIN ATOMIC CHARGES
----------------------
   0 C :   -0.003473
   1 O :   -0.002481
   2 H :   -0.024906
   3 H :   -0.000246
   4 H :   -0.000016
   5 H :   -0.001825
   6 C :   -0.420329
   7 O :   -0.020396
   8 H :    0.170048
   9 H :    0.089080
  10 H :    0.119100
  11 H :    0.095445

  Mayer bond orders larger than 0.1
B(  6-C ,  7-O ) :   0.9940 B(  6-C ,  9-H ) :   0.9755 B(  6-C , 10-H ) :   0.9799
B(  6-C , 11-H ) :   0.9728 B(  7-O ,  8-H ) :   0.9025

Dispersion correction           -0.000215356
FINAL SINGLE POINT ENERGY      -115.733183677617

DIPOLE MOMENT
-------------
                                X             Y             Z
Electronic contribution:      1.03344       1.37070      -0.77270
Nuclear contribution   :     -0.80827      -2.02852       0.81601
                        -----------------------------------------
Total Dipole Moment    :      0.22517      -0.65782       0.04331
                        -----------------------------------------
Magnitude (a.u.)       :      0.69664
Magnitude (Debye)      :      1.77071

Rotational constants in cm-1:     4.207316     0.878605     0.841176
Rotational constants in MHz : 126132.164575 26339.908795 25217.813914

                             ****ORCA TERMINATED NORMALLY****
TOTAL RUN TIME: 0 days 0 hours 1 minutes 8 seconds 205 msec
