                         Program Version 4.1.2  - RELEASE  -
|  1> #Run DFT-D3 single point of the dimer
|  2> ! wB97X-D3 def2-TZVP TIGHTSCF CHELPG PMODEL PAL8
|  3>
|  4> %base "9-50_DFT_AB"
|  5>
|  6> %scf
|  7> MaxIter 1000
|  8> end
|  9>
| 10> * xyz 0 1
| 11>   C                      -2.321207            -5.271564            -0.117392
| 12>   O                      -1.699948            -4.236620            -0.812064
| 13>   H                      -1.067507            -3.804357            -0.260356
| 14>   H                      -3.067091            -5.682834            -0.736439
| 15>   H                      -1.643910            -6.077927            0.202816
| 16>   H                      -2.851049            -4.806668            0.717258
| 17>   C                      -3.851081            -1.093824            -2.794576
| 18>   O                      -3.060111            -1.624212            -1.694422
| 19>   H                      -3.039155            -2.578958            -1.755241
| 20>   H                      -3.759878            -0.027850            -2.916973
| 21>   H                      -3.478767            -1.509491            -3.727089
| 22>   H                      -4.876227            -1.432638            -2.692189
| 23> *
| 24>
| 25> #Run DFT-D3 single point of the molecule with dimer basis set
| 26> $new_job
| 27> %base "9-50_DFT_A"
| 28> ! wB97X-D3 def2-TZVP TIGHTSCF CHELPG PMODEL
| 29>
| 30> %scf
| 31> MaxIter 1000
| 32> end
| 33>
| 34> * xyz 0 1
| 35>   C                      -2.321207            -5.271564            -0.117392
| 36>   O                      -1.699948            -4.236620            -0.812064
| 37>   H                      -1.067507            -3.804357            -0.260356
| 38>   H                      -3.067091            -5.682834            -0.736439
| 39>   H                      -1.643910            -6.077927            0.202816
| 40>   H                      -2.851049            -4.806668            0.717258
| 41>   C                    : -3.851081            -1.093824            -2.794576
| 42>   O                    : -3.060111            -1.624212            -1.694422
| 43>   H                    : -3.039155            -2.578958            -1.755241
| 44>   H                    : -3.759878            -0.027850            -2.916973
| 45>   H                    : -3.478767            -1.509491            -3.727089
| 46>   H                    : -4.876227            -1.432638            -2.692189
| 47> *
| 48>
| 49> #Run DFT-D3 single point of the particle with dimer basis set
| 50> $new_job
| 51> %base "9-50_DFT_B"
| 52> ! wB97X-D3 def2-TZVP TIGHTSCF CHELPG PMODEL
| 53>
| 54> %scf
| 55> MaxIter 1000
| 56> end
| 57>
| 58> * xyz 0 1
| 59>   C                    : -2.321207            -5.271564            -0.117392
| 60>   O                    : -1.699948            -4.236620            -0.812064
| 61>   H                    : -1.067507            -3.804357            -0.260356
| 62>   H                    : -3.067091            -5.682834            -0.736439
| 63>   H                    : -1.643910            -6.077927            0.202816
| 64>   H                    : -2.851049            -4.806668            0.717258
| 65>   C                      -3.851081            -1.093824            -2.794576
| 66>   O                      -3.060111            -1.624212            -1.694422
| 67>   H                      -3.039155            -2.578958            -1.755241
| 68>   H                      -3.759878            -0.027850            -2.916973
| 69>   H                      -3.478767            -1.509491            -3.727089
| 70>   H                      -4.876227            -1.432638            -2.692189
| 71> *
| 72>
| 73>                          ****END OF INPUT****
 Total Charge           Charge          ....    0
 Multiplicity           Mult            ....    1
 Number of Electrons    NEL             ....   36
Dispersion correction           -0.001389278
FINAL SINGLE POINT ENERGY      -231.474209495766
Dispersion correction           -0.000224301
FINAL SINGLE POINT ENERGY      -115.734809909190

CARTESIAN COORDINATES (ANGSTROEM)
---------------------------------
  C     -2.321207   -5.271564   -0.117392
  O     -1.699948   -4.236620   -0.812064
  H     -1.067507   -3.804357   -0.260356
  H     -3.067091   -5.682834   -0.736439
  H     -1.643910   -6.077927    0.202816
  H     -2.851049   -4.806668    0.717258
  C     -3.851081   -1.093824   -2.794576
  O     -3.060111   -1.624212   -1.694422
  H     -3.039155   -2.578958   -1.755241
  H     -3.759878   -0.027850   -2.916973
  H     -3.478767   -1.509491   -3.727089
  H     -4.876227   -1.432638   -2.692189

 Multiplicity           Mult            ....    1
 Number of Electrons    NEL             ....   18
 Basis Dimension        Dim             ....  172

ORBITAL ENERGIES
----------------

  NO   OCC          E(Eh)            E(eV)
   0   2.0000     -19.227024      -523.1939
   1   2.0000     -10.314136      -280.6619
   2   2.0000      -1.122762       -30.5519
   3   2.0000      -0.800593       -21.7852
   4   2.0000      -0.602770       -16.4022
   5   2.0000      -0.543202       -14.7813
   6   2.0000      -0.525692       -14.3048
   7   2.0000      -0.433698       -11.8015
   8   2.0000      -0.372951       -10.1485
   9   0.0000       0.076162         2.0725
  10   0.0000       0.127716         3.4753
  11   0.0000       0.150835         4.1044
  12   0.0000       0.172622         4.6973
  13   0.0000       0.196722         5.3531

MULLIKEN ATOMIC CHARGES
-----------------------
   0 C :   -0.000967
   1 O :   -0.000304
   2 H :   -0.000707
   3 H :   -0.000088
   4 H :   -0.000010
   5 H :   -0.000025
   6 C :   -0.168048
   7 O :   -0.484191
   8 H :    0.311462
   9 H :    0.129926
  10 H :    0.102076
  11 H :    0.110874
Sum of atomic charges:    0.0000000

LOEWDIN ATOMIC CHARGES
----------------------
   0 C :   -0.001734
   1 O :   -0.006469
   2 H :   -0.001176
   3 H :   -0.000180
   4 H :   -0.000038
   5 H :   -0.000153
   6 C :   -0.347360
   7 O :   -0.103728
   8 H :    0.164683
   9 H :    0.105934
  10 H :    0.094697
  11 H :    0.095524

  Mayer bond orders larger than 0.1
B(  6-C ,  7-O ) :   0.9860 B(  6-C ,  9-H ) :   0.9697 B(  6-C , 10-H ) :   0.9832
B(  6-C , 11-H ) :   0.9783 B(  7-O ,  8-H ) :   0.9027

Dispersion correction           -0.000244176
FINAL SINGLE POINT ENERGY      -115.733660113734

DIPOLE MOMENT
-------------
                                X             Y             Z
Electronic contribution:      0.95319      -0.39784       1.44891
Nuclear contribution   :     -1.27109       0.02792      -1.98214
                        -----------------------------------------
Total Dipole Moment    :     -0.31790      -0.36992      -0.53323
                        -----------------------------------------
Magnitude (a.u.)       :      0.72265
Magnitude (Debye)      :      1.83684

Rotational constants in cm-1:     4.378290     0.794863     0.767316
Rotational constants in MHz : 131257.820699 23829.379796 23003.564175

                             ****ORCA TERMINATED NORMALLY****
TOTAL RUN TIME: 0 days 0 hours 0 minutes 46 seconds 917 msec
