                         Program Version 4.1.2  - RELEASE  -
|  1> #Run DFT-D3 single point of the dimer
|  2> ! wB97X-D3 def2-TZVP TIGHTSCF CHELPG PMODEL PAL8
|  3>
|  4> %base "11-204_DFT_AB"
|  5>
|  6> %scf
|  7> MaxIter 1000
|  8> end
|  9>
| 10> * xyz 0 1
| 11>   C                      -5.044066            0.404302             -1.663991
| 12>   O                      -6.434132            0.548854             -1.331317
| 13>   H                      -6.609572            0.645943             -0.347889
| 14>   H                      -4.488674            1.043460             -0.975449
| 15>   H                      -4.723905            -0.685298            -1.583405
| 16>   H                      -4.810426            0.769304             -2.685732
| 17>   C                      -6.242248            -0.142471            2.374967
| 18>   O                      -6.795535            0.871142             1.528577
| 19>   H                      -6.086667            1.558375             1.634918
| 20>   H                      -7.005123            -0.500635            3.005440
| 21>   H                      -5.854555            -0.967482            1.802231
| 22>   H                      -5.386707            0.238985             2.896178
| 23> *
| 24>
| 25> #Run DFT-D3 single point of the molecule with dimer basis set
| 26> $new_job
| 27> %base "11-204_DFT_A"
| 28> ! wB97X-D3 def2-TZVP TIGHTSCF CHELPG PMODEL
| 29>
| 30> %scf
| 31> MaxIter 1000
| 32> end
| 33>
| 34> * xyz 0 1
| 35>   C                      -5.044066            0.404302             -1.663991
| 36>   O                      -6.434132            0.548854             -1.331317
| 37>   H                      -6.609572            0.645943             -0.347889
| 38>   H                      -4.488674            1.043460             -0.975449
| 39>   H                      -4.723905            -0.685298            -1.583405
| 40>   H                      -4.810426            0.769304             -2.685732
| 41>   C                    : -6.242248            -0.142471            2.374967
| 42>   O                    : -6.795535            0.871142             1.528577
| 43>   H                    : -6.086667            1.558375             1.634918
| 44>   H                    : -7.005123            -0.500635            3.005440
| 45>   H                    : -5.854555            -0.967482            1.802231
| 46>   H                    : -5.386707            0.238985             2.896178
| 47> *
| 48>
| 49> #Run DFT-D3 single point of the particle with dimer basis set
| 50> $new_job
| 51> %base "11-204_DFT_B"
| 52> ! wB97X-D3 def2-TZVP TIGHTSCF CHELPG PMODEL
| 53>
| 54> %scf
| 55> MaxIter 1000
| 56> end
| 57>
| 58> * xyz 0 1
| 59>   C                    : -5.044066            0.404302             -1.663991
| 60>   O                    : -6.434132            0.548854             -1.331317
| 61>   H                    : -6.609572            0.645943             -0.347889
| 62>   H                    : -4.488674            1.043460             -0.975449
| 63>   H                    : -4.723905            -0.685298            -1.583405
| 64>   H                    : -4.810426            0.769304             -2.685732
| 65>   C                      -6.242248            -0.142471            2.374967
| 66>   O                      -6.795535            0.871142             1.528577
| 67>   H                      -6.086667            1.558375             1.634918
| 68>   H                      -7.005123            -0.500635            3.005440
| 69>   H                      -5.854555            -0.967482            1.802231
| 70>   H                      -5.386707            0.238985             2.896178
| 71> *
| 72>
| 73>                          ****END OF INPUT****
 Total Charge           Charge          ....    0
 Multiplicity           Mult            ....    1
 Number of Electrons    NEL             ....   36
Dispersion correction           -0.001904851
FINAL SINGLE POINT ENERGY      -231.468997394639
Dispersion correction           -0.000268001
FINAL SINGLE POINT ENERGY      -115.730646042590

CARTESIAN COORDINATES (ANGSTROEM)
---------------------------------
  C     -5.044066    0.404302   -1.663991
  O     -6.434132    0.548854   -1.331317
  H     -6.609572    0.645943   -0.347889
  H     -4.488674    1.043460   -0.975449
  H     -4.723905   -0.685298   -1.583405
  H     -4.810426    0.769304   -2.685732
  C     -6.242248   -0.142471    2.374967
  O     -6.795535    0.871142    1.528577
  H     -6.086667    1.558375    1.634918
  H     -7.005123   -0.500635    3.005440
  H     -5.854555   -0.967482    1.802231
  H     -5.386707    0.238985    2.896178

 Multiplicity           Mult            ....    1
 Number of Electrons    NEL             ....   18
 Basis Dimension        Dim             ....  172

ORBITAL ENERGIES
----------------

  NO   OCC          E(Eh)            E(eV)
   0   2.0000     -19.234412      -523.3950
   1   2.0000     -10.305808      -280.4353
   2   2.0000      -1.130897       -30.7733
   3   2.0000      -0.796396       -21.6710
   4   2.0000      -0.609838       -16.5945
   5   2.0000      -0.542276       -14.7561
   6   2.0000      -0.525084       -14.2883
   7   2.0000      -0.447278       -12.1711
   8   2.0000      -0.373577       -10.1656
   9   0.0000       0.086606         2.3567
  10   0.0000       0.122084         3.3221
  11   0.0000       0.154773         4.2116
  12   0.0000       0.182220         4.9585
  13   0.0000       0.198451         5.4001

MULLIKEN ATOMIC CHARGES
-----------------------
   0 C :   -0.000192
   1 O :    0.000043
   2 H :   -0.009490
   3 H :   -0.002984
   4 H :   -0.000128
   5 H :   -0.000362
   6 C :   -0.177552
   7 O :   -0.461988
   8 H :    0.317104
   9 H :    0.121685
  10 H :    0.109741
  11 H :    0.104124
Sum of atomic charges:   -0.0000000

LOEWDIN ATOMIC CHARGES
----------------------
   0 C :   -0.002709
   1 O :   -0.005247
   2 H :   -0.049131
   3 H :   -0.001253
   4 H :   -0.000087
   5 H :   -0.000058
   6 C :   -0.366433
   7 O :   -0.055389
   8 H :    0.194103
   9 H :    0.095909
  10 H :    0.096070
  11 H :    0.094226

  Mayer bond orders larger than 0.1
B(  6-C ,  7-O ) :   0.9957 B(  6-C ,  9-H ) :   0.9786 B(  6-C , 10-H ) :   0.9770
B(  6-C , 11-H ) :   0.9876 B(  7-O ,  8-H ) :   0.9002

Dispersion correction           -0.000221183
FINAL SINGLE POINT ENERGY      -115.729912969413

DIPOLE MOMENT
-------------
                                X             Y             Z
Electronic contribution:     -0.89648       1.17077      -1.03033
Nuclear contribution   :      1.55389      -1.15480       1.44763
                        -----------------------------------------
Total Dipole Moment    :      0.65741       0.01597       0.41730
                        -----------------------------------------
Magnitude (a.u.)       :      0.77883
Magnitude (Debye)      :      1.97963

Rotational constants in cm-1:     4.283119     0.836730     0.797032
Rotational constants in MHz : 128404.680809 25084.541915 23894.414633

                             ****ORCA TERMINATED NORMALLY****
TOTAL RUN TIME: 0 days 0 hours 1 minutes 7 seconds 705 msec
