                         Program Version 4.1.2  - RELEASE  -
|  1> #Run DFT-D3 single point of the dimer
|  2> ! wB97X-D3 def2-TZVP TIGHTSCF CHELPG PMODEL PAL8
|  3>
|  4> %base "13-188_DFT_AB"
|  5>
|  6> %scf
|  7> MaxIter 1000
|  8> end
|  9>
| 10> * xyz 0 1
| 11>   C                      3.963747             -3.154217            -4.945973
| 12>   O                      4.362584             -2.281395            -3.851655
| 13>   H                      4.077318             -1.452071            -4.213905
| 14>   H                      4.382273             -2.936864            -5.947264
| 15>   H                      4.234366             -4.138114            -4.796596
| 16>   H                      2.847343             -3.273839            -5.075239
| 17>   C                      4.697885             2.676830             -3.820010
| 18>   O                      3.845238             1.593184             -3.666598
| 19>   H                      3.877542             1.067309             -4.520169
| 20>   H                      4.446421             3.201020             -4.783931
| 21>   H                      4.667096             3.453700             -3.069882
| 22>   H                      5.759132             2.426030             -3.948488
| 23> *
| 24>
| 25> #Run DFT-D3 single point of the molecule with dimer basis set
| 26> $new_job
| 27> %base "13-188_DFT_A"
| 28> ! wB97X-D3 def2-TZVP TIGHTSCF CHELPG PMODEL
| 29>
| 30> %scf
| 31> MaxIter 1000
| 32> end
| 33>
| 34> * xyz 0 1
| 35>   C                      3.963747             -3.154217            -4.945973
| 36>   O                      4.362584             -2.281395            -3.851655
| 37>   H                      4.077318             -1.452071            -4.213905
| 38>   H                      4.382273             -2.936864            -5.947264
| 39>   H                      4.234366             -4.138114            -4.796596
| 40>   H                      2.847343             -3.273839            -5.075239
| 41>   C                    : 4.697885             2.676830             -3.820010
| 42>   O                    : 3.845238             1.593184             -3.666598
| 43>   H                    : 3.877542             1.067309             -4.520169
| 44>   H                    : 4.446421             3.201020             -4.783931
| 45>   H                    : 4.667096             3.453700             -3.069882
| 46>   H                    : 5.759132             2.426030             -3.948488
| 47> *
| 48>
| 49> #Run DFT-D3 single point of the particle with dimer basis set
| 50> $new_job
| 51> %base "13-188_DFT_B"
| 52> ! wB97X-D3 def2-TZVP TIGHTSCF CHELPG PMODEL
| 53>
| 54> %scf
| 55> MaxIter 1000
| 56> end
| 57>
| 58> * xyz 0 1
| 59>   C                    : 3.963747             -3.154217            -4.945973
| 60>   O                    : 4.362584             -2.281395            -3.851655
| 61>   H                    : 4.077318             -1.452071            -4.213905
| 62>   H                    : 4.382273             -2.936864            -5.947264
| 63>   H                    : 4.234366             -4.138114            -4.796596
| 64>   H                    : 2.847343             -3.273839            -5.075239
| 65>   C                      4.697885             2.676830             -3.820010
| 66>   O                      3.845238             1.593184             -3.666598
| 67>   H                      3.877542             1.067309             -4.520169
| 68>   H                      4.446421             3.201020             -4.783931
| 69>   H                      4.667096             3.453700             -3.069882
| 70>   H                      5.759132             2.426030             -3.948488
| 71> *
| 72>
| 73>                          ****END OF INPUT****
 Total Charge           Charge          ....    0
 Multiplicity           Mult            ....    1
 Number of Electrons    NEL             ....   36
Dispersion correction           -0.001067405
FINAL SINGLE POINT ENERGY      -231.456010979925
Dispersion correction           -0.000267518
FINAL SINGLE POINT ENERGY      -115.726795330108

CARTESIAN COORDINATES (ANGSTROEM)
---------------------------------
  C      3.963747   -3.154217   -4.945973
  O      4.362584   -2.281395   -3.851655
  H      4.077318   -1.452071   -4.213905
  H      4.382273   -2.936864   -5.947264
  H      4.234366   -4.138114   -4.796596
  H      2.847343   -3.273839   -5.075239
  C      4.697885    2.676830   -3.820010
  O      3.845238    1.593184   -3.666598
  H      3.877542    1.067309   -4.520169
  H      4.446421    3.201020   -4.783931
  H      4.667096    3.453700   -3.069882
  H      5.759132    2.426030   -3.948488

 Multiplicity           Mult            ....    1
 Number of Electrons    NEL             ....   18
 Basis Dimension        Dim             ....  172

ORBITAL ENERGIES
----------------

  NO   OCC          E(Eh)            E(eV)
   0   2.0000     -19.237991      -523.4923
   1   2.0000     -10.313919      -280.6560
   2   2.0000      -1.139861       -31.0172
   3   2.0000      -0.791419       -21.5356
   4   2.0000      -0.613491       -16.6939
   5   2.0000      -0.538011       -14.6400
   6   2.0000      -0.536275       -14.5928
   7   2.0000      -0.430853       -11.7241
   8   2.0000      -0.369630       -10.0581
   9   0.0000       0.080340         2.1862
  10   0.0000       0.113688         3.0936
  11   0.0000       0.147872         4.0238
  12   0.0000       0.183969         5.0060
  13   0.0000       0.197891         5.3849

MULLIKEN ATOMIC CHARGES
-----------------------
   0 C :    0.000670
   1 O :    0.000812
   2 H :   -0.006534
   3 H :   -0.000045
   4 H :    0.000020
   5 H :   -0.000032
   6 C :   -0.175160
   7 O :   -0.462210
   8 H :    0.327821
   9 H :    0.094119
  10 H :    0.123083
  11 H :    0.097456
Sum of atomic charges:   -0.0000000

LOEWDIN ATOMIC CHARGES
----------------------
   0 C :   -0.000061
   1 O :   -0.000321
   2 H :   -0.004009
   3 H :   -0.000003
   4 H :   -0.000003
   5 H :   -0.000001
   6 C :   -0.418653
   7 O :   -0.071819
   8 H :    0.201274
   9 H :    0.097997
  10 H :    0.103862
  11 H :    0.091737

  Mayer bond orders larger than 0.1
B(  6-C ,  7-O ) :   1.0095 B(  6-C ,  9-H ) :   0.9904 B(  6-C , 10-H ) :   0.9705
B(  6-C , 11-H ) :   0.9692 B(  7-O ,  8-H ) :   0.8832

Dispersion correction           -0.000238572
FINAL SINGLE POINT ENERGY      -115.730498084986

DIPOLE MOMENT
-------------
                                X             Y             Z
Electronic contribution:     -1.22207      -1.46829       0.56293
Nuclear contribution   :      1.55746       1.56408      -1.14076
                        -----------------------------------------
Total Dipole Moment    :      0.33539       0.09580      -0.57783
                        -----------------------------------------
Magnitude (a.u.)       :      0.67495
Magnitude (Debye)      :      1.71557

Rotational constants in cm-1:     4.326258     0.844328     0.809566
Rotational constants in MHz : 129697.949910 25312.325112 24270.172581

                             ****ORCA TERMINATED NORMALLY****
TOTAL RUN TIME: 0 days 0 hours 1 minutes 2 seconds 462 msec
