                         Program Version 4.1.2  - RELEASE  -
|  1> #Run DFT-D3 single point of the dimer
|  2> ! wB97X-D3 def2-TZVP TIGHTSCF CHELPG PMODEL PAL8
|  3>
|  4> %base "16-79_DFT_AB"
|  5>
|  6> %scf
|  7> MaxIter 1000
|  8> end
|  9>
| 10> * xyz 0 1
| 11>   C                      1.882657             -5.473259            -4.311445
| 12>   O                      1.200089             -6.616802            -4.829966
| 13>   H                      0.588911             -6.281126            -5.540718
| 14>   H                      2.877696             -5.712606            -3.843402
| 15>   H                      2.170245             -4.752331            -5.142988
| 16>   H                      1.250145             -4.869591            -3.657311
| 17>   C                      3.434464             -6.323335            -0.905216
| 18>   O                      4.164704             -7.455818            -1.326360
| 19>   H                      3.560411             -8.224098            -1.348252
| 20>   H                      4.097257             -5.507385            -0.597335
| 21>   H                      2.775232             -6.025212            -1.737524
| 22>   H                      2.795566             -6.570912            -0.068298
| 23> *
| 24>
| 25> #Run DFT-D3 single point of the molecule with dimer basis set
| 26> $new_job
| 27> %base "16-79_DFT_A"
| 28> ! wB97X-D3 def2-TZVP TIGHTSCF CHELPG PMODEL
| 29>
| 30> %scf
| 31> MaxIter 1000
| 32> end
| 33>
| 34> * xyz 0 1
| 35>   C                      1.882657             -5.473259            -4.311445
| 36>   O                      1.200089             -6.616802            -4.829966
| 37>   H                      0.588911             -6.281126            -5.540718
| 38>   H                      2.877696             -5.712606            -3.843402
| 39>   H                      2.170245             -4.752331            -5.142988
| 40>   H                      1.250145             -4.869591            -3.657311
| 41>   C                    : 3.434464             -6.323335            -0.905216
| 42>   O                    : 4.164704             -7.455818            -1.326360
| 43>   H                    : 3.560411             -8.224098            -1.348252
| 44>   H                    : 4.097257             -5.507385            -0.597335
| 45>   H                    : 2.775232             -6.025212            -1.737524
| 46>   H                    : 2.795566             -6.570912            -0.068298
| 47> *
| 48>
| 49> #Run DFT-D3 single point of the particle with dimer basis set
| 50> $new_job
| 51> %base "16-79_DFT_B"
| 52> ! wB97X-D3 def2-TZVP TIGHTSCF CHELPG PMODEL
| 53>
| 54> %scf
| 55> MaxIter 1000
| 56> end
| 57>
| 58> * xyz 0 1
| 59>   C                    : 1.882657             -5.473259            -4.311445
| 60>   O                    : 1.200089             -6.616802            -4.829966
| 61>   H                    : 0.588911             -6.281126            -5.540718
| 62>   H                    : 2.877696             -5.712606            -3.843402
| 63>   H                    : 2.170245             -4.752331            -5.142988
| 64>   H                    : 1.250145             -4.869591            -3.657311
| 65>   C                      3.434464             -6.323335            -0.905216
| 66>   O                      4.164704             -7.455818            -1.326360
| 67>   H                      3.560411             -8.224098            -1.348252
| 68>   H                      4.097257             -5.507385            -0.597335
| 69>   H                      2.775232             -6.025212            -1.737524
| 70>   H                      2.795566             -6.570912            -0.068298
| 71> *
| 72>
| 73>                          ****END OF INPUT****
 Total Charge           Charge          ....    0
 Multiplicity           Mult            ....    1
 Number of Electrons    NEL             ....   36
Dispersion correction           -0.001517667
FINAL SINGLE POINT ENERGY      -231.467272411795
Dispersion correction           -0.000260539
FINAL SINGLE POINT ENERGY      -115.731207840292

CARTESIAN COORDINATES (ANGSTROEM)
---------------------------------
  C      1.882657   -5.473259   -4.311445
  O      1.200089   -6.616802   -4.829966
  H      0.588911   -6.281126   -5.540718
  H      2.877696   -5.712606   -3.843402
  H      2.170245   -4.752331   -5.142988
  H      1.250145   -4.869591   -3.657311
  C      3.434464   -6.323335   -0.905216
  O      4.164704   -7.455818   -1.326360
  H      3.560411   -8.224098   -1.348252
  H      4.097257   -5.507385   -0.597335
  H      2.775232   -6.025212   -1.737524
  H      2.795566   -6.570912   -0.068298

 Multiplicity           Mult            ....    1
 Number of Electrons    NEL             ....   18
 Basis Dimension        Dim             ....  172

ORBITAL ENERGIES
----------------

  NO   OCC          E(Eh)            E(eV)
   0   2.0000     -19.228871      -523.2442
   1   2.0000     -10.312237      -280.6102
   2   2.0000      -1.132438       -30.8152
   3   2.0000      -0.792693       -21.5703
   4   2.0000      -0.608880       -16.5685
   5   2.0000      -0.542906       -14.7732
   6   2.0000      -0.528315       -14.3762
   7   2.0000      -0.432549       -11.7703
   8   2.0000      -0.369885       -10.0651
   9   0.0000       0.085757         2.3336
  10   0.0000       0.116864         3.1800
  11   0.0000       0.152494         4.1496
  12   0.0000       0.175217         4.7679
  13   0.0000       0.190498         5.1837

MULLIKEN ATOMIC CHARGES
-----------------------
   0 C :    0.001269
   1 O :   -0.000410
   2 H :   -0.000025
   3 H :    0.005309
   4 H :    0.000517
   5 H :   -0.001997
   6 C :   -0.158480
   7 O :   -0.484340
   8 H :    0.317198
   9 H :    0.122991
  10 H :    0.087163
  11 H :    0.110806
Sum of atomic charges:   -0.0000000

LOEWDIN ATOMIC CHARGES
----------------------
   0 C :   -0.009589
   1 O :   -0.000028
   2 H :   -0.000016
   3 H :   -0.005231
   4 H :   -0.000054
   5 H :   -0.001570
   6 C :   -0.381419
   7 O :   -0.087127
   8 H :    0.179502
   9 H :    0.109706
  10 H :    0.103485
  11 H :    0.092342

  Mayer bond orders larger than 0.1
B(  6-C ,  7-O ) :   0.9843 B(  6-C ,  9-H ) :   0.9710 B(  6-C , 10-H ) :   0.9796
B(  6-C , 11-H ) :   0.9849 B(  7-O ,  8-H ) :   0.8952

Dispersion correction           -0.000227648
FINAL SINGLE POINT ENERGY      -115.735345444780

DIPOLE MOMENT
-------------
                                X             Y             Z
Electronic contribution:      1.11075      -1.30581      -0.50445
Nuclear contribution   :     -1.78042       1.26589       0.67901
                        -----------------------------------------
Total Dipole Moment    :     -0.66967      -0.03992       0.17456
                        -----------------------------------------
Magnitude (a.u.)       :      0.69320
Magnitude (Debye)      :      1.76197

Rotational constants in cm-1:     4.237884     0.837100     0.804613
Rotational constants in MHz : 127048.569542 25095.638613 24121.684387

                             ****ORCA TERMINATED NORMALLY****
TOTAL RUN TIME: 0 days 0 hours 1 minutes 0 seconds 574 msec
