                         Program Version 4.1.2  - RELEASE  -
|  1> #Run DFT-D3 single point of the dimer
|  2> ! wB97X-D3 def2-TZVP TIGHTSCF CHELPG PMODEL PAL8
|  3>
|  4> %base "20-1_DFT_AB"
|  5>
|  6> %scf
|  7> MaxIter 1000
|  8> end
|  9>
| 10> * xyz 0 1
| 11>   C                      -4.029221            8.344015             5.610913
| 12>   O                      -2.999871            7.977746             4.667712
| 13>   H                      -3.310125            8.320182             3.789893
| 14>   H                      -3.622109            8.473960             6.626864
| 15>   H                      -4.597087            9.250479             5.314208
| 16>   H                      -4.851451            7.575020             5.727861
| 17>   C                      -4.286633            7.826120             1.492004
| 18>   O                      -5.094304            8.659068             2.319935
| 19>   H                      -6.047964            8.445136             2.344196
| 20>   H                      -4.777304            7.440605             0.628035
| 21>   H                      -3.385954            8.291319             1.218376
| 22>   H                      -3.951033            6.945951             1.997395
| 23> *
| 24>
| 25> #Run DFT-D3 single point of the molecule with dimer basis set
| 26> $new_job
| 27> %base "20-1_DFT_A"
| 28> ! wB97X-D3 def2-TZVP TIGHTSCF CHELPG PMODEL
| 29>
| 30> %scf
| 31> MaxIter 1000
| 32> end
| 33>
| 34> * xyz 0 1
| 35>   C                      -4.029221            8.344015             5.610913
| 36>   O                      -2.999871            7.977746             4.667712
| 37>   H                      -3.310125            8.320182             3.789893
| 38>   H                      -3.622109            8.473960             6.626864
| 39>   H                      -4.597087            9.250479             5.314208
| 40>   H                      -4.851451            7.575020             5.727861
| 41>   C                    : -4.286633            7.826120             1.492004
| 42>   O                    : -5.094304            8.659068             2.319935
| 43>   H                    : -6.047964            8.445136             2.344196
| 44>   H                    : -4.777304            7.440605             0.628035
| 45>   H                    : -3.385954            8.291319             1.218376
| 46>   H                    : -3.951033            6.945951             1.997395
| 47> *
| 48>
| 49> #Run DFT-D3 single point of the particle with dimer basis set
| 50> $new_job
| 51> %base "20-1_DFT_B"
| 52> ! wB97X-D3 def2-TZVP TIGHTSCF CHELPG PMODEL
| 53>
| 54> %scf
| 55> MaxIter 1000
| 56> end
| 57>
| 58> * xyz 0 1
| 59>   C                    : -4.029221            8.344015             5.610913
| 60>   O                    : -2.999871            7.977746             4.667712
| 61>   H                    : -3.310125            8.320182             3.789893
| 62>   H                    : -3.622109            8.473960             6.626864
| 63>   H                    : -4.597087            9.250479             5.314208
| 64>   H                    : -4.851451            7.575020             5.727861
| 65>   C                      -4.286633            7.826120             1.492004
| 66>   O                      -5.094304            8.659068             2.319935
| 67>   H                      -6.047964            8.445136             2.344196
| 68>   H                      -4.777304            7.440605             0.628035
| 69>   H                      -3.385954            8.291319             1.218376
| 70>   H                      -3.951033            6.945951             1.997395
| 71> *
| 72>
| 73>                          ****END OF INPUT****
 Total Charge           Charge          ....    0
 Multiplicity           Mult            ....    1
 Number of Electrons    NEL             ....   36
Dispersion correction           -0.002111464
FINAL SINGLE POINT ENERGY      -231.468907453935
Dispersion correction           -0.000277109
FINAL SINGLE POINT ENERGY      -115.732638223927

CARTESIAN COORDINATES (ANGSTROEM)
---------------------------------
  C     -4.029221    8.344015    5.610913
  O     -2.999871    7.977746    4.667712
  H     -3.310125    8.320182    3.789893
  H     -3.622109    8.473960    6.626864
  H     -4.597087    9.250479    5.314208
  H     -4.851451    7.575020    5.727861
  C     -4.286633    7.826120    1.492004
  O     -5.094304    8.659068    2.319935
  H     -6.047964    8.445136    2.344196
  H     -4.777304    7.440605    0.628035
  H     -3.385954    8.291319    1.218376
  H     -3.951033    6.945951    1.997395

 Multiplicity           Mult            ....    1
 Number of Electrons    NEL             ....   18
 Basis Dimension        Dim             ....  172

ORBITAL ENERGIES
----------------

  NO   OCC          E(Eh)            E(eV)
   0   2.0000     -19.229911      -523.2725
   1   2.0000     -10.303476      -280.3718
   2   2.0000      -1.124008       -30.5858
   3   2.0000      -0.807783       -21.9809
   4   2.0000      -0.614022       -16.7084
   5   2.0000      -0.537505       -14.6263
   6   2.0000      -0.531208       -14.4549
   7   2.0000      -0.430192       -11.7061
   8   2.0000      -0.371205       -10.1010
   9   0.0000       0.095068         2.5869
  10   0.0000       0.128646         3.5006
  11   0.0000       0.145241         3.9522
  12   0.0000       0.188519         5.1299
  13   0.0000       0.198683         5.4064

MULLIKEN ATOMIC CHARGES
-----------------------
   0 C :   -0.000156
   1 O :   -0.001749
   2 H :    0.007091
   3 H :   -0.000386
   4 H :   -0.003874
   5 H :   -0.001710
   6 C :   -0.161401
   7 O :   -0.495699
   8 H :    0.321729
   9 H :    0.113307
  10 H :    0.121151
  11 H :    0.101698
Sum of atomic charges:    0.0000000

LOEWDIN ATOMIC CHARGES
----------------------
   0 C :   -0.007451
   1 O :   -0.001735
   2 H :   -0.013537
   3 H :   -0.000101
   4 H :   -0.002859
   5 H :   -0.000643
   6 C :   -0.362411
   7 O :   -0.076479
   8 H :    0.177605
   9 H :    0.092975
  10 H :    0.100850
  11 H :    0.093785

  Mayer bond orders larger than 0.1
B(  6-C ,  7-O ) :   1.0015 B(  6-C ,  9-H ) :   0.9740 B(  6-C , 10-H ) :   0.9794
B(  6-C , 11-H ) :   0.9794 B(  7-O ,  8-H ) :   0.8883

Dispersion correction           -0.000266828
FINAL SINGLE POINT ENERGY      -115.730636611751

DIPOLE MOMENT
-------------
                                X             Y             Z
Electronic contribution:     -0.95054       1.19975       1.00615
Nuclear contribution   :      0.67487      -1.70333      -1.36491
                        -----------------------------------------
Total Dipole Moment    :     -0.27567      -0.50359      -0.35876
                        -----------------------------------------
Magnitude (a.u.)       :      0.67698
Magnitude (Debye)      :      1.72075

Rotational constants in cm-1:     4.717834     0.809509     0.777816
Rotational constants in MHz : 141437.105590 24268.470088 23318.340984

                             ****ORCA TERMINATED NORMALLY****
TOTAL RUN TIME: 0 days 0 hours 1 minutes 8 seconds 67 msec
