                         Program Version 4.1.2  - RELEASE  -
|  1> #Run DFT-D3 single point of the dimer
|  2> ! wB97X-D3 def2-TZVP TIGHTSCF CHELPG PMODEL PAL8
|  3>
|  4> %base "14-138_DFT_AB"
|  5>
|  6> %scf
|  7> MaxIter 1000
|  8> end
|  9>
| 10> * xyz 0 1
| 11>   C                      -6.884273            2.759162             -10.565749
| 12>   O                      -7.233005            2.340191             -11.865965
| 13>   H                      -7.718869            3.042188             -12.262749
| 14>   H                      -6.190884            1.959772             -10.206315
| 15>   H                      -6.272609            3.739494             -10.517569
| 16>   H                      -7.605629            2.739941             -9.851805
| 17>   C                      -10.087581           -1.212474            -9.669881
| 18>   O                      -9.263157            -0.086489            -9.994473
| 19>   H                      -8.491873            -0.476232            -10.390221
| 20>   H                      -11.102939           -0.924491            -9.323504
| 21>   H                      -10.176577           -1.898669            -10.562449
| 22>   H                      -9.520877            -1.804414            -8.913006
| 23> *
| 24>
| 25> #Run DFT-D3 single point of the molecule with dimer basis set
| 26> $new_job
| 27> %base "14-138_DFT_A"
| 28> ! wB97X-D3 def2-TZVP TIGHTSCF CHELPG PMODEL
| 29>
| 30> %scf
| 31> MaxIter 1000
| 32> end
| 33>
| 34> * xyz 0 1
| 35>   C                      -6.884273            2.759162             -10.565749
| 36>   O                      -7.233005            2.340191             -11.865965
| 37>   H                      -7.718869            3.042188             -12.262749
| 38>   H                      -6.190884            1.959772             -10.206315
| 39>   H                      -6.272609            3.739494             -10.517569
| 40>   H                      -7.605629            2.739941             -9.851805
| 41>   C                    : -10.087581           -1.212474            -9.669881
| 42>   O                    : -9.263157            -0.086489            -9.994473
| 43>   H                    : -8.491873            -0.476232            -10.390221
| 44>   H                    : -11.102939           -0.924491            -9.323504
| 45>   H                    : -10.176577           -1.898669            -10.562449
| 46>   H                    : -9.520877            -1.804414            -8.913006
| 47> *
| 48>
| 49> #Run DFT-D3 single point of the particle with dimer basis set
| 50> $new_job
| 51> %base "14-138_DFT_B"
| 52> ! wB97X-D3 def2-TZVP TIGHTSCF CHELPG PMODEL
| 53>
| 54> %scf
| 55> MaxIter 1000
| 56> end
| 57>
| 58> * xyz 0 1
| 59>   C                    : -6.884273            2.759162             -10.565749
| 60>   O                    : -7.233005            2.340191             -11.865965
| 61>   H                    : -7.718869            3.042188             -12.262749
| 62>   H                    : -6.190884            1.959772             -10.206315
| 63>   H                    : -6.272609            3.739494             -10.517569
| 64>   H                    : -7.605629            2.739941             -9.851805
| 65>   C                      -10.087581           -1.212474            -9.669881
| 66>   O                      -9.263157            -0.086489            -9.994473
| 67>   H                      -8.491873            -0.476232            -10.390221
| 68>   H                      -11.102939           -0.924491            -9.323504
| 69>   H                      -10.176577           -1.898669            -10.562449
| 70>   H                      -9.520877            -1.804414            -8.913006
| 71> *
| 72>
| 73>                          ****END OF INPUT****
 Total Charge           Charge          ....    0
 Multiplicity           Mult            ....    1
 Number of Electrons    NEL             ....   36
Dispersion correction           -0.001286907
FINAL SINGLE POINT ENERGY      -231.461817663527
Dispersion correction           -0.000256023
FINAL SINGLE POINT ENERGY      -115.727339492191

CARTESIAN COORDINATES (ANGSTROEM)
---------------------------------
  C     -6.884273    2.759162  -10.565749
  O     -7.233005    2.340191  -11.865965
  H     -7.718869    3.042188  -12.262749
  H     -6.190884    1.959772  -10.206315
  H     -6.272609    3.739494  -10.517569
  H     -7.605629    2.739941   -9.851805
  C    -10.087581   -1.212474   -9.669881
  O     -9.263157   -0.086489   -9.994473
  H     -8.491873   -0.476232  -10.390221
  H    -11.102939   -0.924491   -9.323504
  H    -10.176577   -1.898669  -10.562449
  H     -9.520877   -1.804414   -8.913006

 Multiplicity           Mult            ....    1
 Number of Electrons    NEL             ....   18
 Basis Dimension        Dim             ....  172

ORBITAL ENERGIES
----------------

  NO   OCC          E(Eh)            E(eV)
   0   2.0000     -19.229810      -523.2697
   1   2.0000     -10.324512      -280.9443
   2   2.0000      -1.135826       -30.9074
   3   2.0000      -0.788994       -21.4696
   4   2.0000      -0.607092       -16.5198
   5   2.0000      -0.537753       -14.6330
   6   2.0000      -0.525502       -14.2996
   7   2.0000      -0.440487       -11.9863
   8   2.0000      -0.370594       -10.0844
   9   0.0000       0.088483         2.4077
  10   0.0000       0.119499         3.2517
  11   0.0000       0.154635         4.2078
  12   0.0000       0.172961         4.7065
  13   0.0000       0.193230         5.2581

MULLIKEN ATOMIC CHARGES
-----------------------
   0 C :    0.001301
   1 O :   -0.000333
   2 H :   -0.000123
   3 H :   -0.000719
   4 H :   -0.000118
   5 H :   -0.003190
   6 C :   -0.179597
   7 O :   -0.465180
   8 H :    0.314666
   9 H :    0.125737
  10 H :    0.102475
  11 H :    0.105082
Sum of atomic charges:   -0.0000000

LOEWDIN ATOMIC CHARGES
----------------------
   0 C :   -0.002717
   1 O :   -0.000461
   2 H :   -0.000113
   3 H :   -0.000301
   4 H :   -0.000024
   5 H :   -0.001701
   6 C :   -0.379134
   7 O :   -0.088043
   8 H :    0.163805
   9 H :    0.110868
  10 H :    0.099289
  11 H :    0.098531

  Mayer bond orders larger than 0.1
B(  6-C ,  7-O ) :   0.9857 B(  6-C ,  9-H ) :   0.9699 B(  6-C , 10-H ) :   0.9752
B(  6-C , 11-H ) :   0.9796 B(  7-O ,  8-H ) :   0.9004

Dispersion correction           -0.000229856
FINAL SINGLE POINT ENERGY      -115.732812322487

DIPOLE MOMENT
-------------
                                X             Y             Z
Electronic contribution:      0.81650       1.61396      -0.30702
Nuclear contribution   :     -0.67144      -2.30963       0.18807
                        -----------------------------------------
Total Dipole Moment    :      0.14507      -0.69566      -0.11896
                        -----------------------------------------
Magnitude (a.u.)       :      0.72051
Magnitude (Debye)      :      1.83140

Rotational constants in cm-1:     4.084171     0.821086     0.785349
Rotational constants in MHz : 122440.375437 24615.551980 23544.169103

                             ****ORCA TERMINATED NORMALLY****
TOTAL RUN TIME: 0 days 0 hours 1 minutes 9 seconds 601 msec
