                         Program Version 4.1.2  - RELEASE  -
|  1> #Run DFT-D3 single point of the dimer
|  2> ! wB97X-D3 def2-TZVP TIGHTSCF CHELPG PMODEL PAL8
|  3>
|  4> %base "20-2_DFT_AB"
|  5>
|  6> %scf
|  7> MaxIter 1000
|  8> end
|  9>
| 10> * xyz 0 1
| 11>   C                      -4.029221            8.344015             5.610913
| 12>   O                      -2.999871            7.977746             4.667712
| 13>   H                      -3.310125            8.320182             3.789893
| 14>   H                      -3.622109            8.473960             6.626864
| 15>   H                      -4.597087            9.250479             5.314208
| 16>   H                      -4.851451            7.575020             5.727861
| 17>   C                      -6.714063            5.350536             4.090886
| 18>   O                      -7.999713            4.915713             3.661961
| 19>   H                      -7.853763            4.051714             3.187885
| 20>   H                      -5.999717            4.604636             4.133295
| 21>   H                      -6.266902            6.020050             3.367942
| 22>   H                      -6.759302            5.873254             5.050062
| 23> *
| 24>
| 25> #Run DFT-D3 single point of the molecule with dimer basis set
| 26> $new_job
| 27> %base "20-2_DFT_A"
| 28> ! wB97X-D3 def2-TZVP TIGHTSCF CHELPG PMODEL
| 29>
| 30> %scf
| 31> MaxIter 1000
| 32> end
| 33>
| 34> * xyz 0 1
| 35>   C                      -4.029221            8.344015             5.610913
| 36>   O                      -2.999871            7.977746             4.667712
| 37>   H                      -3.310125            8.320182             3.789893
| 38>   H                      -3.622109            8.473960             6.626864
| 39>   H                      -4.597087            9.250479             5.314208
| 40>   H                      -4.851451            7.575020             5.727861
| 41>   C                    : -6.714063            5.350536             4.090886
| 42>   O                    : -7.999713            4.915713             3.661961
| 43>   H                    : -7.853763            4.051714             3.187885
| 44>   H                    : -5.999717            4.604636             4.133295
| 45>   H                    : -6.266902            6.020050             3.367942
| 46>   H                    : -6.759302            5.873254             5.050062
| 47> *
| 48>
| 49> #Run DFT-D3 single point of the particle with dimer basis set
| 50> $new_job
| 51> %base "20-2_DFT_B"
| 52> ! wB97X-D3 def2-TZVP TIGHTSCF CHELPG PMODEL
| 53>
| 54> %scf
| 55> MaxIter 1000
| 56> end
| 57>
| 58> * xyz 0 1
| 59>   C                    : -4.029221            8.344015             5.610913
| 60>   O                    : -2.999871            7.977746             4.667712
| 61>   H                    : -3.310125            8.320182             3.789893
| 62>   H                    : -3.622109            8.473960             6.626864
| 63>   H                    : -4.597087            9.250479             5.314208
| 64>   H                    : -4.851451            7.575020             5.727861
| 65>   C                      -6.714063            5.350536             4.090886
| 66>   O                      -7.999713            4.915713             3.661961
| 67>   H                      -7.853763            4.051714             3.187885
| 68>   H                      -5.999717            4.604636             4.133295
| 69>   H                      -6.266902            6.020050             3.367942
| 70>   H                      -6.759302            5.873254             5.050062
| 71> *
| 72>
| 73>                          ****END OF INPUT****
 Total Charge           Charge          ....    0
 Multiplicity           Mult            ....    1
 Number of Electrons    NEL             ....   36
Dispersion correction           -0.001281091
FINAL SINGLE POINT ENERGY      -231.463370717757
Dispersion correction           -0.000277109
FINAL SINGLE POINT ENERGY      -115.732184039414

CARTESIAN COORDINATES (ANGSTROEM)
---------------------------------
  C     -4.029221    8.344015    5.610913
  O     -2.999871    7.977746    4.667712
  H     -3.310125    8.320182    3.789893
  H     -3.622109    8.473960    6.626864
  H     -4.597087    9.250479    5.314208
  H     -4.851451    7.575020    5.727861
  C     -6.714063    5.350536    4.090886
  O     -7.999713    4.915713    3.661961
  H     -7.853763    4.051714    3.187885
  H     -5.999717    4.604636    4.133295
  H     -6.266902    6.020050    3.367942
  H     -6.759302    5.873254    5.050062

 Multiplicity           Mult            ....    1
 Number of Electrons    NEL             ....   18
 Basis Dimension        Dim             ....  172

ORBITAL ENERGIES
----------------

  NO   OCC          E(Eh)            E(eV)
   0   2.0000     -19.234275      -523.3912
   1   2.0000     -10.304617      -280.4029
   2   2.0000      -1.127714       -30.6867
   3   2.0000      -0.799662       -21.7599
   4   2.0000      -0.612941       -16.6790
   5   2.0000      -0.535232       -14.5644
   6   2.0000      -0.525400       -14.2969
   7   2.0000      -0.441834       -12.0229
   8   2.0000      -0.371498       -10.1090
   9   0.0000       0.083028         2.2593
  10   0.0000       0.110792         3.0148
  11   0.0000       0.152913         4.1610
  12   0.0000       0.158429         4.3111
  13   0.0000       0.188562         5.1310

MULLIKEN ATOMIC CHARGES
-----------------------
   0 C :    0.000272
   1 O :    0.000013
   2 H :   -0.000088
   3 H :   -0.000002
   4 H :   -0.000032
   5 H :   -0.000535
   6 C :   -0.175660
   7 O :   -0.471899
   8 H :    0.317227
   9 H :    0.108948
  10 H :    0.102626
  11 H :    0.119129
Sum of atomic charges:    0.0000000

LOEWDIN ATOMIC CHARGES
----------------------
   0 C :   -0.000750
   1 O :   -0.000030
   2 H :   -0.000128
   3 H :   -0.000005
   4 H :   -0.000019
   5 H :   -0.002097
   6 C :   -0.377452
   7 O :   -0.097018
   8 H :    0.191274
   9 H :    0.082717
  10 H :    0.095559
  11 H :    0.107947

  Mayer bond orders larger than 0.1
B(  6-C ,  7-O ) :   1.0103 B(  6-C ,  9-H ) :   0.9812 B(  6-C , 10-H ) :   0.9759
B(  6-C , 11-H ) :   0.9752 B(  7-O ,  8-H ) :   0.8959

Dispersion correction           -0.000243042
FINAL SINGLE POINT ENERGY      -115.730224306348

DIPOLE MOMENT
-------------
                                X             Y             Z
Electronic contribution:     -1.75348      -0.50525      -0.41461
Nuclear contribution   :      2.38029       0.11279       0.28877
                        -----------------------------------------
Total Dipole Moment    :      0.62682      -0.39246      -0.12584
                        -----------------------------------------
Magnitude (a.u.)       :      0.75017
Magnitude (Debye)      :      1.90679

Rotational constants in cm-1:     4.440379     0.824228     0.788511
Rotational constants in MHz : 133119.201733 24709.748475 23638.950310

                             ****ORCA TERMINATED NORMALLY****
TOTAL RUN TIME: 0 days 0 hours 0 minutes 53 seconds 388 msec
