                         Program Version 4.1.2  - RELEASE  -
|  1> #Run DFT-D3 single point of the dimer
|  2> ! wB97X-D3 def2-TZVP TIGHTSCF  CHELPG PAL8
|  3>
|  4> %base "107_charges"
|  5>
|  6> %scf
|  7> MaxIter 1000
|  8> end
|  9> %output
| 10>   Print[ P_Mayer ] 1
| 11>   Print[ P_NatPop ] 1
| 12>   Print[ P_Hirshfeld ] 1
| 13>   Print[ P_Mulliken ] 1
| 14>   Print [ P_Loewdin ] 1
| 15> end
| 16>
| 17> * xyz 0 1
| 18>   C                      3.694124             7.995513             5.908943
| 19>   O                      2.954658             8.400406             7.073838
| 20>   H                      3.172963             9.317966             7.196407
| 21>   H                      4.740557             8.097598             6.159736
| 22>   H                      3.484431             6.977610             5.685398
| 23>   H                      3.384033             8.575208             5.018657
| 24> *
| 25>
| 26>                          ****END OF INPUT****

CARTESIAN COORDINATES (ANGSTROEM)
---------------------------------
  C      3.694124    7.995513    5.908943
  O      2.954658    8.400406    7.073838
  H      3.172963    9.317966    7.196407
  H      4.740557    8.097598    6.159736
  H      3.484431    6.977610    5.685398
  H      3.384033    8.575208    5.018657

 Total Charge           Charge          ....    0
 Multiplicity           Mult            ....    1
 Number of Electrons    NEL             ....   18
 Basis Dimension        Dim             ....   86

ORBITAL ENERGIES
----------------

  NO   OCC          E(Eh)            E(eV)
   0   2.0000     -19.226505      -523.1798
   1   2.0000     -10.311467      -280.5893
   2   2.0000      -1.131093       -30.7786
   3   2.0000      -0.797484       -21.7006
   4   2.0000      -0.601451       -16.3663
   5   2.0000      -0.548961       -14.9380
   6   2.0000      -0.526511       -14.3271
   7   2.0000      -0.435529       -11.8514
   8   2.0000      -0.374145       -10.1810
   9   0.0000       0.116789         3.1780
  10   0.0000       0.157717         4.2917
  11   0.0000       0.201788         5.4909
  12   0.0000       0.207565         5.6481
  13   0.0000       0.217949         5.9307

MULLIKEN ATOMIC CHARGES
-----------------------
   0 C :   -0.167220
   1 O :   -0.477438
   2 H :    0.310639
   3 H :    0.110570
   4 H :    0.120626
   5 H :    0.102824
Sum of atomic charges:   -0.0000000

LOEWDIN ATOMIC CHARGES
----------------------
   0 C :   -0.362206
   1 O :   -0.093977
   2 H :    0.160601
   3 H :    0.095615
   4 H :    0.101101
   5 H :    0.098866

  Mayer bond orders larger than 0.1
B(  0-C ,  1-O ) :   0.9912 B(  0-C ,  3-H ) :   0.9823 B(  0-C ,  4-H ) :   0.9740
B(  0-C ,  5-H ) :   0.9746 B(  1-O ,  2-H ) :   0.9055

Dispersion correction           -0.000225135
FINAL SINGLE POINT ENERGY      -115.734862911438

DIPOLE MOMENT
-------------
                                X             Y             Z
Electronic contribution:     -0.94772       0.33400       1.42408
Nuclear contribution   :      1.38462       0.05277      -1.82624
                        -----------------------------------------
Total Dipole Moment    :      0.43690       0.38677      -0.40217
                        -----------------------------------------
Magnitude (a.u.)       :      0.70867
Magnitude (Debye)      :      1.80128

Rotational constants in cm-1:     4.277777     0.816598     0.795323
Rotational constants in MHz : 128244.527761 24480.978278 23843.197108

                             ****ORCA TERMINATED NORMALLY****
TOTAL RUN TIME: 0 days 0 hours 0 minutes 42 seconds 537 msec
