                         Program Version 4.1.2  - RELEASE  -
|  1> #Run DFT-D3 single point of the dimer
|  2> ! wB97X-D3 def2-TZVP TIGHTSCF CHELPG PMODEL PAL8
|  3>
|  4> %base "14-1_DFT_AB"
|  5>
|  6> %scf
|  7> MaxIter 1000
|  8> end
|  9>
| 10> * xyz 0 1
| 11>   C                      2.263257             -4.148155            5.412082
| 12>   O                      2.954997             -4.750595            6.535683
| 13>   H                      3.854224             -4.751128            6.203519
| 14>   H                      2.189910             -3.055356            5.686844
| 15>   H                      2.686634             -4.323060            4.395248
| 16>   H                      1.297417             -4.690642            5.387383
| 17>   C                      7.567911             -2.952551            3.860034
| 18>   O                      7.887991             -1.907704            4.845676
| 19>   H                      8.703618             -1.618722            4.524083
| 20>   H                      6.585277             -3.464839            4.150207
| 21>   H                      7.441919             -2.533425            2.861552
| 22>   H                      8.382683             -3.666362            3.810914
| 23> *
| 24>
| 25> #Run DFT-D3 single point of the molecule with dimer basis set
| 26> $new_job
| 27> %base "14-1_DFT_A"
| 28> ! wB97X-D3 def2-TZVP TIGHTSCF CHELPG PMODEL
| 29>
| 30> %scf
| 31> MaxIter 1000
| 32> end
| 33>
| 34> * xyz 0 1
| 35>   C                      2.263257             -4.148155            5.412082
| 36>   O                      2.954997             -4.750595            6.535683
| 37>   H                      3.854224             -4.751128            6.203519
| 38>   H                      2.189910             -3.055356            5.686844
| 39>   H                      2.686634             -4.323060            4.395248
| 40>   H                      1.297417             -4.690642            5.387383
| 41>   C                    : 7.567911             -2.952551            3.860034
| 42>   O                    : 7.887991             -1.907704            4.845676
| 43>   H                    : 8.703618             -1.618722            4.524083
| 44>   H                    : 6.585277             -3.464839            4.150207
| 45>   H                    : 7.441919             -2.533425            2.861552
| 46>   H                    : 8.382683             -3.666362            3.810914
| 47> *
| 48>
| 49> #Run DFT-D3 single point of the particle with dimer basis set
| 50> $new_job
| 51> %base "14-1_DFT_B"
| 52> ! wB97X-D3 def2-TZVP TIGHTSCF CHELPG PMODEL
| 53>
| 54> %scf
| 55> MaxIter 1000
| 56> end
| 57>
| 58> * xyz 0 1
| 59>   C                    : 2.263257             -4.148155            5.412082
| 60>   O                    : 2.954997             -4.750595            6.535683
| 61>   H                    : 3.854224             -4.751128            6.203519
| 62>   H                    : 2.189910             -3.055356            5.686844
| 63>   H                    : 2.686634             -4.323060            4.395248
| 64>   H                    : 1.297417             -4.690642            5.387383
| 65>   C                      7.567911             -2.952551            3.860034
| 66>   O                      7.887991             -1.907704            4.845676
| 67>   H                      8.703618             -1.618722            4.524083
| 68>   H                      6.585277             -3.464839            4.150207
| 69>   H                      7.441919             -2.533425            2.861552
| 70>   H                      8.382683             -3.666362            3.810914
| 71> *
| 72>
| 73>                          ****END OF INPUT****
 Total Charge           Charge          ....    0
 Multiplicity           Mult            ....    1
 Number of Electrons    NEL             ....   36
Dispersion correction           -0.000713825
FINAL SINGLE POINT ENERGY      -231.459131125145
Dispersion correction           -0.000245725
FINAL SINGLE POINT ENERGY      -115.728394924740

CARTESIAN COORDINATES (ANGSTROEM)
---------------------------------
  C      2.263257   -4.148155    5.412082
  O      2.954997   -4.750595    6.535683
  H      3.854224   -4.751128    6.203519
  H      2.189910   -3.055356    5.686844
  H      2.686634   -4.323060    4.395248
  H      1.297417   -4.690642    5.387383
  C      7.567911   -2.952551    3.860034
  O      7.887991   -1.907704    4.845676
  H      8.703618   -1.618722    4.524083
  H      6.585277   -3.464839    4.150207
  H      7.441919   -2.533425    2.861552
  H      8.382683   -3.666362    3.810914

 Multiplicity           Mult            ....    1
 Number of Electrons    NEL             ....   18
 Basis Dimension        Dim             ....  172

ORBITAL ENERGIES
----------------

  NO   OCC          E(Eh)            E(eV)
   0   2.0000     -19.228488      -523.2338
   1   2.0000     -10.322960      -280.9020
   2   2.0000      -1.132669       -30.8215
   3   2.0000      -0.794528       -21.6202
   4   2.0000      -0.604252       -16.4425
   5   2.0000      -0.539289       -14.6748
   6   2.0000      -0.514672       -14.0049
   7   2.0000      -0.447306       -12.1718
   8   2.0000      -0.377510       -10.2726
   9   0.0000       0.084971         2.3122
  10   0.0000       0.117690         3.2025
  11   0.0000       0.148679         4.0458
  12   0.0000       0.166627         4.5341
  13   0.0000       0.186532         5.0758

MULLIKEN ATOMIC CHARGES
-----------------------
   0 C :    0.000037
   1 O :    0.000001
   2 H :   -0.000056
   3 H :   -0.000005
   4 H :   -0.000081
   5 H :   -0.000002
   6 C :   -0.188174
   7 O :   -0.462139
   8 H :    0.302892
   9 H :    0.124427
  10 H :    0.110325
  11 H :    0.112775
Sum of atomic charges:    0.0000000

LOEWDIN ATOMIC CHARGES
----------------------
   0 C :   -0.000054
   1 O :   -0.000003
   2 H :   -0.000123
   3 H :   -0.000002
   4 H :   -0.000042
   5 H :   -0.000000
   6 C :   -0.349953
   7 O :   -0.097977
   8 H :    0.140862
   9 H :    0.119915
  10 H :    0.094130
  11 H :    0.093248

  Mayer bond orders larger than 0.1
B(  6-C ,  7-O ) :   0.9903 B(  6-C ,  9-H ) :   0.9731 B(  6-C , 10-H ) :   0.9719
B(  6-C , 11-H ) :   0.9760 B(  7-O ,  8-H ) :   0.9145

Dispersion correction           -0.000241524
FINAL SINGLE POINT ENERGY      -115.730667959789

DIPOLE MOMENT
-------------
                                X             Y             Z
Electronic contribution:      0.29004       1.26510       1.29628
Nuclear contribution   :      0.09264      -1.51823      -1.91611
                        -----------------------------------------
Total Dipole Moment    :      0.38268      -0.25313      -0.61983
                        -----------------------------------------
Magnitude (a.u.)       :      0.77118
Magnitude (Debye)      :      1.96018

Rotational constants in cm-1:     4.184268     0.789937     0.756434
Rotational constants in MHz : 125441.191082 23681.712825 22677.316057

                             ****ORCA TERMINATED NORMALLY****
TOTAL RUN TIME: 0 days 0 hours 0 minutes 50 seconds 492 msec
