                         Program Version 4.1.2  - RELEASE  -
|  1> #Run DFT-D3 single point of the dimer
|  2> ! wB97X-D3 def2-TZVP TIGHTSCF CHELPG PMODEL PAL8
|  3>
|  4> %base "7-10_DFT_AB"
|  5>
|  6> %scf
|  7> MaxIter 1000
|  8> end
|  9>
| 10> * xyz 0 1
| 11>   C                      0.107441             2.741054             -3.055841
| 12>   O                      0.093632             2.479985             -1.676650
| 13>   H                      -0.116713            3.352322             -1.369150
| 14>   H                      0.781831             3.560905             -3.329535
| 15>   H                      0.429337             1.873700             -3.602147
| 16>   H                      -0.921354            2.900499             -3.482296
| 17>   C                      2.163176             6.492274             -4.981907
| 18>   O                      1.985793             5.101903             -4.804777
| 19>   H                      2.362999             4.914867             -3.969239
| 20>   H                      2.898402             6.911257             -4.360386
| 21>   H                      2.393466             6.722393             -6.010610
| 22>   H                      1.274072             6.999518             -4.632095
| 23> *
| 24>
| 25> #Run DFT-D3 single point of the molecule with dimer basis set
| 26> $new_job
| 27> %base "7-10_DFT_A"
| 28> ! wB97X-D3 def2-TZVP TIGHTSCF CHELPG PMODEL
| 29>
| 30> %scf
| 31> MaxIter 1000
| 32> end
| 33>
| 34> * xyz 0 1
| 35>   C                      0.107441             2.741054             -3.055841
| 36>   O                      0.093632             2.479985             -1.676650
| 37>   H                      -0.116713            3.352322             -1.369150
| 38>   H                      0.781831             3.560905             -3.329535
| 39>   H                      0.429337             1.873700             -3.602147
| 40>   H                      -0.921354            2.900499             -3.482296
| 41>   C                    : 2.163176             6.492274             -4.981907
| 42>   O                    : 1.985793             5.101903             -4.804777
| 43>   H                    : 2.362999             4.914867             -3.969239
| 44>   H                    : 2.898402             6.911257             -4.360386
| 45>   H                    : 2.393466             6.722393             -6.010610
| 46>   H                    : 1.274072             6.999518             -4.632095
| 47> *
| 48>
| 49> #Run DFT-D3 single point of the particle with dimer basis set
| 50> $new_job
| 51> %base "7-10_DFT_B"
| 52> ! wB97X-D3 def2-TZVP TIGHTSCF CHELPG PMODEL
| 53>
| 54> %scf
| 55> MaxIter 1000
| 56> end
| 57>
| 58> * xyz 0 1
| 59>   C                    : 0.107441             2.741054             -3.055841
| 60>   O                    : 0.093632             2.479985             -1.676650
| 61>   H                    : -0.116713            3.352322             -1.369150
| 62>   H                    : 0.781831             3.560905             -3.329535
| 63>   H                    : 0.429337             1.873700             -3.602147
| 64>   H                    : -0.921354            2.900499             -3.482296
| 65>   C                      2.163176             6.492274             -4.981907
| 66>   O                      1.985793             5.101903             -4.804777
| 67>   H                      2.362999             4.914867             -3.969239
| 68>   H                      2.898402             6.911257             -4.360386
| 69>   H                      2.393466             6.722393             -6.010610
| 70>   H                      1.274072             6.999518             -4.632095
| 71> *
| 72>
| 73>                          ****END OF INPUT****
 Total Charge           Charge          ....    0
 Multiplicity           Mult            ....    1
 Number of Electrons    NEL             ....   36
Dispersion correction           -0.001314945
FINAL SINGLE POINT ENERGY      -231.465212804343
Dispersion correction           -0.000223019
FINAL SINGLE POINT ENERGY      -115.732610709766

CARTESIAN COORDINATES (ANGSTROEM)
---------------------------------
  C      0.107441    2.741054   -3.055841
  O      0.093632    2.479985   -1.676650
  H     -0.116713    3.352322   -1.369150
  H      0.781831    3.560905   -3.329535
  H      0.429337    1.873700   -3.602147
  H     -0.921354    2.900499   -3.482296
  C      2.163176    6.492274   -4.981907
  O      1.985793    5.101903   -4.804777
  H      2.362999    4.914867   -3.969239
  H      2.898402    6.911257   -4.360386
  H      2.393466    6.722393   -6.010610
  H      1.274072    6.999518   -4.632095

 Multiplicity           Mult            ....    1
 Number of Electrons    NEL             ....   18
 Basis Dimension        Dim             ....  172

ORBITAL ENERGIES
----------------

  NO   OCC          E(Eh)            E(eV)
   0   2.0000     -19.228720      -523.2401
   1   2.0000     -10.305184      -280.4183
   2   2.0000      -1.143724       -31.1223
   3   2.0000      -0.802465       -21.8362
   4   2.0000      -0.620737       -16.8911
   5   2.0000      -0.546147       -14.8614
   6   2.0000      -0.524289       -14.2666
   7   2.0000      -0.443790       -12.0761
   8   2.0000      -0.373641       -10.1673
   9   0.0000       0.089179         2.4267
  10   0.0000       0.126119         3.4319
  11   0.0000       0.159168         4.3312
  12   0.0000       0.173309         4.7160
  13   0.0000       0.191224         5.2035

MULLIKEN ATOMIC CHARGES
-----------------------
   0 C :    0.014795
   1 O :   -0.000084
   2 H :   -0.000118
   3 H :   -0.028036
   4 H :   -0.000952
   5 H :   -0.000976
   6 C :   -0.170392
   7 O :   -0.451163
   8 H :    0.313152
   9 H :    0.107600
  10 H :    0.115942
  11 H :    0.100233
Sum of atomic charges:    0.0000000

LOEWDIN ATOMIC CHARGES
----------------------
   0 C :   -0.005368
   1 O :   -0.000037
   2 H :   -0.000022
   3 H :   -0.013363
   4 H :   -0.000141
   5 H :   -0.000170
   6 C :   -0.375089
   7 O :   -0.050700
   8 H :    0.157271
   9 H :    0.087720
  10 H :    0.103799
  11 H :    0.096100

  Mayer bond orders larger than 0.1
B(  6-C ,  7-O ) :   1.0100 B(  6-C ,  9-H ) :   0.9844 B(  6-C , 10-H ) :   0.9745
B(  6-C , 11-H ) :   0.9776 B(  7-O ,  8-H ) :   0.9035

Dispersion correction           -0.000221768
FINAL SINGLE POINT ENERGY      -115.732388036832

DIPOLE MOMENT
-------------
                                X             Y             Z
Electronic contribution:     -0.21046      -1.79645       0.02729
Nuclear contribution   :      0.55748       2.24982       0.45243
                        -----------------------------------------
Total Dipole Moment    :      0.34702       0.45338       0.47972
                        -----------------------------------------
Magnitude (a.u.)       :      0.74572
Magnitude (Debye)      :      1.89548

Rotational constants in cm-1:     4.469156     0.842162     0.810994
Rotational constants in MHz : 133981.912984 25247.373651 24313.000636

                             ****ORCA TERMINATED NORMALLY****
TOTAL RUN TIME: 0 days 0 hours 1 minutes 12 seconds 652 msec
