                         Program Version 4.1.2  - RELEASE  -
|  1> #Run DFT geometry optimization
|  2> ! wB97X-D3 def2-TZVP TIGHTSCF Grid5 FinalGrid6 Opt CHELPG PAL4
|  3>
|  4> %base "4_geo_opt"
|  5> %geom MaxIter 500
|  6> end
|  7>
|  8> %geom
|  9>   Constraints
| 10>     { A 5 0 4 C }
| 11>   end
| 12> end
| 13>
| 14>
| 15> * xyz 0 1
| 16>   C                    3.011308             -1.180897            0.598492
| 17>   O                    4.394673             -1.128050            0.874308
| 18>   H                    4.772196             -0.379022            0.412493
| 19>   H                    2.806434             -1.318965            -0.469350
| 20>   H                    2.612228             -2.040836            1.135427
| 21>   H                    2.485278             -0.283955            0.945062
| 22> *
| 23>
| 24>                          ****END OF INPUT****
 Total Charge           Charge          ....    0
 Multiplicity           Mult            ....    1
 Number of Electrons    NEL             ....   18
Dispersion correction           -0.000239154
FINAL SINGLE POINT ENERGY      -115.738051042366
Dispersion correction            ... done
                    ***********************HURRAY********************

CARTESIAN COORDINATES (ANGSTROEM)
---------------------------------
  C      3.011319   -1.180924    0.598581
  O      4.394722   -1.128013    0.874275
  H      4.772217   -0.378998    0.412440
  H      2.806495   -1.318958   -0.469312
  H      2.612098   -2.040840    1.135388
  H      2.485266   -0.283992    0.945060

 Multiplicity           Mult            ....    1
 Number of Electrons    NEL             ....   18
 Basis Dimension        Dim             ....   86

ORBITAL ENERGIES
----------------

  NO   OCC          E(Eh)            E(eV)
   0   2.0000     -19.228067      -523.2223
   1   2.0000     -10.315113      -280.6885
   2   2.0000      -1.136790       -30.9336
   3   2.0000      -0.795335       -21.6422
   4   2.0000      -0.611604       -16.6426
   5   2.0000      -0.541741       -14.7415
   6   2.0000      -0.526332       -14.3222
   7   2.0000      -0.433829       -11.8051
   8   2.0000      -0.373580       -10.1656
   9   0.0000       0.116631         3.1737
  10   0.0000       0.156701         4.2641
  11   0.0000       0.202563         5.5120
  12   0.0000       0.205101         5.5811
  13   0.0000       0.226384         6.1602

MULLIKEN ATOMIC CHARGES
-----------------------
   0 C :   -0.150810
   1 O :   -0.477666
   2 H :    0.312992
   3 H :    0.098591
   4 H :    0.118250
   5 H :    0.098643
Sum of atomic charges:   -0.0000000

LOEWDIN ATOMIC CHARGES
----------------------
   0 C :   -0.385106
   1 O :   -0.076133
   2 H :    0.165763
   3 H :    0.093392
   4 H :    0.108690
   5 H :    0.093394

  Mayer bond orders larger than 0.1
B(  0-C ,  1-O ) :   0.9986 B(  0-C ,  3-H ) :   0.9755 B(  0-C ,  4-H ) :   0.9749
B(  0-C ,  5-H ) :   0.9755 B(  1-O ,  2-H ) :   0.9002

Dispersion correction           -0.000239164
FINAL SINGLE POINT ENERGY      -115.738051067333

DIPOLE MOMENT
-------------
                                X             Y             Z
Electronic contribution:      1.75511      -0.02821       0.42064
Nuclear contribution   :     -2.06490       0.47575      -0.81843
                        -----------------------------------------
Total Dipole Moment    :     -0.30980       0.44754      -0.39779
                        -----------------------------------------
Magnitude (a.u.)       :      0.67417
Magnitude (Debye)      :      1.71361

Rotational constants in cm-1:     4.292242     0.833873     0.804916
Rotational constants in MHz : 128678.167530 24998.894134 24130.775951

                             ****ORCA TERMINATED NORMALLY****
TOTAL RUN TIME: 0 days 0 hours 0 minutes 35 seconds 402 msec
