                         Program Version 4.1.2  - RELEASE  -
|  1> #Run DFT-D3 single point of the dimer
|  2> ! wB97X-D3 def2-TZVP TIGHTSCF CHELPG PMODEL PAL8
|  3>
|  4> %base "5-94_DFT_AB"
|  5>
|  6> %scf
|  7> MaxIter 1000
|  8> end
|  9>
| 10> * xyz 0 1
| 11>   C                      3.523408             -5.923778            2.070169
| 12>   O                      3.834441             -4.576411            1.836301
| 13>   H                      4.763971             -4.562166            1.509061
| 14>   H                      2.729272             -5.991882            2.856450
| 15>   H                      3.330591             -6.484672            1.252621
| 16>   H                      4.446997             -6.457884            2.510366
| 17>   C                      3.444995             -7.607773            -1.742963
| 18>   O                      4.584337             -7.992641            -1.053589
| 19>   H                      5.128478             -7.968528            -1.797821
| 20>   H                      3.688100             -6.769528            -2.355654
| 21>   H                      2.974968             -8.387268            -2.383765
| 22>   H                      2.759493             -7.192453            -0.974357
| 23> *
| 24>
| 25> #Run DFT-D3 single point of the molecule with dimer basis set
| 26> $new_job
| 27> %base "5-94_DFT_A"
| 28> ! wB97X-D3 def2-TZVP TIGHTSCF CHELPG PMODEL
| 29>
| 30> %scf
| 31> MaxIter 1000
| 32> end
| 33>
| 34> * xyz 0 1
| 35>   C                      3.523408             -5.923778            2.070169
| 36>   O                      3.834441             -4.576411            1.836301
| 37>   H                      4.763971             -4.562166            1.509061
| 38>   H                      2.729272             -5.991882            2.856450
| 39>   H                      3.330591             -6.484672            1.252621
| 40>   H                      4.446997             -6.457884            2.510366
| 41>   C                    : 3.444995             -7.607773            -1.742963
| 42>   O                    : 4.584337             -7.992641            -1.053589
| 43>   H                    : 5.128478             -7.968528            -1.797821
| 44>   H                    : 3.688100             -6.769528            -2.355654
| 45>   H                    : 2.974968             -8.387268            -2.383765
| 46>   H                    : 2.759493             -7.192453            -0.974357
| 47> *
| 48>
| 49> #Run DFT-D3 single point of the particle with dimer basis set
| 50> $new_job
| 51> %base "5-94_DFT_B"
| 52> ! wB97X-D3 def2-TZVP TIGHTSCF CHELPG PMODEL
| 53>
| 54> %scf
| 55> MaxIter 1000
| 56> end
| 57>
| 58> * xyz 0 1
| 59>   C                    : 3.523408             -5.923778            2.070169
| 60>   O                    : 3.834441             -4.576411            1.836301
| 61>   H                    : 4.763971             -4.562166            1.509061
| 62>   H                    : 2.729272             -5.991882            2.856450
| 63>   H                    : 3.330591             -6.484672            1.252621
| 64>   H                    : 4.446997             -6.457884            2.510366
| 65>   C                      3.444995             -7.607773            -1.742963
| 66>   O                      4.584337             -7.992641            -1.053589
| 67>   H                      5.128478             -7.968528            -1.797821
| 68>   H                      3.688100             -6.769528            -2.355654
| 69>   H                      2.974968             -8.387268            -2.383765
| 70>   H                      2.759493             -7.192453            -0.974357
| 71> *
| 72>
| 73>                          ****END OF INPUT****
 Total Charge           Charge          ....    0
 Multiplicity           Mult            ....    1
 Number of Electrons    NEL             ....   36
Dispersion correction           -0.001393522
FINAL SINGLE POINT ENERGY      -231.453404426574
Dispersion correction           -0.000230739
FINAL SINGLE POINT ENERGY      -115.726393612983

CARTESIAN COORDINATES (ANGSTROEM)
---------------------------------
  C      3.523408   -5.923778    2.070169
  O      3.834441   -4.576411    1.836301
  H      4.763971   -4.562166    1.509061
  H      2.729272   -5.991882    2.856450
  H      3.330591   -6.484672    1.252621
  H      4.446997   -6.457884    2.510366
  C      3.444995   -7.607773   -1.742963
  O      4.584337   -7.992641   -1.053589
  H      5.128478   -7.968528   -1.797821
  H      3.688100   -6.769528   -2.355654
  H      2.974968   -8.387268   -2.383765
  H      2.759493   -7.192453   -0.974357

 Multiplicity           Mult            ....    1
 Number of Electrons    NEL             ....   18
 Basis Dimension        Dim             ....  172

ORBITAL ENERGIES
----------------

  NO   OCC          E(Eh)            E(eV)
   0   2.0000     -19.230405      -523.2859
   1   2.0000     -10.312138      -280.6075
   2   2.0000      -1.165240       -31.7078
   3   2.0000      -0.789774       -21.4908
   4   2.0000      -0.623410       -16.9639
   5   2.0000      -0.552576       -15.0364
   6   2.0000      -0.524277       -14.2663
   7   2.0000      -0.443618       -12.0715
   8   2.0000      -0.376960       -10.2576
   9   0.0000       0.093507         2.5445
  10   0.0000       0.122212         3.3256
  11   0.0000       0.159276         4.3341
  12   0.0000       0.170472         4.6388
  13   0.0000       0.190776         5.1913

MULLIKEN ATOMIC CHARGES
-----------------------
   0 C :   -0.003888
   1 O :    0.000053
   2 H :   -0.000140
   3 H :    0.000077
   4 H :    0.005233
   5 H :   -0.000231
   6 C :   -0.182793
   7 O :   -0.436914
   8 H :    0.303942
   9 H :    0.105731
  10 H :    0.101208
  11 H :    0.107720
Sum of atomic charges:   -0.0000000

LOEWDIN ATOMIC CHARGES
----------------------
   0 C :   -0.002530
   1 O :   -0.000011
   2 H :   -0.000090
   3 H :   -0.000017
   4 H :   -0.002995
   5 H :   -0.000193
   6 C :   -0.414388
   7 O :   -0.032505
   8 H :    0.153077
   9 H :    0.089648
  10 H :    0.097288
  11 H :    0.112716

  Mayer bond orders larger than 0.1
B(  6-C ,  7-O ) :   0.9985 B(  6-C ,  9-H ) :   0.9886 B(  6-C , 10-H ) :   0.9642
B(  6-C , 11-H ) :   0.9822 B(  7-O ,  8-H ) :   0.9152

Dispersion correction           -0.000192178
FINAL SINGLE POINT ENERGY      -115.725172044196

DIPOLE MOMENT
-------------
                                X             Y             Z
Electronic contribution:      1.44128      -0.62757       1.02358
Nuclear contribution   :     -1.49443       0.81119      -1.72903
                        -----------------------------------------
Total Dipole Moment    :     -0.05315       0.18362      -0.70545
                        -----------------------------------------
Magnitude (a.u.)       :      0.73089
Magnitude (Debye)      :      1.85777

Rotational constants in cm-1:     4.222899     0.879745     0.847130
Rotational constants in MHz : 126599.329634 26374.091812 25396.330328

                             ****ORCA TERMINATED NORMALLY****
TOTAL RUN TIME: 0 days 0 hours 0 minutes 43 seconds 577 msec
