                         Program Version 4.1.2  - RELEASE  -
|  1> #Run DFT-D3 single point of the dimer
|  2> ! wB97X-D3 def2-TZVP TIGHTSCF CHELPG PMODEL PAL8
|  3>
|  4> %base "7-124_DFT_AB"
|  5>
|  6> %scf
|  7> MaxIter 1000
|  8> end
|  9>
| 10> * xyz 0 1
| 11>   C                      -4.463582            -1.354472            0.559463
| 12>   O                      -5.340438            -2.213762            -0.128602
| 13>   H                      -6.211150            -1.951602            -0.000589
| 14>   H                      -4.627158            -1.465617            1.596524
| 15>   H                      -3.468846            -1.728514            0.454134
| 16>   H                      -4.436178            -0.307758            0.291256
| 17>   C                      -2.794217            -0.301711            -3.155988
| 18>   O                      -3.923334            -0.784241            -3.820213
| 19>   H                      -4.707109            -0.830497            -3.193386
| 20>   H                      -1.981174            -0.076518            -3.770836
| 21>   H                      -3.087698            0.587194             -2.615618
| 22>   H                      -2.514014            -0.911451            -2.360211
| 23> *
| 24>
| 25> #Run DFT-D3 single point of the molecule with dimer basis set
| 26> $new_job
| 27> %base "7-124_DFT_A"
| 28> ! wB97X-D3 def2-TZVP TIGHTSCF CHELPG PMODEL
| 29>
| 30> %scf
| 31> MaxIter 1000
| 32> end
| 33>
| 34> * xyz 0 1
| 35>   C                      -4.463582            -1.354472            0.559463
| 36>   O                      -5.340438            -2.213762            -0.128602
| 37>   H                      -6.211150            -1.951602            -0.000589
| 38>   H                      -4.627158            -1.465617            1.596524
| 39>   H                      -3.468846            -1.728514            0.454134
| 40>   H                      -4.436178            -0.307758            0.291256
| 41>   C                    : -2.794217            -0.301711            -3.155988
| 42>   O                    : -3.923334            -0.784241            -3.820213
| 43>   H                    : -4.707109            -0.830497            -3.193386
| 44>   H                    : -1.981174            -0.076518            -3.770836
| 45>   H                    : -3.087698            0.587194             -2.615618
| 46>   H                    : -2.514014            -0.911451            -2.360211
| 47> *
| 48>
| 49> #Run DFT-D3 single point of the particle with dimer basis set
| 50> $new_job
| 51> %base "7-124_DFT_B"
| 52> ! wB97X-D3 def2-TZVP TIGHTSCF CHELPG PMODEL
| 53>
| 54> %scf
| 55> MaxIter 1000
| 56> end
| 57>
| 58> * xyz 0 1
| 59>   C                    : -4.463582            -1.354472            0.559463
| 60>   O                    : -5.340438            -2.213762            -0.128602
| 61>   H                    : -6.211150            -1.951602            -0.000589
| 62>   H                    : -4.627158            -1.465617            1.596524
| 63>   H                    : -3.468846            -1.728514            0.454134
| 64>   H                    : -4.436178            -0.307758            0.291256
| 65>   C                      -2.794217            -0.301711            -3.155988
| 66>   O                      -3.923334            -0.784241            -3.820213
| 67>   H                      -4.707109            -0.830497            -3.193386
| 68>   H                      -1.981174            -0.076518            -3.770836
| 69>   H                      -3.087698            0.587194             -2.615618
| 70>   H                      -2.514014            -0.911451            -2.360211
| 71> *
| 72>
| 73>                          ****END OF INPUT****
 Total Charge           Charge          ....    0
 Multiplicity           Mult            ....    1
 Number of Electrons    NEL             ....   36
Dispersion correction           -0.001530335
FINAL SINGLE POINT ENERGY      -231.460409611051
Dispersion correction           -0.000239403
FINAL SINGLE POINT ENERGY      -115.731763883145

CARTESIAN COORDINATES (ANGSTROEM)
---------------------------------
  C     -4.463582   -1.354472    0.559463
  O     -5.340438   -2.213762   -0.128602
  H     -6.211150   -1.951602   -0.000589
  H     -4.627158   -1.465617    1.596524
  H     -3.468846   -1.728514    0.454134
  H     -4.436178   -0.307758    0.291256
  C     -2.794217   -0.301711   -3.155988
  O     -3.923334   -0.784241   -3.820213
  H     -4.707109   -0.830497   -3.193386
  H     -1.981174   -0.076518   -3.770836
  H     -3.087698    0.587194   -2.615618
  H     -2.514014   -0.911451   -2.360211

 Multiplicity           Mult            ....    1
 Number of Electrons    NEL             ....   18
 Basis Dimension        Dim             ....  172

ORBITAL ENERGIES
----------------

  NO   OCC          E(Eh)            E(eV)
   0   2.0000     -19.229787      -523.2691
   1   2.0000     -10.298098      -280.2255
   2   2.0000      -1.130862       -30.7723
   3   2.0000      -0.801246       -21.8030
   4   2.0000      -0.614203       -16.7133
   5   2.0000      -0.543819       -14.7981
   6   2.0000      -0.536387       -14.5958
   7   2.0000      -0.432397       -11.7661
   8   2.0000      -0.365474        -9.9451
   9   0.0000       0.068149         1.8544
  10   0.0000       0.122823         3.3422
  11   0.0000       0.141995         3.8639
  12   0.0000       0.175549         4.7769
  13   0.0000       0.179478         4.8838

MULLIKEN ATOMIC CHARGES
-----------------------
   0 C :    0.001320
   1 O :   -0.000092
   2 H :   -0.000005
   3 H :    0.000018
   4 H :   -0.000938
   5 H :   -0.000573
   6 C :   -0.161565
   7 O :   -0.487399
   8 H :    0.320314
   9 H :    0.130049
  10 H :    0.094439
  11 H :    0.104432
Sum of atomic charges:   -0.0000000

LOEWDIN ATOMIC CHARGES
----------------------
   0 C :   -0.001316
   1 O :   -0.000282
   2 H :   -0.000074
   3 H :   -0.000015
   4 H :   -0.000637
   5 H :   -0.000309
   6 C :   -0.386350
   7 O :   -0.085561
   8 H :    0.196135
   9 H :    0.098984
  10 H :    0.095127
  11 H :    0.084297

  Mayer bond orders larger than 0.1
B(  6-C ,  7-O ) :   0.9913 B(  6-C ,  9-H ) :   0.9707 B(  6-C , 10-H ) :   0.9919
B(  6-C , 11-H ) :   0.9770 B(  7-O ,  8-H ) :   0.8892

Dispersion correction           -0.000215133
FINAL SINGLE POINT ENERGY      -115.726736059702

DIPOLE MOMENT
-------------
                                X             Y             Z
Electronic contribution:     -1.22690      -0.71020      -1.12722
Nuclear contribution   :      1.19497       0.88056       1.80025
                        -----------------------------------------
Total Dipole Moment    :     -0.03193       0.17036       0.67303
                        -----------------------------------------
Magnitude (a.u.)       :      0.69499
Magnitude (Debye)      :      1.76653

Rotational constants in cm-1:     4.540080     0.855815     0.812601
Rotational constants in MHz : 136108.167538 25656.673322 24361.177151

                             ****ORCA TERMINATED NORMALLY****
TOTAL RUN TIME: 0 days 0 hours 1 minutes 13 seconds 186 msec
