                         Program Version 4.1.2  - RELEASE  -
|  1> #Run DFT-D3 single point of the dimer
|  2> ! wB97X-D3 def2-TZVP TIGHTSCF CHELPG PMODEL PAL8
|  3>
|  4> %base "4-91_DFT_AB"
|  5>
|  6> %scf
|  7> MaxIter 1000
|  8> end
|  9>
| 10> * xyz 0 1
| 11>   C                      8.138163             2.013779             8.440012
| 12>   O                      8.449880             2.296050             7.073773
| 13>   H                      8.958610             1.573154             6.754095
| 14>   H                      7.680784             2.922407             8.860548
| 15>   H                      7.458505             1.109173             8.484702
| 16>   H                      9.035666             1.771950             8.988343
| 17>   C                      8.255847             5.488541             10.299540
| 18>   O                      9.442645             6.034434             9.838156
| 19>   H                      9.223365             6.371996             8.952072
| 20>   H                      7.598278             6.351766             10.589711
| 21>   H                      7.655956             4.927146             9.615797
| 22>   H                      8.317550             4.875409             11.204083
| 23> *
| 24>
| 25> #Run DFT-D3 single point of the molecule with dimer basis set
| 26> $new_job
| 27> %base "4-91_DFT_A"
| 28> ! wB97X-D3 def2-TZVP TIGHTSCF CHELPG PMODEL
| 29>
| 30> %scf
| 31> MaxIter 1000
| 32> end
| 33>
| 34> * xyz 0 1
| 35>   C                      8.138163             2.013779             8.440012
| 36>   O                      8.449880             2.296050             7.073773
| 37>   H                      8.958610             1.573154             6.754095
| 38>   H                      7.680784             2.922407             8.860548
| 39>   H                      7.458505             1.109173             8.484702
| 40>   H                      9.035666             1.771950             8.988343
| 41>   C                    : 8.255847             5.488541             10.299540
| 42>   O                    : 9.442645             6.034434             9.838156
| 43>   H                    : 9.223365             6.371996             8.952072
| 44>   H                    : 7.598278             6.351766             10.589711
| 45>   H                    : 7.655956             4.927146             9.615797
| 46>   H                    : 8.317550             4.875409             11.204083
| 47> *
| 48>
| 49> #Run DFT-D3 single point of the particle with dimer basis set
| 50> $new_job
| 51> %base "4-91_DFT_B"
| 52> ! wB97X-D3 def2-TZVP TIGHTSCF CHELPG PMODEL
| 53>
| 54> %scf
| 55> MaxIter 1000
| 56> end
| 57>
| 58> * xyz 0 1
| 59>   C                    : 8.138163             2.013779             8.440012
| 60>   O                    : 8.449880             2.296050             7.073773
| 61>   H                    : 8.958610             1.573154             6.754095
| 62>   H                    : 7.680784             2.922407             8.860548
| 63>   H                    : 7.458505             1.109173             8.484702
| 64>   H                    : 9.035666             1.771950             8.988343
| 65>   C                      8.255847             5.488541             10.299540
| 66>   O                      9.442645             6.034434             9.838156
| 67>   H                      9.223365             6.371996             8.952072
| 68>   H                      7.598278             6.351766             10.589711
| 69>   H                      7.655956             4.927146             9.615797
| 70>   H                      8.317550             4.875409             11.204083
| 71> *
| 72>
| 73>                          ****END OF INPUT****
 Total Charge           Charge          ....    0
 Multiplicity           Mult            ....    1
 Number of Electrons    NEL             ....   36
Dispersion correction           -0.001395867
FINAL SINGLE POINT ENERGY      -231.466272370421
Dispersion correction           -0.000231342
FINAL SINGLE POINT ENERGY      -115.735251290672

CARTESIAN COORDINATES (ANGSTROEM)
---------------------------------
  C      8.138163    2.013779    8.440012
  O      8.449880    2.296050    7.073773
  H      8.958610    1.573154    6.754095
  H      7.680784    2.922407    8.860548
  H      7.458505    1.109173    8.484702
  H      9.035666    1.771950    8.988343
  C      8.255847    5.488541   10.299540
  O      9.442645    6.034434    9.838156
  H      9.223365    6.371996    8.952072
  H      7.598278    6.351766   10.589711
  H      7.655956    4.927146    9.615797
  H      8.317550    4.875409   11.204083

 Multiplicity           Mult            ....    1
 Number of Electrons    NEL             ....   18
 Basis Dimension        Dim             ....  172

ORBITAL ENERGIES
----------------

  NO   OCC          E(Eh)            E(eV)
   0   2.0000     -19.235781      -523.4322
   1   2.0000     -10.310690      -280.5681
   2   2.0000      -1.147426       -31.2230
   3   2.0000      -0.793498       -21.5922
   4   2.0000      -0.619249       -16.8506
   5   2.0000      -0.539600       -14.6833
   6   2.0000      -0.532666       -14.4946
   7   2.0000      -0.438313       -11.9271
   8   2.0000      -0.368752       -10.0342
   9   0.0000       0.084976         2.3123
  10   0.0000       0.117085         3.1860
  11   0.0000       0.148520         4.0414
  12   0.0000       0.178574         4.8592
  13   0.0000       0.181298         4.9334

MULLIKEN ATOMIC CHARGES
-----------------------
   0 C :    0.002723
   1 O :   -0.000280
   2 H :   -0.000016
   3 H :   -0.002208
   4 H :    0.000224
   5 H :   -0.000312
   6 C :   -0.180483
   7 O :   -0.458637
   8 H :    0.320627
   9 H :    0.096137
  10 H :    0.105064
  11 H :    0.117161
Sum of atomic charges:    0.0000000

LOEWDIN ATOMIC CHARGES
----------------------
   0 C :   -0.002676
   1 O :   -0.000010
   2 H :   -0.000002
   3 H :   -0.008452
   4 H :   -0.000006
   5 H :   -0.000063
   6 C :   -0.415065
   7 O :   -0.057236
   8 H :    0.185042
   9 H :    0.098817
  10 H :    0.091119
  11 H :    0.108533

  Mayer bond orders larger than 0.1
B(  6-C ,  7-O ) :   0.9996 B(  6-C ,  9-H ) :   0.9821 B(  6-C , 10-H ) :   0.9719
B(  6-C , 11-H ) :   0.9741 B(  7-O ,  8-H ) :   0.8941

Dispersion correction           -0.000227837
FINAL SINGLE POINT ENERGY      -115.730413550536

DIPOLE MOMENT
-------------
                                X             Y             Z
Electronic contribution:      1.82992       0.54025      -0.56607
Nuclear contribution   :     -2.40208      -0.54987       0.17547
                        -----------------------------------------
Total Dipole Moment    :     -0.57216      -0.00962      -0.39059
                        -----------------------------------------
Magnitude (a.u.)       :      0.69284
Magnitude (Debye)      :      1.76106

Rotational constants in cm-1:     4.387757     0.852497     0.818814
Rotational constants in MHz : 131541.652807 25557.223386 24547.436133

                             ****ORCA TERMINATED NORMALLY****
TOTAL RUN TIME: 0 days 0 hours 1 minutes 31 seconds 485 msec
