                         Program Version 4.1.2  - RELEASE  -
|  1> #Run DFT-D3 single point of the dimer
|  2> ! wB97X-D3 def2-TZVP TIGHTSCF CHELPG PMODEL PAL8
|  3>
|  4> %base "15-200_DFT_AB"
|  5>
|  6> %scf
|  7> MaxIter 1000
|  8> end
|  9>
| 10> * xyz 0 1
| 11>   C                      4.213219             6.390561             -7.710729
| 12>   O                      4.760920             5.928539             -6.468823
| 13>   H                      4.182617             6.120073             -5.792908
| 14>   H                      4.909156             6.099919             -8.450513
| 15>   H                      3.268754             5.973161             -7.900404
| 16>   H                      4.083967             7.469272             -7.787671
| 17>   C                      5.802662             8.664042             -3.684977
| 18>   O                      6.585083             7.552426             -4.210731
| 19>   H                      5.950644             7.130417             -4.798706
| 20>   H                      6.455174             9.455196             -3.423040
| 21>   H                      5.071348             9.050916             -4.434736
| 22>   H                      5.290646             8.418091             -2.811630
| 23> *
| 24>
| 25> #Run DFT-D3 single point of the molecule with dimer basis set
| 26> $new_job
| 27> %base "15-200_DFT_A"
| 28> ! wB97X-D3 def2-TZVP TIGHTSCF CHELPG PMODEL
| 29>
| 30> %scf
| 31> MaxIter 1000
| 32> end
| 33>
| 34> * xyz 0 1
| 35>   C                      4.213219             6.390561             -7.710729
| 36>   O                      4.760920             5.928539             -6.468823
| 37>   H                      4.182617             6.120073             -5.792908
| 38>   H                      4.909156             6.099919             -8.450513
| 39>   H                      3.268754             5.973161             -7.900404
| 40>   H                      4.083967             7.469272             -7.787671
| 41>   C                    : 5.802662             8.664042             -3.684977
| 42>   O                    : 6.585083             7.552426             -4.210731
| 43>   H                    : 5.950644             7.130417             -4.798706
| 44>   H                    : 6.455174             9.455196             -3.423040
| 45>   H                    : 5.071348             9.050916             -4.434736
| 46>   H                    : 5.290646             8.418091             -2.811630
| 47> *
| 48>
| 49> #Run DFT-D3 single point of the particle with dimer basis set
| 50> $new_job
| 51> %base "15-200_DFT_B"
| 52> ! wB97X-D3 def2-TZVP TIGHTSCF CHELPG PMODEL
| 53>
| 54> %scf
| 55> MaxIter 1000
| 56> end
| 57>
| 58> * xyz 0 1
| 59>   C                    : 4.213219             6.390561             -7.710729
| 60>   O                    : 4.760920             5.928539             -6.468823
| 61>   H                    : 4.182617             6.120073             -5.792908
| 62>   H                    : 4.909156             6.099919             -8.450513
| 63>   H                    : 3.268754             5.973161             -7.900404
| 64>   H                    : 4.083967             7.469272             -7.787671
| 65>   C                      5.802662             8.664042             -3.684977
| 66>   O                      6.585083             7.552426             -4.210731
| 67>   H                      5.950644             7.130417             -4.798706
| 68>   H                      6.455174             9.455196             -3.423040
| 69>   H                      5.071348             9.050916             -4.434736
| 70>   H                      5.290646             8.418091             -2.811630
| 71> *
| 72>
| 73>                          ****END OF INPUT****
 Total Charge           Charge          ....    0
 Multiplicity           Mult            ....    1
 Number of Electrons    NEL             ....   36
Dispersion correction           -0.001506604
FINAL SINGLE POINT ENERGY      -231.467204125600
Dispersion correction           -0.000239143
FINAL SINGLE POINT ENERGY      -115.732706384942

CARTESIAN COORDINATES (ANGSTROEM)
---------------------------------
  C      4.213219    6.390561   -7.710729
  O      4.760920    5.928539   -6.468823
  H      4.182617    6.120073   -5.792908
  H      4.909156    6.099919   -8.450513
  H      3.268754    5.973161   -7.900404
  H      4.083967    7.469272   -7.787671
  C      5.802662    8.664042   -3.684977
  O      6.585083    7.552426   -4.210731
  H      5.950644    7.130417   -4.798706
  H      6.455174    9.455196   -3.423040
  H      5.071348    9.050916   -4.434736
  H      5.290646    8.418091   -2.811630

 Multiplicity           Mult            ....    1
 Number of Electrons    NEL             ....   18
 Basis Dimension        Dim             ....  172

ORBITAL ENERGIES
----------------

  NO   OCC          E(Eh)            E(eV)
   0   2.0000     -19.232114      -523.3324
   1   2.0000     -10.309376      -280.5324
   2   2.0000      -1.126602       -30.6564
   3   2.0000      -0.801551       -21.8113
   4   2.0000      -0.601636       -16.3713
   5   2.0000      -0.542515       -14.7626
   6   2.0000      -0.523765       -14.2524
   7   2.0000      -0.444573       -12.0975
   8   2.0000      -0.377288       -10.2665
   9   0.0000       0.069200         1.8830
  10   0.0000       0.126980         3.4553
  11   0.0000       0.148425         4.0388
  12   0.0000       0.175811         4.7841
  13   0.0000       0.186866         5.0849

MULLIKEN ATOMIC CHARGES
-----------------------
   0 C :   -0.000683
   1 O :    0.000264
   2 H :   -0.001865
   3 H :    0.000104
   4 H :   -0.000019
   5 H :    0.000063
   6 C :   -0.182071
   7 O :   -0.470014
   8 H :    0.309135
   9 H :    0.124718
  10 H :    0.106231
  11 H :    0.114137
Sum of atomic charges:    0.0000000

LOEWDIN ATOMIC CHARGES
----------------------
   0 C :   -0.000809
   1 O :   -0.005754
   2 H :   -0.003264
   3 H :   -0.000011
   4 H :   -0.000019
   5 H :   -0.000062
   6 C :   -0.348289
   7 O :   -0.101534
   8 H :    0.170924
   9 H :    0.099910
  10 H :    0.103408
  11 H :    0.085501

  Mayer bond orders larger than 0.1
B(  6-C ,  7-O ) :   0.9917 B(  6-C ,  9-H ) :   0.9777 B(  6-C , 10-H ) :   0.9811
B(  6-C , 11-H ) :   0.9728 B(  7-O ,  8-H ) :   0.9143

Dispersion correction           -0.000241997
FINAL SINGLE POINT ENERGY      -115.731795955037

DIPOLE MOMENT
-------------
                                X             Y             Z
Electronic contribution:      1.11427      -1.37002      -0.51586
Nuclear contribution   :     -1.82326       1.58163       0.38438
                        -----------------------------------------
Total Dipole Moment    :     -0.70899       0.21161      -0.13149
                        -----------------------------------------
Magnitude (a.u.)       :      0.75148
Magnitude (Debye)      :      1.91012

Rotational constants in cm-1:     4.380181     0.802673     0.768334
Rotational constants in MHz : 131314.514677 24063.531799 23034.067429

                             ****ORCA TERMINATED NORMALLY****
TOTAL RUN TIME: 0 days 0 hours 0 minutes 59 seconds 281 msec
