                         Program Version 4.1.2  - RELEASE  -
|  1> #Run DFT-D3 single point of the dimer
|  2> ! wB97X-D3 def2-TZVP TIGHTSCF CHELPG PMODEL PAL8
|  3>
|  4> %base "12-80_DFT_AB"
|  5>
|  6> %scf
|  7> MaxIter 1000
|  8> end
|  9>
| 10> * xyz 0 1
| 11>   C                      -4.658780            -2.037883            7.649658
| 12>   O                      -5.337638            -1.572166            6.540238
| 13>   H                      -6.235660            -1.469603            6.901389
| 14>   H                      -3.612432            -1.652803            7.614765
| 15>   H                      -5.188026            -1.588476            8.460927
| 16>   H                      -4.629709            -3.094023            7.716798
| 17>   C                      -8.330021            -3.936850            9.780098
| 18>   O                      -7.082873            -4.366825            9.301597
| 19>   H                      -6.330123            -4.091510            9.880843
| 20>   H                      -9.113728            -4.603709            9.450616
| 21>   H                      -8.289771            -4.009567            10.862791
| 22>   H                      -8.578552            -2.883557            9.468591
| 23> *
| 24>
| 25> #Run DFT-D3 single point of the molecule with dimer basis set
| 26> $new_job
| 27> %base "12-80_DFT_A"
| 28> ! wB97X-D3 def2-TZVP TIGHTSCF CHELPG PMODEL
| 29>
| 30> %scf
| 31> MaxIter 1000
| 32> end
| 33>
| 34> * xyz 0 1
| 35>   C                      -4.658780            -2.037883            7.649658
| 36>   O                      -5.337638            -1.572166            6.540238
| 37>   H                      -6.235660            -1.469603            6.901389
| 38>   H                      -3.612432            -1.652803            7.614765
| 39>   H                      -5.188026            -1.588476            8.460927
| 40>   H                      -4.629709            -3.094023            7.716798
| 41>   C                    : -8.330021            -3.936850            9.780098
| 42>   O                    : -7.082873            -4.366825            9.301597
| 43>   H                    : -6.330123            -4.091510            9.880843
| 44>   H                    : -9.113728            -4.603709            9.450616
| 45>   H                    : -8.289771            -4.009567            10.862791
| 46>   H                    : -8.578552            -2.883557            9.468591
| 47> *
| 48>
| 49> #Run DFT-D3 single point of the particle with dimer basis set
| 50> $new_job
| 51> %base "12-80_DFT_B"
| 52> ! wB97X-D3 def2-TZVP TIGHTSCF CHELPG PMODEL
| 53>
| 54> %scf
| 55> MaxIter 1000
| 56> end
| 57>
| 58> * xyz 0 1
| 59>   C                    : -4.658780            -2.037883            7.649658
| 60>   O                    : -5.337638            -1.572166            6.540238
| 61>   H                    : -6.235660            -1.469603            6.901389
| 62>   H                    : -3.612432            -1.652803            7.614765
| 63>   H                    : -5.188026            -1.588476            8.460927
| 64>   H                    : -4.629709            -3.094023            7.716798
| 65>   C                      -8.330021            -3.936850            9.780098
| 66>   O                      -7.082873            -4.366825            9.301597
| 67>   H                      -6.330123            -4.091510            9.880843
| 68>   H                      -9.113728            -4.603709            9.450616
| 69>   H                      -8.289771            -4.009567            10.862791
| 70>   H                      -8.578552            -2.883557            9.468591
| 71> *
| 72>
| 73>                          ****END OF INPUT****
 Total Charge           Charge          ....    0
 Multiplicity           Mult            ....    1
 Number of Electrons    NEL             ....   36
Dispersion correction           -0.001430569
FINAL SINGLE POINT ENERGY      -231.463009466001
Dispersion correction           -0.000197371
FINAL SINGLE POINT ENERGY      -115.728065542904

CARTESIAN COORDINATES (ANGSTROEM)
---------------------------------
  C     -4.658780   -2.037883    7.649658
  O     -5.337638   -1.572166    6.540238
  H     -6.235660   -1.469603    6.901389
  H     -3.612432   -1.652803    7.614765
  H     -5.188026   -1.588476    8.460927
  H     -4.629709   -3.094023    7.716798
  C     -8.330021   -3.936850    9.780098
  O     -7.082873   -4.366825    9.301597
  H     -6.330123   -4.091510    9.880843
  H     -9.113728   -4.603709    9.450616
  H     -8.289771   -4.009567   10.862791
  H     -8.578552   -2.883557    9.468591

 Multiplicity           Mult            ....    1
 Number of Electrons    NEL             ....   18
 Basis Dimension        Dim             ....  172

ORBITAL ENERGIES
----------------

  NO   OCC          E(Eh)            E(eV)
   0   2.0000     -19.230153      -523.2791
   1   2.0000     -10.313595      -280.6472
   2   2.0000      -1.131380       -30.7864
   3   2.0000      -0.793323       -21.5874
   4   2.0000      -0.608601       -16.5609
   5   2.0000      -0.541468       -14.7341
   6   2.0000      -0.534005       -14.5310
   7   2.0000      -0.423159       -11.5147
   8   2.0000      -0.371558       -10.1106
   9   0.0000       0.085344         2.3223
  10   0.0000       0.125269         3.4087
  11   0.0000       0.147003         4.0002
  12   0.0000       0.173599         4.7239
  13   0.0000       0.191993         5.2244

MULLIKEN ATOMIC CHARGES
-----------------------
   0 C :   -0.002643
   1 O :    0.000210
   2 H :   -0.000333
   3 H :   -0.000446
   4 H :   -0.001802
   5 H :   -0.001887
   6 C :   -0.153916
   7 O :   -0.481822
   8 H :    0.323724
   9 H :    0.121358
  10 H :    0.102918
  11 H :    0.094639
Sum of atomic charges:    0.0000000

LOEWDIN ATOMIC CHARGES
----------------------
   0 C :   -0.005034
   1 O :   -0.000024
   2 H :   -0.000243
   3 H :   -0.000090
   4 H :   -0.001141
   5 H :   -0.002316
   6 C :   -0.392611
   7 O :   -0.081666
   8 H :    0.185943
   9 H :    0.104171
  10 H :    0.094302
  11 H :    0.098708

  Mayer bond orders larger than 0.1
B(  6-C ,  7-O ) :   1.0054 B(  6-C ,  9-H ) :   0.9708 B(  6-C , 10-H ) :   0.9890
B(  6-C , 11-H ) :   0.9693 B(  7-O ,  8-H ) :   0.8871

Dispersion correction           -0.000246037
FINAL SINGLE POINT ENERGY      -115.733754941038

DIPOLE MOMENT
-------------
                                X             Y             Z
Electronic contribution:      1.47464      -0.62457      -0.74832
Nuclear contribution   :     -1.50150       0.93287       1.33768
                        -----------------------------------------
Total Dipole Moment    :     -0.02687       0.30830       0.58936
                        -----------------------------------------
Magnitude (a.u.)       :      0.66567
Magnitude (Debye)      :      1.69200

Rotational constants in cm-1:     4.264189     0.832960     0.809627
Rotational constants in MHz : 127837.166761 24971.516935 24272.006235

                             ****ORCA TERMINATED NORMALLY****
TOTAL RUN TIME: 0 days 0 hours 1 minutes 8 seconds 546 msec
