                         Program Version 4.1.2  - RELEASE  -
|  1> #Run DFT-D3 single point of the dimer
|  2> ! wB97X-D3 def2-TZVP TIGHTSCF CHELPG PMODEL PAL8
|  3>
|  4> %base "3-110_DFT_AB"
|  5>
|  6> %scf
|  7> MaxIter 1000
|  8> end
|  9>
| 10> * xyz 0 1
| 11>   C                      0.989700             0.103803             9.865704
| 12>   O                      1.265327             0.630240             11.214209
| 13>   H                      0.451374             1.012931             11.587193
| 14>   H                      0.426579             -0.844866            9.908428
| 15>   H                      0.413281             0.719244             9.217680
| 16>   H                      1.945017             -0.202523            9.432650
| 17>   C                      3.223815             -1.120758            5.515775
| 18>   O                      2.667111             -0.042912            6.132013
| 19>   H                      1.858254             0.090101             5.682670
| 20>   H                      3.470362             -1.950153            6.248320
| 21>   H                      2.540332             -1.571278            4.775863
| 22>   H                      4.135189             -0.855422            5.051932
| 23> *
| 24>
| 25> #Run DFT-D3 single point of the molecule with dimer basis set
| 26> $new_job
| 27> %base "3-110_DFT_A"
| 28> ! wB97X-D3 def2-TZVP TIGHTSCF CHELPG PMODEL
| 29>
| 30> %scf
| 31> MaxIter 1000
| 32> end
| 33>
| 34> * xyz 0 1
| 35>   C                      0.989700             0.103803             9.865704
| 36>   O                      1.265327             0.630240             11.214209
| 37>   H                      0.451374             1.012931             11.587193
| 38>   H                      0.426579             -0.844866            9.908428
| 39>   H                      0.413281             0.719244             9.217680
| 40>   H                      1.945017             -0.202523            9.432650
| 41>   C                    : 3.223815             -1.120758            5.515775
| 42>   O                    : 2.667111             -0.042912            6.132013
| 43>   H                    : 1.858254             0.090101             5.682670
| 44>   H                    : 3.470362             -1.950153            6.248320
| 45>   H                    : 2.540332             -1.571278            4.775863
| 46>   H                    : 4.135189             -0.855422            5.051932
| 47> *
| 48>
| 49> #Run DFT-D3 single point of the particle with dimer basis set
| 50> $new_job
| 51> %base "3-110_DFT_B"
| 52> ! wB97X-D3 def2-TZVP TIGHTSCF CHELPG PMODEL
| 53>
| 54> %scf
| 55> MaxIter 1000
| 56> end
| 57>
| 58> * xyz 0 1
| 59>   C                    : 0.989700             0.103803             9.865704
| 60>   O                    : 1.265327             0.630240             11.214209
| 61>   H                    : 0.451374             1.012931             11.587193
| 62>   H                    : 0.426579             -0.844866            9.908428
| 63>   H                    : 0.413281             0.719244             9.217680
| 64>   H                    : 1.945017             -0.202523            9.432650
| 65>   C                      3.223815             -1.120758            5.515775
| 66>   O                      2.667111             -0.042912            6.132013
| 67>   H                      1.858254             0.090101             5.682670
| 68>   H                      3.470362             -1.950153            6.248320
| 69>   H                      2.540332             -1.571278            4.775863
| 70>   H                      4.135189             -0.855422            5.051932
| 71> *
| 72>
| 73>                          ****END OF INPUT****
 Total Charge           Charge          ....    0
 Multiplicity           Mult            ....    1
 Number of Electrons    NEL             ....   36
Dispersion correction           -0.001016264
FINAL SINGLE POINT ENERGY      -231.463005014657
Dispersion correction           -0.000282072
FINAL SINGLE POINT ENERGY      -115.731753195835

CARTESIAN COORDINATES (ANGSTROEM)
---------------------------------
  C      0.989700    0.103803    9.865704
  O      1.265327    0.630240   11.214209
  H      0.451374    1.012931   11.587193
  H      0.426579   -0.844866    9.908428
  H      0.413281    0.719244    9.217680
  H      1.945017   -0.202523    9.432650
  C      3.223815   -1.120758    5.515775
  O      2.667111   -0.042912    6.132013
  H      1.858254    0.090101    5.682670
  H      3.470362   -1.950153    6.248320
  H      2.540332   -1.571278    4.775863
  H      4.135189   -0.855422    5.051932

 Multiplicity           Mult            ....    1
 Number of Electrons    NEL             ....   18
 Basis Dimension        Dim             ....  172

ORBITAL ENERGIES
----------------

  NO   OCC          E(Eh)            E(eV)
   0   2.0000     -19.229622      -523.2646
   1   2.0000     -10.309571      -280.5377
   2   2.0000      -1.162744       -31.6399
   3   2.0000      -0.793607       -21.5951
   4   2.0000      -0.626363       -17.0442
   5   2.0000      -0.549625       -14.9560
   6   2.0000      -0.534528       -14.5453
   7   2.0000      -0.434300       -11.8179
   8   2.0000      -0.371242       -10.1020
   9   0.0000       0.091790         2.4977
  10   0.0000       0.115925         3.1545
  11   0.0000       0.157119         4.2754
  12   0.0000       0.169726         4.6185
  13   0.0000       0.197604         5.3771

MULLIKEN ATOMIC CHARGES
-----------------------
   0 C :   -0.000580
   1 O :   -0.000052
   2 H :   -0.000008
   3 H :   -0.000006
   4 H :   -0.000324
   5 H :   -0.002124
   6 C :   -0.162136
   7 O :   -0.446219
   8 H :    0.314995
   9 H :    0.095900
  10 H :    0.095797
  11 H :    0.104757
Sum of atomic charges:   -0.0000000

LOEWDIN ATOMIC CHARGES
----------------------
   0 C :   -0.002071
   1 O :   -0.000017
   2 H :   -0.000007
   3 H :   -0.000023
   4 H :   -0.000279
   5 H :   -0.001731
   6 C :   -0.426537
   7 O :   -0.021706
   8 H :    0.161811
   9 H :    0.104576
  10 H :    0.097102
  11 H :    0.088880

  Mayer bond orders larger than 0.1
B(  6-C ,  7-O ) :   1.0161 B(  6-C ,  9-H ) :   0.9752 B(  6-C , 10-H ) :   0.9906
B(  6-C , 11-H ) :   0.9767 B(  7-O ,  8-H ) :   0.9046

Dispersion correction           -0.000219620
FINAL SINGLE POINT ENERGY      -115.730576964311

DIPOLE MOMENT
-------------
                                X             Y             Z
Electronic contribution:     -0.64475       1.56409       0.86040
Nuclear contribution   :      0.30860      -1.85078      -1.39956
                        -----------------------------------------
Total Dipole Moment    :     -0.33615      -0.28669      -0.53917
                        -----------------------------------------
Magnitude (a.u.)       :      0.69706
Magnitude (Debye)      :      1.77178

Rotational constants in cm-1:     4.315765     0.889508     0.852888
Rotational constants in MHz : 129383.381769 26666.783036 25568.947621

                             ****ORCA TERMINATED NORMALLY****
TOTAL RUN TIME: 0 days 0 hours 5 minutes 59 seconds 338 msec
