                         Program Version 4.1.2  - RELEASE  -
|  1> #Run DFT-D3 single point of the dimer
|  2> ! wB97X-D3 def2-TZVP TIGHTSCF CHELPG PMODEL PAL8
|  3>
|  4> %base "2-45_DFT_AB"
|  5>
|  6> %scf
|  7> MaxIter 1000
|  8> end
|  9>
| 10> * xyz 0 1
| 11>   C                      -10.786374           -2.434926            6.102013
| 12>   O                      -9.534967            -2.920032            6.721126
| 13>   H                      -9.546065            -3.876163            6.859019
| 14>   H                      -10.700096           -1.362841            6.063289
| 15>   H                      -10.879818           -2.671802            5.082183
| 16>   H                      -11.722517           -2.729585            6.503359
| 17>   C                      -10.888424           -2.593742            9.576241
| 18>   O                      -11.039186           -1.783744            10.778620
| 19>   H                      -10.651474           -2.222302            11.529111
| 20>   H                      -10.927990           -3.661191            9.777193
| 21>   H                      -11.734618           -2.305312            9.000348
| 22>   H                      -10.041839           -2.317318            8.927686
| 23> *
| 24>
| 25> #Run DFT-D3 single point of the molecule with dimer basis set
| 26> $new_job
| 27> %base "2-45_DFT_A"
| 28> ! wB97X-D3 def2-TZVP TIGHTSCF CHELPG PMODEL
| 29>
| 30> %scf
| 31> MaxIter 1000
| 32> end
| 33>
| 34> * xyz 0 1
| 35>   C                      -10.786374           -2.434926            6.102013
| 36>   O                      -9.534967            -2.920032            6.721126
| 37>   H                      -9.546065            -3.876163            6.859019
| 38>   H                      -10.700096           -1.362841            6.063289
| 39>   H                      -10.879818           -2.671802            5.082183
| 40>   H                      -11.722517           -2.729585            6.503359
| 41>   C                    : -10.888424           -2.593742            9.576241
| 42>   O                    : -11.039186           -1.783744            10.778620
| 43>   H                    : -10.651474           -2.222302            11.529111
| 44>   H                    : -10.927990           -3.661191            9.777193
| 45>   H                    : -11.734618           -2.305312            9.000348
| 46>   H                    : -10.041839           -2.317318            8.927686
| 47> *
| 48>
| 49> #Run DFT-D3 single point of the particle with dimer basis set
| 50> $new_job
| 51> %base "2-45_DFT_B"
| 52> ! wB97X-D3 def2-TZVP TIGHTSCF CHELPG PMODEL
| 53>
| 54> %scf
| 55> MaxIter 1000
| 56> end
| 57>
| 58> * xyz 0 1
| 59>   C                    : -10.786374           -2.434926            6.102013
| 60>   O                    : -9.534967            -2.920032            6.721126
| 61>   H                    : -9.546065            -3.876163            6.859019
| 62>   H                    : -10.700096           -1.362841            6.063289
| 63>   H                    : -10.879818           -2.671802            5.082183
| 64>   H                    : -11.722517           -2.729585            6.503359
| 65>   C                      -10.888424           -2.593742            9.576241
| 66>   O                      -11.039186           -1.783744            10.778620
| 67>   H                      -10.651474           -2.222302            11.529111
| 68>   H                      -10.927990           -3.661191            9.777193
| 69>   H                      -11.734618           -2.305312            9.000348
| 70>   H                      -10.041839           -2.317318            8.927686
| 71> *
| 72>
| 73>                          ****END OF INPUT****
 Total Charge           Charge          ....    0
 Multiplicity           Mult            ....    1
 Number of Electrons    NEL             ....   36
Dispersion correction           -0.002119730
FINAL SINGLE POINT ENERGY      -231.461650488421
Dispersion correction           -0.000293167
FINAL SINGLE POINT ENERGY      -115.728324004084

CARTESIAN COORDINATES (ANGSTROEM)
---------------------------------
  C    -10.786374   -2.434926    6.102013
  O     -9.534967   -2.920032    6.721126
  H     -9.546065   -3.876163    6.859019
  H    -10.700096   -1.362841    6.063289
  H    -10.879818   -2.671802    5.082183
  H    -11.722517   -2.729585    6.503359
  C    -10.888424   -2.593742    9.576241
  O    -11.039186   -1.783744   10.778620
  H    -10.651474   -2.222302   11.529111
  H    -10.927990   -3.661191    9.777193
  H    -11.734618   -2.305312    9.000348
  H    -10.041839   -2.317318    8.927686

 Multiplicity           Mult            ....    1
 Number of Electrons    NEL             ....   18
 Basis Dimension        Dim             ....  172

ORBITAL ENERGIES
----------------

  NO   OCC          E(Eh)            E(eV)
   0   2.0000     -19.227850      -523.2164
   1   2.0000     -10.313119      -280.6342
   2   2.0000      -1.122844       -30.5541
   3   2.0000      -0.801768       -21.8172
   4   2.0000      -0.605181       -16.4678
   5   2.0000      -0.538329       -14.6487
   6   2.0000      -0.519971       -14.1491
   7   2.0000      -0.437141       -11.8952
   8   2.0000      -0.374492       -10.1904
   9   0.0000       0.083076         2.2606
  10   0.0000       0.117410         3.1949
  11   0.0000       0.152324         4.1449
  12   0.0000       0.170793         4.6475
  13   0.0000       0.180785         4.9194

MULLIKEN ATOMIC CHARGES
-----------------------
   0 C :   -0.004087
   1 O :    0.000538
   2 H :   -0.000462
   3 H :    0.000785
   4 H :   -0.000064
   5 H :    0.000415
   6 C :   -0.171843
   7 O :   -0.484975
   8 H :    0.310954
   9 H :    0.112983
  10 H :    0.128385
  11 H :    0.107373
Sum of atomic charges:    0.0000000

LOEWDIN ATOMIC CHARGES
----------------------
   0 C :   -0.009321
   1 O :   -0.009188
   2 H :   -0.001931
   3 H :   -0.000403
   4 H :   -0.000079
   5 H :   -0.002497
   6 C :   -0.344736
   7 O :   -0.101816
   8 H :    0.156643
   9 H :    0.098323
  10 H :    0.107383
  11 H :    0.107621

  Mayer bond orders larger than 0.1
B(  6-C ,  7-O ) :   0.9955 B(  6-C ,  9-H ) :   0.9722 B(  6-C , 10-H ) :   0.9779
B(  6-C , 11-H ) :   0.9690 B(  7-O ,  8-H ) :   0.9036

Dispersion correction           -0.000271841
FINAL SINGLE POINT ENERGY      -115.732517165856

DIPOLE MOMENT
-------------
                                X             Y             Z
Electronic contribution:     -0.15857       0.99147       1.45404
Nuclear contribution   :      0.44349      -1.61926      -1.48232
                        -----------------------------------------
Total Dipole Moment    :      0.28491      -0.62779      -0.02828
                        -----------------------------------------
Magnitude (a.u.)       :      0.68999
Magnitude (Debye)      :      1.75382

Rotational constants in cm-1:     4.406415     0.791965     0.763490
Rotational constants in MHz : 132100.992021 23742.505731 22888.855924

                             ****ORCA TERMINATED NORMALLY****
TOTAL RUN TIME: 0 days 0 hours 5 minutes 51 seconds 190 msec
