                         Program Version 4.1.2  - RELEASE  -
|  1> #Run DFT-D3 single point of the dimer
|  2> ! wB97X-D3 def2-TZVP TIGHTSCF CHELPG PMODEL PAL8
|  3>
|  4> %base "17-88_DFT_AB"
|  5>
|  6> %scf
|  7> MaxIter 1000
|  8> end
|  9>
| 10> * xyz 0 1
| 11>   C                      6.352193             4.195746             -4.190666
| 12>   O                      5.100575             4.500113             -4.616961
| 13>   H                      4.495087             4.304367             -3.860152
| 14>   H                      7.093230             4.700914             -4.815245
| 15>   H                      6.551793             4.589563             -3.174605
| 16>   H                      6.623159             3.143777             -4.209572
| 17>   C                      3.960648             0.192770             -3.652873
| 18>   O                      4.726235             -0.559414            -4.649434
| 19>   H                      5.378450             -1.079402            -4.089084
| 20>   H                      3.013368             0.544674             -4.063479
| 21>   H                      3.811145             -0.298943            -2.709975
| 22>   H                      4.454191             1.085975             -3.448863
| 23> *
| 24>
| 25> #Run DFT-D3 single point of the molecule with dimer basis set
| 26> $new_job
| 27> %base "17-88_DFT_A"
| 28> ! wB97X-D3 def2-TZVP TIGHTSCF CHELPG PMODEL
| 29>
| 30> %scf
| 31> MaxIter 1000
| 32> end
| 33>
| 34> * xyz 0 1
| 35>   C                      6.352193             4.195746             -4.190666
| 36>   O                      5.100575             4.500113             -4.616961
| 37>   H                      4.495087             4.304367             -3.860152
| 38>   H                      7.093230             4.700914             -4.815245
| 39>   H                      6.551793             4.589563             -3.174605
| 40>   H                      6.623159             3.143777             -4.209572
| 41>   C                    : 3.960648             0.192770             -3.652873
| 42>   O                    : 4.726235             -0.559414            -4.649434
| 43>   H                    : 5.378450             -1.079402            -4.089084
| 44>   H                    : 3.013368             0.544674             -4.063479
| 45>   H                    : 3.811145             -0.298943            -2.709975
| 46>   H                    : 4.454191             1.085975             -3.448863
| 47> *
| 48>
| 49> #Run DFT-D3 single point of the particle with dimer basis set
| 50> $new_job
| 51> %base "17-88_DFT_B"
| 52> ! wB97X-D3 def2-TZVP TIGHTSCF CHELPG PMODEL
| 53>
| 54> %scf
| 55> MaxIter 1000
| 56> end
| 57>
| 58> * xyz 0 1
| 59>   C                    : 6.352193             4.195746             -4.190666
| 60>   O                    : 5.100575             4.500113             -4.616961
| 61>   H                    : 4.495087             4.304367             -3.860152
| 62>   H                    : 7.093230             4.700914             -4.815245
| 63>   H                    : 6.551793             4.589563             -3.174605
| 64>   H                    : 6.623159             3.143777             -4.209572
| 65>   C                      3.960648             0.192770             -3.652873
| 66>   O                      4.726235             -0.559414            -4.649434
| 67>   H                      5.378450             -1.079402            -4.089084
| 68>   H                      3.013368             0.544674             -4.063479
| 69>   H                      3.811145             -0.298943            -2.709975
| 70>   H                      4.454191             1.085975             -3.448863
| 71> *
| 72>
| 73>                          ****END OF INPUT****
 Total Charge           Charge          ....    0
 Multiplicity           Mult            ....    1
 Number of Electrons    NEL             ....   36
Dispersion correction           -0.001127887
FINAL SINGLE POINT ENERGY      -231.461883393153
Dispersion correction           -0.000226117
FINAL SINGLE POINT ENERGY      -115.733314885635

CARTESIAN COORDINATES (ANGSTROEM)
---------------------------------
  C      6.352193    4.195746   -4.190666
  O      5.100575    4.500113   -4.616961
  H      4.495087    4.304367   -3.860152
  H      7.093230    4.700914   -4.815245
  H      6.551793    4.589563   -3.174605
  H      6.623159    3.143777   -4.209572
  C      3.960648    0.192770   -3.652873
  O      4.726235   -0.559414   -4.649434
  H      5.378450   -1.079402   -4.089084
  H      3.013368    0.544674   -4.063479
  H      3.811145   -0.298943   -2.709975
  H      4.454191    1.085975   -3.448863

 Multiplicity           Mult            ....    1
 Number of Electrons    NEL             ....   18
 Basis Dimension        Dim             ....  172

ORBITAL ENERGIES
----------------

  NO   OCC          E(Eh)            E(eV)
   0   2.0000     -19.235628      -523.4280
   1   2.0000     -10.307827      -280.4902
   2   2.0000      -1.115546       -30.3556
   3   2.0000      -0.800875       -21.7929
   4   2.0000      -0.598551       -16.2874
   5   2.0000      -0.536835       -14.6080
   6   2.0000      -0.520628       -14.1670
   7   2.0000      -0.445640       -12.1265
   8   2.0000      -0.373427       -10.1615
   9   0.0000       0.085123         2.3163
  10   0.0000       0.112498         3.0612
  11   0.0000       0.146539         3.9875
  12   0.0000       0.175560         4.7772
  13   0.0000       0.187470         5.1013

MULLIKEN ATOMIC CHARGES
-----------------------
   0 C :   -0.000790
   1 O :   -0.000033
   2 H :   -0.000155
   3 H :    0.000038
   4 H :    0.000071
   5 H :    0.001036
   6 C :   -0.182539
   7 O :   -0.474001
   8 H :    0.313998
   9 H :    0.114814
  10 H :    0.113891
  11 H :    0.113671
Sum of atomic charges:    0.0000000

LOEWDIN ATOMIC CHARGES
----------------------
   0 C :   -0.000798
   1 O :   -0.000066
   2 H :   -0.000440
   3 H :   -0.000007
   4 H :   -0.000012
   5 H :   -0.000363
   6 C :   -0.350139
   7 O :   -0.128553
   8 H :    0.192575
   9 H :    0.108101
  10 H :    0.093718
  11 H :    0.085984

  Mayer bond orders larger than 0.1
B(  6-C ,  7-O ) :   1.0048 B(  6-C ,  9-H ) :   0.9773 B(  6-C , 10-H ) :   0.9779
B(  6-C , 11-H ) :   0.9752 B(  7-O ,  8-H ) :   0.8988

Dispersion correction           -0.000251915
FINAL SINGLE POINT ENERGY      -115.728468710013

DIPOLE MOMENT
-------------
                                X             Y             Z
Electronic contribution:      0.84141      -0.95870      -1.34094
Nuclear contribution   :     -0.76121       0.97864       2.10592
                        -----------------------------------------
Total Dipole Moment    :      0.08020       0.01993       0.76498
                        -----------------------------------------
Magnitude (a.u.)       :      0.76943
Magnitude (Debye)      :      1.95574

Rotational constants in cm-1:     4.386984     0.793260     0.753462
Rotational constants in MHz : 131518.475792 23781.322121 22588.230697

                             ****ORCA TERMINATED NORMALLY****
TOTAL RUN TIME: 0 days 0 hours 1 minutes 6 seconds 428 msec
