                         Program Version 4.1.2  - RELEASE  -
|  1> #Run DFT-D3 single point of the dimer
|  2> ! wB97X-D3 def2-TZVP TIGHTSCF CHELPG PMODEL PAL8
|  3>
|  4> %base "15-164_DFT_AB"
|  5>
|  6> %scf
|  7> MaxIter 1000
|  8> end
|  9>
| 10> * xyz 0 1
| 11>   C                      -5.946883            -9.520934            1.759639
| 12>   O                      -6.152325            -8.209981            1.137781
| 13>   H                      -5.894557            -8.237036            0.209221
| 14>   H                      -6.016455            -9.419049            2.892615
| 15>   H                      -6.762526            -10.186639           1.465938
| 16>   H                      -4.976280            -9.949934            1.473576
| 17>   C                      -6.229169            -5.605848            3.649831
| 18>   O                      -6.486129            -5.657773            2.254109
| 19>   H                      -6.061267            -6.372344            1.832964
| 20>   H                      -5.270334            -5.238399            3.993347
| 21>   H                      -7.008296            -5.020978            4.148391
| 22>   H                      -6.485685            -6.561689            4.106326
| 23> *
| 24>
| 25> #Run DFT-D3 single point of the molecule with dimer basis set
| 26> $new_job
| 27> %base "15-164_DFT_A"
| 28> ! wB97X-D3 def2-TZVP TIGHTSCF CHELPG PMODEL
| 29>
| 30> %scf
| 31> MaxIter 1000
| 32> end
| 33>
| 34> * xyz 0 1
| 35>   C                      -5.946883            -9.520934            1.759639
| 36>   O                      -6.152325            -8.209981            1.137781
| 37>   H                      -5.894557            -8.237036            0.209221
| 38>   H                      -6.016455            -9.419049            2.892615
| 39>   H                      -6.762526            -10.186639           1.465938
| 40>   H                      -4.976280            -9.949934            1.473576
| 41>   C                    : -6.229169            -5.605848            3.649831
| 42>   O                    : -6.486129            -5.657773            2.254109
| 43>   H                    : -6.061267            -6.372344            1.832964
| 44>   H                    : -5.270334            -5.238399            3.993347
| 45>   H                    : -7.008296            -5.020978            4.148391
| 46>   H                    : -6.485685            -6.561689            4.106326
| 47> *
| 48>
| 49> #Run DFT-D3 single point of the particle with dimer basis set
| 50> $new_job
| 51> %base "15-164_DFT_B"
| 52> ! wB97X-D3 def2-TZVP TIGHTSCF CHELPG PMODEL
| 53>
| 54> %scf
| 55> MaxIter 1000
| 56> end
| 57>
| 58> * xyz 0 1
| 59>   C                    : -5.946883            -9.520934            1.759639
| 60>   O                    : -6.152325            -8.209981            1.137781
| 61>   H                    : -5.894557            -8.237036            0.209221
| 62>   H                    : -6.016455            -9.419049            2.892615
| 63>   H                    : -6.762526            -10.186639           1.465938
| 64>   H                    : -4.976280            -9.949934            1.473576
| 65>   C                      -6.229169            -5.605848            3.649831
| 66>   O                      -6.486129            -5.657773            2.254109
| 67>   H                      -6.061267            -6.372344            1.832964
| 68>   H                      -5.270334            -5.238399            3.993347
| 69>   H                      -7.008296            -5.020978            4.148391
| 70>   H                      -6.485685            -6.561689            4.106326
| 71> *
| 72>
| 73>                          ****END OF INPUT****
 Total Charge           Charge          ....    0
 Multiplicity           Mult            ....    1
 Number of Electrons    NEL             ....   36
Dispersion correction           -0.001745393
FINAL SINGLE POINT ENERGY      -231.471138600762
Dispersion correction           -0.000269972
FINAL SINGLE POINT ENERGY      -115.733816308382

CARTESIAN COORDINATES (ANGSTROEM)
---------------------------------
  C     -5.946883   -9.520934    1.759639
  O     -6.152325   -8.209981    1.137781
  H     -5.894557   -8.237036    0.209221
  H     -6.016455   -9.419049    2.892615
  H     -6.762526  -10.186639    1.465938
  H     -4.976280   -9.949934    1.473576
  C     -6.229169   -5.605848    3.649831
  O     -6.486129   -5.657773    2.254109
  H     -6.061267   -6.372344    1.832964
  H     -5.270334   -5.238399    3.993347
  H     -7.008296   -5.020978    4.148391
  H     -6.485685   -6.561689    4.106326

 Multiplicity           Mult            ....    1
 Number of Electrons    NEL             ....   18
 Basis Dimension        Dim             ....  172

ORBITAL ENERGIES
----------------

  NO   OCC          E(Eh)            E(eV)
   0   2.0000     -19.229025      -523.2484
   1   2.0000     -10.313159      -280.6353
   2   2.0000      -1.137757       -30.9599
   3   2.0000      -0.804686       -21.8966
   4   2.0000      -0.615112       -16.7380
   5   2.0000      -0.549583       -14.9549
   6   2.0000      -0.523298       -14.2397
   7   2.0000      -0.421779       -11.4772
   8   2.0000      -0.380453       -10.3527
   9   0.0000       0.072413         1.9705
  10   0.0000       0.136969         3.7271
  11   0.0000       0.138949         3.7810
  12   0.0000       0.172395         4.6911
  13   0.0000       0.193915         5.2767

MULLIKEN ATOMIC CHARGES
-----------------------
   0 C :   -0.002157
   1 O :   -0.004865
   2 H :   -0.000421
   3 H :   -0.000043
   4 H :    0.000112
   5 H :    0.000073
   6 C :   -0.157235
   7 O :   -0.471002
   8 H :    0.310878
   9 H :    0.105702
  10 H :    0.117016
  11 H :    0.101944
Sum of atomic charges:    0.0000000

LOEWDIN ATOMIC CHARGES
----------------------
   0 C :   -0.002375
   1 O :   -0.020033
   2 H :   -0.001448
   3 H :   -0.000514
   4 H :   -0.000053
   5 H :   -0.000038
   6 C :   -0.379919
   7 O :   -0.052341
   8 H :    0.154800
   9 H :    0.092737
  10 H :    0.111370
  11 H :    0.097814

  Mayer bond orders larger than 0.1
B(  6-C ,  7-O ) :   1.0036 B(  6-C ,  9-H ) :   0.9715 B(  6-C , 10-H ) :   0.9731
B(  6-C , 11-H ) :   0.9800 B(  7-O ,  8-H ) :   0.9063

Dispersion correction           -0.000266255
FINAL SINGLE POINT ENERGY      -115.731408738442

DIPOLE MOMENT
-------------
                                X             Y             Z
Electronic contribution:     -0.20738       0.08646      -1.86072
Nuclear contribution   :      0.55425      -0.53424       2.18011
                        -----------------------------------------
Total Dipole Moment    :      0.34687      -0.44778       0.31939
                        -----------------------------------------
Magnitude (a.u.)       :      0.65025
Magnitude (Debye)      :      1.65282

Rotational constants in cm-1:     4.563378     0.806573     0.793676
Rotational constants in MHz : 136806.636389 24180.461503 23793.803887

                             ****ORCA TERMINATED NORMALLY****
TOTAL RUN TIME: 0 days 0 hours 1 minutes 5 seconds 500 msec
