                         Program Version 4.1.2  - RELEASE  -
|  1> #Run DFT-D3 single point of the dimer
|  2> ! wB97X-D3 def2-TZVP TIGHTSCF CHELPG PMODEL PAL8
|  3>
|  4> %base "19-126_DFT_AB"
|  5>
|  6> %scf
|  7> MaxIter 1000
|  8> end
|  9>
| 10> * xyz 0 1
| 11>   C                      5.736915             6.096399             -5.489844
| 12>   O                      5.154897             4.938208             -6.015251
| 13>   H                      5.492586             4.122501             -5.681083
| 14>   H                      5.357355             6.307799             -4.486453
| 15>   H                      6.834772             6.055645             -5.421734
| 16>   H                      5.315370             6.965713             -6.146136
| 17>   C                      9.562394             5.317390             -3.527046
| 18>   O                      8.176050             5.117132             -3.243014
| 19>   H                      7.870844             5.866545             -2.744694
| 20>   H                      9.716728             5.812961             -4.484793
| 21>   H                      10.097111            5.912034             -2.712506
| 22>   H                      10.143364            4.380377             -3.546100
| 23> *
| 24>
| 25> #Run DFT-D3 single point of the molecule with dimer basis set
| 26> $new_job
| 27> %base "19-126_DFT_A"
| 28> ! wB97X-D3 def2-TZVP TIGHTSCF CHELPG PMODEL
| 29>
| 30> %scf
| 31> MaxIter 1000
| 32> end
| 33>
| 34> * xyz 0 1
| 35>   C                      5.736915             6.096399             -5.489844
| 36>   O                      5.154897             4.938208             -6.015251
| 37>   H                      5.492586             4.122501             -5.681083
| 38>   H                      5.357355             6.307799             -4.486453
| 39>   H                      6.834772             6.055645             -5.421734
| 40>   H                      5.315370             6.965713             -6.146136
| 41>   C                    : 9.562394             5.317390             -3.527046
| 42>   O                    : 8.176050             5.117132             -3.243014
| 43>   H                    : 7.870844             5.866545             -2.744694
| 44>   H                    : 9.716728             5.812961             -4.484793
| 45>   H                    : 10.097111            5.912034             -2.712506
| 46>   H                    : 10.143364            4.380377             -3.546100
| 47> *
| 48>
| 49> #Run DFT-D3 single point of the particle with dimer basis set
| 50> $new_job
| 51> %base "19-126_DFT_B"
| 52> ! wB97X-D3 def2-TZVP TIGHTSCF CHELPG PMODEL
| 53>
| 54> %scf
| 55> MaxIter 1000
| 56> end
| 57>
| 58> * xyz 0 1
| 59>   C                    : 5.736915             6.096399             -5.489844
| 60>   O                    : 5.154897             4.938208             -6.015251
| 61>   H                    : 5.492586             4.122501             -5.681083
| 62>   H                    : 5.357355             6.307799             -4.486453
| 63>   H                    : 6.834772             6.055645             -5.421734
| 64>   H                    : 5.315370             6.965713             -6.146136
| 65>   C                      9.562394             5.317390             -3.527046
| 66>   O                      8.176050             5.117132             -3.243014
| 67>   H                      7.870844             5.866545             -2.744694
| 68>   H                      9.716728             5.812961             -4.484793
| 69>   H                      10.097111            5.912034             -2.712506
| 70>   H                      10.143364            4.380377             -3.546100
| 71> *
| 72>
| 73>                          ****END OF INPUT****
 Total Charge           Charge          ....    0
 Multiplicity           Mult            ....    1
 Number of Electrons    NEL             ....   36
Dispersion correction           -0.001665342
FINAL SINGLE POINT ENERGY      -231.467769320674
Dispersion correction           -0.000259027
FINAL SINGLE POINT ENERGY      -115.731276471512

CARTESIAN COORDINATES (ANGSTROEM)
---------------------------------
  C      5.736915    6.096399   -5.489844
  O      5.154897    4.938208   -6.015251
  H      5.492586    4.122501   -5.681083
  H      5.357355    6.307799   -4.486453
  H      6.834772    6.055645   -5.421734
  H      5.315370    6.965713   -6.146136
  C      9.562394    5.317390   -3.527046
  O      8.176050    5.117132   -3.243014
  H      7.870844    5.866545   -2.744694
  H      9.716728    5.812961   -4.484793
  H     10.097111    5.912034   -2.712506
  H     10.143364    4.380377   -3.546100

 Multiplicity           Mult            ....    1
 Number of Electrons    NEL             ....   18
 Basis Dimension        Dim             ....  172

ORBITAL ENERGIES
----------------

  NO   OCC          E(Eh)            E(eV)
   0   2.0000     -19.233084      -523.3588
   1   2.0000     -10.320627      -280.8385
   2   2.0000      -1.135477       -30.8979
   3   2.0000      -0.794935       -21.6313
   4   2.0000      -0.608863       -16.5680
   5   2.0000      -0.541422       -14.7328
   6   2.0000      -0.524841       -14.2816
   7   2.0000      -0.430628       -11.7180
   8   2.0000      -0.378038       -10.2869
   9   0.0000       0.092208         2.5091
  10   0.0000       0.125770         3.4224
  11   0.0000       0.148327         4.0362
  12   0.0000       0.173165         4.7121
  13   0.0000       0.186550         5.0763

MULLIKEN ATOMIC CHARGES
-----------------------
   0 C :    0.004394
   1 O :   -0.000231
   2 H :   -0.001023
   3 H :   -0.002756
   4 H :   -0.008209
   5 H :   -0.000321
   6 C :   -0.180592
   7 O :   -0.467350
   8 H :    0.319423
   9 H :    0.112133
  10 H :    0.103659
  11 H :    0.120874
Sum of atomic charges:   -0.0000000

LOEWDIN ATOMIC CHARGES
----------------------
   0 C :   -0.008259
   1 O :   -0.000035
   2 H :   -0.000461
   3 H :   -0.001210
   4 H :   -0.006872
   5 H :   -0.000080
   6 C :   -0.383500
   7 O :   -0.069501
   8 H :    0.164254
   9 H :    0.094448
  10 H :    0.104308
  11 H :    0.106911

  Mayer bond orders larger than 0.1
B(  6-C ,  7-O ) :   1.0048 B(  6-C ,  9-H ) :   0.9715 B(  6-C , 10-H ) :   0.9799
B(  6-C , 11-H ) :   0.9726 B(  7-O ,  8-H ) :   0.8980

Dispersion correction           -0.000266495
FINAL SINGLE POINT ENERGY      -115.734156239157

DIPOLE MOMENT
-------------
                                X             Y             Z
Electronic contribution:     -1.86484      -0.40247       0.24786
Nuclear contribution   :      2.24192       0.94945      -0.02185
                        -----------------------------------------
Total Dipole Moment    :      0.37708       0.54698       0.22601
                        -----------------------------------------
Magnitude (a.u.)       :      0.70175
Magnitude (Debye)      :      1.78372

Rotational constants in cm-1:     4.288305     0.804631     0.780065
Rotational constants in MHz : 128560.150122 24122.242590 23385.747526

                             ****ORCA TERMINATED NORMALLY****
TOTAL RUN TIME: 0 days 0 hours 0 minutes 48 seconds 175 msec
