                         Program Version 4.1.2  - RELEASE  -
|  1> #Run DFT-D3 single point of the dimer
|  2> ! wB97X-D3 def2-TZVP TIGHTSCF  CHELPG PAL8
|  3>
|  4> %base "73_charges"
|  5>
|  6> %scf
|  7> MaxIter 1000
|  8> end
|  9> %output
| 10>   Print[ P_Mayer ] 1
| 11>   Print[ P_NatPop ] 1
| 12>   Print[ P_Hirshfeld ] 1
| 13>   Print[ P_Mulliken ] 1
| 14>   Print [ P_Loewdin ] 1
| 15> end
| 16>
| 17> * xyz 0 1
| 18>   C                      5.314290             -3.542815            0.803685
| 19>   O                      4.980352             -3.512486            -0.559765
| 20>   H                      5.180720             -4.375270            -0.967361
| 21>   H                      4.765035             -2.724252            1.268303
| 22>   H                      4.921294             -4.427538            1.209492
| 23>   H                      6.469973             -3.450706            0.932593
| 24> *
| 25>
| 26>                          ****END OF INPUT****

CARTESIAN COORDINATES (ANGSTROEM)
---------------------------------
  C      5.314290   -3.542815    0.803685
  O      4.980352   -3.512486   -0.559765
  H      5.180720   -4.375270   -0.967361
  H      4.765035   -2.724252    1.268303
  H      4.921294   -4.427538    1.209492
  H      6.469973   -3.450706    0.932593

 Total Charge           Charge          ....    0
 Multiplicity           Mult            ....    1
 Number of Electrons    NEL             ....   18
 Basis Dimension        Dim             ....   86

ORBITAL ENERGIES
----------------

  NO   OCC          E(Eh)            E(eV)
   0   2.0000     -19.226728      -523.1859
   1   2.0000     -10.313905      -280.6556
   2   2.0000      -1.134270       -30.8651
   3   2.0000      -0.791669       -21.5424
   4   2.0000      -0.608687       -16.5632
   5   2.0000      -0.544209       -14.8087
   6   2.0000      -0.526487       -14.3264
   7   2.0000      -0.427890       -11.6435
   8   2.0000      -0.370576       -10.0839
   9   0.0000       0.113403         3.0858
  10   0.0000       0.156701         4.2641
  11   0.0000       0.198534         5.4024
  12   0.0000       0.202896         5.5211
  13   0.0000       0.225719         6.1421

MULLIKEN ATOMIC CHARGES
-----------------------
   0 C :   -0.146254
   1 O :   -0.482978
   2 H :    0.315185
   3 H :    0.117826
   4 H :    0.104268
   5 H :    0.091953
Sum of atomic charges:   -0.0000000

LOEWDIN ATOMIC CHARGES
----------------------
   0 C :   -0.390788
   1 O :   -0.083572
   2 H :    0.175350
   3 H :    0.108375
   4 H :    0.084666
   5 H :    0.105968

  Mayer bond orders larger than 0.1
B(  0-C ,  1-O ) :   0.9980 B(  0-C ,  3-H ) :   0.9733 B(  0-C ,  4-H ) :   0.9836
B(  0-C ,  5-H ) :   0.9714 B(  1-O ,  2-H ) :   0.8960

Dispersion correction           -0.000232213
FINAL SINGLE POINT ENERGY      -115.731057766357

DIPOLE MOMENT
-------------
                                X             Y             Z
Electronic contribution:     -0.48315       0.14329      -1.62828
Nuclear contribution   :      0.68871      -0.71766       1.91217
                        -----------------------------------------
Total Dipole Moment    :      0.20556      -0.57437       0.28389
                        -----------------------------------------
Magnitude (a.u.)       :      0.67287
Magnitude (Debye)      :      1.71029

Rotational constants in cm-1:     4.120096     0.843173     0.821527
Rotational constants in MHz : 123517.372971 25277.697368 24628.749400

                             ****ORCA TERMINATED NORMALLY****
TOTAL RUN TIME: 0 days 0 hours 0 minutes 41 seconds 659 msec
