                         Program Version 4.1.2  - RELEASE  -
|  1> #Run DFT-D3 single point of the dimer
|  2> ! wB97X-D3 def2-TZVP TIGHTSCF  CHELPG PAL8
|  3>
|  4> %base "116_charges"
|  5>
|  6> %scf
|  7> MaxIter 1000
|  8> end
|  9> %output
| 10>   Print[ P_Mayer ] 1
| 11>   Print[ P_NatPop ] 1
| 12>   Print[ P_Hirshfeld ] 1
| 13>   Print[ P_Mulliken ] 1
| 14>   Print [ P_Loewdin ] 1
| 15> end
| 16>
| 17> * xyz 0 1
| 18>   C                      0.504988             6.456761             8.654364
| 19>   O                      1.728646             5.692379             8.806575
| 20>   H                      2.400657             6.226533             8.308304
| 21>   H                      -0.035491            6.603208             9.632987
| 22>   H                      0.681086             7.468840             8.246916
| 23>   H                      -0.176623            5.894841             8.038308
| 24> *
| 25>
| 26>                          ****END OF INPUT****

CARTESIAN COORDINATES (ANGSTROEM)
---------------------------------
  C      0.504988    6.456761    8.654364
  O      1.728646    5.692379    8.806575
  H      2.400657    6.226533    8.308304
  H     -0.035491    6.603208    9.632987
  H      0.681086    7.468840    8.246916
  H     -0.176623    5.894841    8.038308

 Total Charge           Charge          ....    0
 Multiplicity           Mult            ....    1
 Number of Electrons    NEL             ....   18
 Basis Dimension        Dim             ....   86

ORBITAL ENERGIES
----------------

  NO   OCC          E(Eh)            E(eV)
   0   2.0000     -19.234555      -523.3989
   1   2.0000     -10.318975      -280.7936
   2   2.0000      -1.122001       -30.5312
   3   2.0000      -0.790961       -21.5231
   4   2.0000      -0.600852       -16.3500
   5   2.0000      -0.534944       -14.5566
   6   2.0000      -0.520662       -14.1679
   7   2.0000      -0.440151       -11.9771
   8   2.0000      -0.373230       -10.1561
   9   0.0000       0.108685         2.9575
  10   0.0000       0.150661         4.0997
  11   0.0000       0.192581         5.2404
  12   0.0000       0.206660         5.6235
  13   0.0000       0.230863         6.2821

MULLIKEN ATOMIC CHARGES
-----------------------
   0 C :   -0.180140
   1 O :   -0.472782
   2 H :    0.317280
   3 H :    0.111309
   4 H :    0.109413
   5 H :    0.114919
Sum of atomic charges:    0.0000000

LOEWDIN ATOMIC CHARGES
----------------------
   0 C :   -0.369939
   1 O :   -0.118619
   2 H :    0.187443
   3 H :    0.107735
   4 H :    0.098898
   5 H :    0.094482

  Mayer bond orders larger than 0.1
B(  0-C ,  1-O ) :   1.0077 B(  0-C ,  3-H ) :   0.9732 B(  0-C ,  4-H ) :   0.9798
B(  0-C ,  5-H ) :   0.9771 B(  1-O ,  2-H ) :   0.8986

Dispersion correction           -0.000263758
FINAL SINGLE POINT ENERGY      -115.731787843364

DIPOLE MOMENT
-------------
                                X             Y             Z
Electronic contribution:      1.51141      -1.07691       0.22910
Nuclear contribution   :     -1.58736       1.72692      -0.60452
                        -----------------------------------------
Total Dipole Moment    :     -0.07595       0.65002      -0.37542
                        -----------------------------------------
Magnitude (a.u.)       :      0.75447
Magnitude (Debye)      :      1.91772

Rotational constants in cm-1:     4.165169     0.798807     0.764428
Rotational constants in MHz : 124868.624747 23947.641232 22916.965147

                             ****ORCA TERMINATED NORMALLY****
TOTAL RUN TIME: 0 days 0 hours 0 minutes 46 seconds 630 msec
