                         Program Version 4.1.2  - RELEASE  -
|  1> #Run DFT-D3 single point of the dimer
|  2> ! wB97X-D3 def2-TZVP TIGHTSCF CHELPG PMODEL PAL8
|  3>
|  4> %base "17-2_DFT_AB"
|  5>
|  6> %scf
|  7> MaxIter 1000
|  8> end
|  9>
| 10> * xyz 0 1
| 11>   C                      4.197069             -5.731458            9.963804
| 12>   O                      3.094894             -5.843376            9.191124
| 13>   H                      2.638128             -4.976491            9.044959
| 14>   H                      4.671865             -6.648630            10.240441
| 15>   H                      4.946971             -5.153106            9.403973
| 16>   H                      3.975430             -5.220114            10.891315
| 17>   C                      -0.066139            -6.006657            6.636389
| 18>   O                      -0.752408            -5.862081            7.824022
| 19>   H                      -0.803631            -4.933314            7.990587
| 20>   H                      -0.008752            -5.147557            6.027307
| 21>   H                      0.898532             -6.436435            6.915708
| 22>   H                      -0.564332            -6.732301            5.985013
| 23> *
| 24>
| 25> #Run DFT-D3 single point of the molecule with dimer basis set
| 26> $new_job
| 27> %base "17-2_DFT_A"
| 28> ! wB97X-D3 def2-TZVP TIGHTSCF CHELPG PMODEL
| 29>
| 30> %scf
| 31> MaxIter 1000
| 32> end
| 33>
| 34> * xyz 0 1
| 35>   C                      4.197069             -5.731458            9.963804
| 36>   O                      3.094894             -5.843376            9.191124
| 37>   H                      2.638128             -4.976491            9.044959
| 38>   H                      4.671865             -6.648630            10.240441
| 39>   H                      4.946971             -5.153106            9.403973
| 40>   H                      3.975430             -5.220114            10.891315
| 41>   C                    : -0.066139            -6.006657            6.636389
| 42>   O                    : -0.752408            -5.862081            7.824022
| 43>   H                    : -0.803631            -4.933314            7.990587
| 44>   H                    : -0.008752            -5.147557            6.027307
| 45>   H                    : 0.898532             -6.436435            6.915708
| 46>   H                    : -0.564332            -6.732301            5.985013
| 47> *
| 48>
| 49> #Run DFT-D3 single point of the particle with dimer basis set
| 50> $new_job
| 51> %base "17-2_DFT_B"
| 52> ! wB97X-D3 def2-TZVP TIGHTSCF CHELPG PMODEL
| 53>
| 54> %scf
| 55> MaxIter 1000
| 56> end
| 57>
| 58> * xyz 0 1
| 59>   C                    : 4.197069             -5.731458            9.963804
| 60>   O                    : 3.094894             -5.843376            9.191124
| 61>   H                    : 2.638128             -4.976491            9.044959
| 62>   H                    : 4.671865             -6.648630            10.240441
| 63>   H                    : 4.946971             -5.153106            9.403973
| 64>   H                    : 3.975430             -5.220114            10.891315
| 65>   C                      -0.066139            -6.006657            6.636389
| 66>   O                      -0.752408            -5.862081            7.824022
| 67>   H                      -0.803631            -4.933314            7.990587
| 68>   H                      -0.008752            -5.147557            6.027307
| 69>   H                      0.898532             -6.436435            6.915708
| 70>   H                      -0.564332            -6.732301            5.985013
| 71> *
| 72>
| 73>                          ****END OF INPUT****
 Total Charge           Charge          ....    0
 Multiplicity           Mult            ....    1
 Number of Electrons    NEL             ....   36
Dispersion correction           -0.001084981
FINAL SINGLE POINT ENERGY      -231.461239625937
Dispersion correction           -0.000216573
FINAL SINGLE POINT ENERGY      -115.730254476274

CARTESIAN COORDINATES (ANGSTROEM)
---------------------------------
  C      4.197069   -5.731458    9.963804
  O      3.094894   -5.843376    9.191124
  H      2.638128   -4.976491    9.044959
  H      4.671865   -6.648630   10.240441
  H      4.946971   -5.153106    9.403973
  H      3.975430   -5.220114   10.891315
  C     -0.066139   -6.006657    6.636389
  O     -0.752408   -5.862081    7.824022
  H     -0.803631   -4.933314    7.990587
  H     -0.008752   -5.147557    6.027307
  H      0.898532   -6.436435    6.915708
  H     -0.564332   -6.732301    5.985013

 Multiplicity           Mult            ....    1
 Number of Electrons    NEL             ....   18
 Basis Dimension        Dim             ....  172

ORBITAL ENERGIES
----------------

  NO   OCC          E(Eh)            E(eV)
   0   2.0000     -19.227264      -523.2004
   1   2.0000     -10.304499      -280.3997
   2   2.0000      -1.150978       -31.3197
   3   2.0000      -0.797443       -21.6995
   4   2.0000      -0.623680       -16.9712
   5   2.0000      -0.547076       -14.8867
   6   2.0000      -0.528920       -14.3926
   7   2.0000      -0.436903       -11.8887
   8   2.0000      -0.368880       -10.0377
   9   0.0000       0.085726         2.3327
  10   0.0000       0.116298         3.1646
  11   0.0000       0.157564         4.2875
  12   0.0000       0.170969         4.6523
  13   0.0000       0.190675         5.1885

MULLIKEN ATOMIC CHARGES
-----------------------
   0 C :    0.000052
   1 O :    0.000059
   2 H :   -0.000299
   3 H :   -0.000010
   4 H :    0.000003
   5 H :   -0.000004
   6 C :   -0.163129
   7 O :   -0.462641
   8 H :    0.312438
   9 H :    0.106715
  10 H :    0.100784
  11 H :    0.106032
Sum of atomic charges:    0.0000000

LOEWDIN ATOMIC CHARGES
----------------------
   0 C :   -0.000047
   1 O :   -0.000500
   2 H :   -0.000632
   3 H :   -0.000003
   4 H :   -0.000001
   5 H :   -0.000001
   6 C :   -0.407852
   7 O :   -0.044542
   8 H :    0.163204
   9 H :    0.088251
  10 H :    0.099227
  11 H :    0.102896

  Mayer bond orders larger than 0.1
B(  6-C ,  7-O ) :   1.0096 B(  6-C ,  9-H ) :   0.9811 B(  6-C , 10-H ) :   0.9849
B(  6-C , 11-H ) :   0.9773 B(  7-O ,  8-H ) :   0.9050

Dispersion correction           -0.000221586
FINAL SINGLE POINT ENERGY      -115.731030382506

DIPOLE MOMENT
-------------
                                X             Y             Z
Electronic contribution:     -0.90452       0.20374       1.55538
Nuclear contribution   :      1.10573       0.36706      -1.91078
                        -----------------------------------------
Total Dipole Moment    :      0.20121       0.57079      -0.35541
                        -----------------------------------------
Magnitude (a.u.)       :      0.70186
Magnitude (Debye)      :      1.78398

Rotational constants in cm-1:     4.396582     0.870999     0.842590
Rotational constants in MHz : 131806.202957 26111.896736 25260.207185

                             ****ORCA TERMINATED NORMALLY****
TOTAL RUN TIME: 0 days 0 hours 1 minutes 3 seconds 275 msec
