                         Program Version 4.1.2  - RELEASE  -
|  1> #Run DFT-D3 single point of the dimer
|  2> ! wB97X-D3 def2-TZVP TIGHTSCF CHELPG PMODEL PAL8
|  3>
|  4> %base "22-179_DFT_AB"
|  5>
|  6> %scf
|  7> MaxIter 1000
|  8> end
|  9>
| 10> * xyz 0 1
| 11>   C                      -4.521975            -6.233287            5.954755
| 12>   O                      -4.879138            -6.814400            7.255290
| 13>   H                      -4.346958            -6.453633            7.886201
| 14>   H                      -3.499010            -6.592115            5.620698
| 15>   H                      -5.202318            -6.713222            5.198677
| 16>   H                      -4.591454            -5.146394            5.966266
| 17>   C                      -5.484438            -10.078083           6.406654
| 18>   O                      -6.265577            -9.407845            7.316809
| 19>   H                      -6.122561            -8.521151            7.086940
| 20>   H                      -6.090158            -10.655197           5.750842
| 21>   H                      -4.814471            -9.502653            5.763758
| 22>   H                      -4.811832            -10.790068           7.002692
| 23> *
| 24>
| 25> #Run DFT-D3 single point of the molecule with dimer basis set
| 26> $new_job
| 27> %base "22-179_DFT_A"
| 28> ! wB97X-D3 def2-TZVP TIGHTSCF CHELPG PMODEL
| 29>
| 30> %scf
| 31> MaxIter 1000
| 32> end
| 33>
| 34> * xyz 0 1
| 35>   C                      -4.521975            -6.233287            5.954755
| 36>   O                      -4.879138            -6.814400            7.255290
| 37>   H                      -4.346958            -6.453633            7.886201
| 38>   H                      -3.499010            -6.592115            5.620698
| 39>   H                      -5.202318            -6.713222            5.198677
| 40>   H                      -4.591454            -5.146394            5.966266
| 41>   C                    : -5.484438            -10.078083           6.406654
| 42>   O                    : -6.265577            -9.407845            7.316809
| 43>   H                    : -6.122561            -8.521151            7.086940
| 44>   H                    : -6.090158            -10.655197           5.750842
| 45>   H                    : -4.814471            -9.502653            5.763758
| 46>   H                    : -4.811832            -10.790068           7.002692
| 47> *
| 48>
| 49> #Run DFT-D3 single point of the particle with dimer basis set
| 50> $new_job
| 51> %base "22-179_DFT_B"
| 52> ! wB97X-D3 def2-TZVP TIGHTSCF CHELPG PMODEL
| 53>
| 54> %scf
| 55> MaxIter 1000
| 56> end
| 57>
| 58> * xyz 0 1
| 59>   C                    : -4.521975            -6.233287            5.954755
| 60>   O                    : -4.879138            -6.814400            7.255290
| 61>   H                    : -4.346958            -6.453633            7.886201
| 62>   H                    : -3.499010            -6.592115            5.620698
| 63>   H                    : -5.202318            -6.713222            5.198677
| 64>   H                    : -4.591454            -5.146394            5.966266
| 65>   C                      -5.484438            -10.078083           6.406654
| 66>   O                      -6.265577            -9.407845            7.316809
| 67>   H                      -6.122561            -8.521151            7.086940
| 68>   H                      -6.090158            -10.655197           5.750842
| 69>   H                      -4.814471            -9.502653            5.763758
| 70>   H                      -4.811832            -10.790068           7.002692
| 71> *
| 72>
| 73>                          ****END OF INPUT****
 Total Charge           Charge          ....    0
 Multiplicity           Mult            ....    1
 Number of Electrons    NEL             ....   36
Dispersion correction           -0.002044678
FINAL SINGLE POINT ENERGY      -231.465022859736
Dispersion correction           -0.000268103
FINAL SINGLE POINT ENERGY      -115.729635465083

CARTESIAN COORDINATES (ANGSTROEM)
---------------------------------
  C     -4.521975   -6.233287    5.954755
  O     -4.879138   -6.814400    7.255290
  H     -4.346958   -6.453633    7.886201
  H     -3.499010   -6.592115    5.620698
  H     -5.202318   -6.713222    5.198677
  H     -4.591454   -5.146394    5.966266
  C     -5.484438  -10.078083    6.406654
  O     -6.265577   -9.407845    7.316809
  H     -6.122561   -8.521151    7.086940
  H     -6.090158  -10.655197    5.750842
  H     -4.814471   -9.502653    5.763758
  H     -4.811832  -10.790068    7.002692

 Multiplicity           Mult            ....    1
 Number of Electrons    NEL             ....   18
 Basis Dimension        Dim             ....  172

ORBITAL ENERGIES
----------------

  NO   OCC          E(Eh)            E(eV)
   0   2.0000     -19.231697      -523.3211
   1   2.0000     -10.311668      -280.5948
   2   2.0000      -1.162202       -31.6251
   3   2.0000      -0.794295       -21.6139
   4   2.0000      -0.627181       -17.0665
   5   2.0000      -0.548121       -14.9151
   6   2.0000      -0.525983       -14.3127
   7   2.0000      -0.440706       -11.9922
   8   2.0000      -0.372614       -10.1393
   9   0.0000       0.067719         1.8427
  10   0.0000       0.139746         3.8027
  11   0.0000       0.145006         3.9458
  12   0.0000       0.163673         4.4538
  13   0.0000       0.181868         4.9489

MULLIKEN ATOMIC CHARGES
-----------------------
   0 C :   -0.001511
   1 O :   -0.003966
   2 H :   -0.000595
   3 H :   -0.000127
   4 H :   -0.000020
   5 H :   -0.000026
   6 C :   -0.169254
   7 O :   -0.439204
   8 H :    0.308690
   9 H :    0.105112
  10 H :    0.102872
  11 H :    0.098030
Sum of atomic charges:    0.0000000

LOEWDIN ATOMIC CHARGES
----------------------
   0 C :   -0.004114
   1 O :   -0.013145
   2 H :   -0.000937
   3 H :   -0.000289
   4 H :   -0.001002
   5 H :   -0.000035
   6 C :   -0.417251
   7 O :   -0.016527
   8 H :    0.156916
   9 H :    0.090491
  10 H :    0.096007
  11 H :    0.109887

  Mayer bond orders larger than 0.1
B(  6-C ,  7-O ) :   1.0038 B(  6-C ,  9-H ) :   0.9813 B(  6-C , 10-H ) :   0.9764
B(  6-C , 11-H ) :   0.9789 B(  7-O ,  8-H ) :   0.9170

Dispersion correction           -0.000226292
FINAL SINGLE POINT ENERGY      -115.728867325129

DIPOLE MOMENT
-------------
                                X             Y             Z
Electronic contribution:     -1.17636       0.91151       1.22616
Nuclear contribution   :      1.53882      -0.55973      -1.71703
                        -----------------------------------------
Total Dipole Moment    :      0.36246       0.35178      -0.49088
                        -----------------------------------------
Magnitude (a.u.)       :      0.70434
Magnitude (Debye)      :      1.79028

Rotational constants in cm-1:     4.318131     0.873028     0.842115
Rotational constants in MHz : 129454.306247 26172.715538 25245.979911

                             ****ORCA TERMINATED NORMALLY****
TOTAL RUN TIME: 0 days 0 hours 1 minutes 8 seconds 676 msec
