                         Program Version 4.1.2  - RELEASE  -
|  1> #Run DFT-D3 single point of the dimer
|  2> ! wB97X-D3 def2-TZVP TIGHTSCF CHELPG PMODEL PAL8
|  3>
|  4> %base "1-119_DFT_AB"
|  5>
|  6> %scf
|  7> MaxIter 1000
|  8> end
|  9>
| 10> * xyz 0 1
| 11>   C                      10.097442            -11.021088           4.792170
| 12>   O                      9.797004             -10.184872           3.709985
| 13>   H                      10.061023            -9.304137            3.936101
| 14>   H                      10.118877            -12.027282           4.441475
| 15>   H                      11.067215            -10.924921           5.229111
| 16>   H                      9.389762             -10.964575           5.682178
| 17>   C                      10.067220            -10.126056           8.007555
| 18>   O                      9.600508             -8.787866            8.100690
| 19>   H                      9.342349             -8.601194            9.016591
| 20>   H                      9.295963             -10.797208           8.353446
| 21>   H                      10.328092            -10.365292           7.022517
| 22>   H                      10.911756            -10.240469           8.686770
| 23> *
| 24>
| 25> #Run DFT-D3 single point of the molecule with dimer basis set
| 26> $new_job
| 27> %base "1-119_DFT_A"
| 28> ! wB97X-D3 def2-TZVP TIGHTSCF CHELPG PMODEL
| 29>
| 30> %scf
| 31> MaxIter 1000
| 32> end
| 33>
| 34> * xyz 0 1
| 35>   C                      10.097442            -11.021088           4.792170
| 36>   O                      9.797004             -10.184872           3.709985
| 37>   H                      10.061023            -9.304137            3.936101
| 38>   H                      10.118877            -12.027282           4.441475
| 39>   H                      11.067215            -10.924921           5.229111
| 40>   H                      9.389762             -10.964575           5.682178
| 41>   C                    : 10.067220            -10.126056           8.007555
| 42>   O                    : 9.600508             -8.787866            8.100690
| 43>   H                    : 9.342349             -8.601194            9.016591
| 44>   H                    : 9.295963             -10.797208           8.353446
| 45>   H                    : 10.328092            -10.365292           7.022517
| 46>   H                    : 10.911756            -10.240469           8.686770
| 47> *
| 48>
| 49> #Run DFT-D3 single point of the particle with dimer basis set
| 50> $new_job
| 51> %base "1-119_DFT_B"
| 52> ! wB97X-D3 def2-TZVP TIGHTSCF CHELPG PMODEL
| 53>
| 54> %scf
| 55> MaxIter 1000
| 56> end
| 57>
| 58> * xyz 0 1
| 59>   C                    : 10.097442            -11.021088           4.792170
| 60>   O                    : 9.797004             -10.184872           3.709985
| 61>   H                    : 10.061023            -9.304137            3.936101
| 62>   H                    : 10.118877            -12.027282           4.441475
| 63>   H                    : 11.067215            -10.924921           5.229111
| 64>   H                    : 9.389762             -10.964575           5.682178
| 65>   C                      10.067220            -10.126056           8.007555
| 66>   O                      9.600508             -8.787866            8.100690
| 67>   H                      9.342349             -8.601194            9.016591
| 68>   H                      9.295963             -10.797208           8.353446
| 69>   H                      10.328092            -10.365292           7.022517
| 70>   H                      10.911756            -10.240469           8.686770
| 71> *
| 72>
| 73>                          ****END OF INPUT****
 Total Charge           Charge          ....    0
 Multiplicity           Mult            ....    1
 Number of Electrons    NEL             ....   36
Dispersion correction           -0.001719033
FINAL SINGLE POINT ENERGY      -231.462837584610
Dispersion correction           -0.000258124
FINAL SINGLE POINT ENERGY      -115.733104319686

CARTESIAN COORDINATES (ANGSTROEM)
---------------------------------
  C     10.097442  -11.021088    4.792170
  O      9.797004  -10.184872    3.709985
  H     10.061023   -9.304137    3.936101
  H     10.118877  -12.027282    4.441475
  H     11.067215  -10.924921    5.229111
  H      9.389762  -10.964575    5.682178
  C     10.067220  -10.126056    8.007555
  O      9.600508   -8.787866    8.100690
  H      9.342349   -8.601194    9.016591
  H      9.295963  -10.797208    8.353446
  H     10.328092  -10.365292    7.022517
  H     10.911756  -10.240469    8.686770

 Multiplicity           Mult            ....    1
 Number of Electrons    NEL             ....   18
 Basis Dimension        Dim             ....  172

ORBITAL ENERGIES
----------------

  NO   OCC          E(Eh)            E(eV)
   0   2.0000     -19.226604      -523.1825
   1   2.0000     -10.306487      -280.4538
   2   2.0000      -1.129799       -30.7434
   3   2.0000      -0.799455       -21.7543
   4   2.0000      -0.607777       -16.5385
   5   2.0000      -0.541422       -14.7328
   6   2.0000      -0.535896       -14.5825
   7   2.0000      -0.434078       -11.8119
   8   2.0000      -0.369543       -10.0558
   9   0.0000       0.092305         2.5117
  10   0.0000       0.116944         3.1822
  11   0.0000       0.155446         4.2299
  12   0.0000       0.179792         4.8924
  13   0.0000       0.195872         5.3300

MULLIKEN ATOMIC CHARGES
-----------------------
   0 C :    0.008085
   1 O :   -0.000380
   2 H :   -0.000146
   3 H :    0.000693
   4 H :   -0.001579
   5 H :   -0.003114
   6 C :   -0.141666
   7 O :   -0.486157
   8 H :    0.315198
   9 H :    0.100440
  10 H :    0.108438
  11 H :    0.100186
Sum of atomic charges:   -0.0000000

LOEWDIN ATOMIC CHARGES
----------------------
   0 C :   -0.020685
   1 O :   -0.000035
   2 H :   -0.000066
   3 H :   -0.000172
   4 H :   -0.006107
   5 H :   -0.014198
   6 C :   -0.349636
   7 O :   -0.088126
   8 H :    0.172817
   9 H :    0.095430
  10 H :    0.115085
  11 H :    0.095693

  Mayer bond orders larger than 0.1
B(  6-C ,  7-O ) :   1.0129 B(  6-C ,  9-H ) :   0.9836 B(  6-C , 10-H ) :   0.9759
B(  6-C , 11-H ) :   0.9848 B(  7-O ,  8-H ) :   0.8972

Dispersion correction           -0.000220566
FINAL SINGLE POINT ENERGY      -115.734621454573

DIPOLE MOMENT
-------------
                                X             Y             Z
Electronic contribution:     -0.52622       1.65188      -0.15183
Nuclear contribution   :      0.55080      -2.08768       0.68608
                        -----------------------------------------
Total Dipole Moment    :      0.02459      -0.43580       0.53425
                        -----------------------------------------
Magnitude (a.u.)       :      0.68989
Magnitude (Debye)      :      1.75356

Rotational constants in cm-1:     4.371541     0.834408     0.802610
Rotational constants in MHz : 131055.488056 25014.930355 24061.630283

                             ****ORCA TERMINATED NORMALLY****
TOTAL RUN TIME: 0 days 0 hours 5 minutes 35 seconds 571 msec
