                         Program Version 4.1.2  - RELEASE  -
|  1> #Run DFT-D3 single point of the dimer
|  2> ! wB97X-D3 def2-TZVP TIGHTSCF CHELPG PMODEL PAL8
|  3>
|  4> %base "13-72_DFT_AB"
|  5>
|  6> %scf
|  7> MaxIter 1000
|  8> end
|  9>
| 10> * xyz 0 1
| 11>   C                      9.028161             -7.584521            4.100614
| 12>   O                      8.192791             -6.828802            5.014434
| 13>   H                      7.594326             -6.269406            4.519792
| 14>   H                      8.513725             -7.939866            3.227101
| 15>   H                      9.834166             -6.927564            3.751375
| 16>   H                      9.510038             -8.408056            4.560258
| 17>   C                      11.140958            -10.703286           4.177516
| 18>   O                      10.650549            -10.168849           2.943809
| 19>   H                      9.908996             -10.748755           2.755459
| 20>   H                      11.282247            -11.815489           4.105982
| 21>   H                      12.155402            -10.462886           4.434546
| 22>   H                      10.439565            -10.589145           5.024291
| 23> *
| 24>
| 25> #Run DFT-D3 single point of the molecule with dimer basis set
| 26> $new_job
| 27> %base "13-72_DFT_A"
| 28> ! wB97X-D3 def2-TZVP TIGHTSCF CHELPG PMODEL
| 29>
| 30> %scf
| 31> MaxIter 1000
| 32> end
| 33>
| 34> * xyz 0 1
| 35>   C                      9.028161             -7.584521            4.100614
| 36>   O                      8.192791             -6.828802            5.014434
| 37>   H                      7.594326             -6.269406            4.519792
| 38>   H                      8.513725             -7.939866            3.227101
| 39>   H                      9.834166             -6.927564            3.751375
| 40>   H                      9.510038             -8.408056            4.560258
| 41>   C                    : 11.140958            -10.703286           4.177516
| 42>   O                    : 10.650549            -10.168849           2.943809
| 43>   H                    : 9.908996             -10.748755           2.755459
| 44>   H                    : 11.282247            -11.815489           4.105982
| 45>   H                    : 12.155402            -10.462886           4.434546
| 46>   H                    : 10.439565            -10.589145           5.024291
| 47> *
| 48>
| 49> #Run DFT-D3 single point of the particle with dimer basis set
| 50> $new_job
| 51> %base "13-72_DFT_B"
| 52> ! wB97X-D3 def2-TZVP TIGHTSCF CHELPG PMODEL
| 53>
| 54> %scf
| 55> MaxIter 1000
| 56> end
| 57>
| 58> * xyz 0 1
| 59>   C                    : 9.028161             -7.584521            4.100614
| 60>   O                    : 8.192791             -6.828802            5.014434
| 61>   H                    : 7.594326             -6.269406            4.519792
| 62>   H                    : 8.513725             -7.939866            3.227101
| 63>   H                    : 9.834166             -6.927564            3.751375
| 64>   H                    : 9.510038             -8.408056            4.560258
| 65>   C                      11.140958            -10.703286           4.177516
| 66>   O                      10.650549            -10.168849           2.943809
| 67>   H                      9.908996             -10.748755           2.755459
| 68>   H                      11.282247            -11.815489           4.105982
| 69>   H                      12.155402            -10.462886           4.434546
| 70>   H                      10.439565            -10.589145           5.024291
| 71> *
| 72>
| 73>                          ****END OF INPUT****
 Total Charge           Charge          ....    0
 Multiplicity           Mult            ....    1
 Number of Electrons    NEL             ....   36
Dispersion correction           -0.001848050
FINAL SINGLE POINT ENERGY      -231.465164477251
Dispersion correction           -0.000256721
FINAL SINGLE POINT ENERGY      -115.733591992545

CARTESIAN COORDINATES (ANGSTROEM)
---------------------------------
  C      9.028161   -7.584521    4.100614
  O      8.192791   -6.828802    5.014434
  H      7.594326   -6.269406    4.519792
  H      8.513725   -7.939866    3.227101
  H      9.834166   -6.927564    3.751375
  H      9.510038   -8.408056    4.560258
  C     11.140958  -10.703286    4.177516
  O     10.650549  -10.168849    2.943809
  H      9.908996  -10.748755    2.755459
  H     11.282247  -11.815489    4.105982
  H     12.155402  -10.462886    4.434546
  H     10.439565  -10.589145    5.024291

 Multiplicity           Mult            ....    1
 Number of Electrons    NEL             ....   18
 Basis Dimension        Dim             ....  172

ORBITAL ENERGIES
----------------

  NO   OCC          E(Eh)            E(eV)
   0   2.0000     -19.237268      -523.4727
   1   2.0000     -10.318018      -280.7675
   2   2.0000      -1.137763       -30.9601
   3   2.0000      -0.796428       -21.6719
   4   2.0000      -0.608923       -16.5696
   5   2.0000      -0.546292       -14.8654
   6   2.0000      -0.521580       -14.1929
   7   2.0000      -0.438378       -11.9289
   8   2.0000      -0.376548       -10.2464
   9   0.0000       0.091856         2.4995
  10   0.0000       0.122699         3.3388
  11   0.0000       0.146968         3.9992
  12   0.0000       0.183198         4.9851
  13   0.0000       0.192149         5.2286

MULLIKEN ATOMIC CHARGES
-----------------------
   0 C :    0.004311
   1 O :   -0.000178
   2 H :   -0.000026
   3 H :   -0.005779
   4 H :   -0.003052
   5 H :    0.001678
   6 C :   -0.195736
   7 O :   -0.459683
   8 H :    0.319170
   9 H :    0.105616
  10 H :    0.124861
  11 H :    0.108818
Sum of atomic charges:   -0.0000000

LOEWDIN ATOMIC CHARGES
----------------------
   0 C :   -0.012871
   1 O :   -0.000048
   2 H :   -0.000024
   3 H :   -0.002729
   4 H :   -0.000822
   5 H :   -0.006827
   6 C :   -0.386224
   7 O :   -0.068897
   8 H :    0.174067
   9 H :    0.101602
  10 H :    0.103956
  11 H :    0.098817

  Mayer bond orders larger than 0.1
B(  6-C ,  7-O ) :   0.9952 B(  6-C ,  9-H ) :   0.9810 B(  6-C , 10-H ) :   0.9723
B(  6-C , 11-H ) :   0.9716 B(  7-O ,  8-H ) :   0.8992

Dispersion correction           -0.000245614
FINAL SINGLE POINT ENERGY      -115.729628107981

DIPOLE MOMENT
-------------
                                X             Y             Z
Electronic contribution:     -0.51502       1.05548      -1.62817
Nuclear contribution   :      0.27790      -1.65575       1.98307
                        -----------------------------------------
Total Dipole Moment    :     -0.23712      -0.60027       0.35489
                        -----------------------------------------
Magnitude (a.u.)       :      0.73654
Magnitude (Debye)      :      1.87214

Rotational constants in cm-1:     4.338864     0.807704     0.781550
Rotational constants in MHz : 130075.868929 24214.346531 23430.287290

                             ****ORCA TERMINATED NORMALLY****
TOTAL RUN TIME: 0 days 0 hours 1 minutes 6 seconds 843 msec
