                         Program Version 4.1.2  - RELEASE  -
|  1> #Run DFT-D3 single point of the dimer
|  2> ! wB97X-D3 def2-TZVP TIGHTSCF CHELPG PMODEL PAL8
|  3>
|  4> %base "14-192_DFT_AB"
|  5>
|  6> %scf
|  7> MaxIter 1000
|  8> end
|  9>
| 10> * xyz 0 1
| 11>   C                      -4.512315            -4.694352            1.680885
| 12>   O                      -4.699176            -5.792095            0.846117
| 13>   H                      -4.487098            -6.503456            1.462302
| 14>   H                      -4.873885            -4.787427            2.728087
| 15>   H                      -3.490901            -4.497704            1.788195
| 16>   H                      -4.901199            -3.718378            1.329174
| 17>   C                      -6.584690            -7.195652            3.447492
| 18>   O                      -5.507805            -7.782798            2.709112
| 19>   H                      -5.203316            -8.573387            3.161655
| 20>   H                      -6.331861            -6.998877            4.494355
| 21>   H                      -6.910347            -6.252243            3.016668
| 22>   H                      -7.437697            -7.868007            3.394576
| 23> *
| 24>
| 25> #Run DFT-D3 single point of the molecule with dimer basis set
| 26> $new_job
| 27> %base "14-192_DFT_A"
| 28> ! wB97X-D3 def2-TZVP TIGHTSCF CHELPG PMODEL
| 29>
| 30> %scf
| 31> MaxIter 1000
| 32> end
| 33>
| 34> * xyz 0 1
| 35>   C                      -4.512315            -4.694352            1.680885
| 36>   O                      -4.699176            -5.792095            0.846117
| 37>   H                      -4.487098            -6.503456            1.462302
| 38>   H                      -4.873885            -4.787427            2.728087
| 39>   H                      -3.490901            -4.497704            1.788195
| 40>   H                      -4.901199            -3.718378            1.329174
| 41>   C                    : -6.584690            -7.195652            3.447492
| 42>   O                    : -5.507805            -7.782798            2.709112
| 43>   H                    : -5.203316            -8.573387            3.161655
| 44>   H                    : -6.331861            -6.998877            4.494355
| 45>   H                    : -6.910347            -6.252243            3.016668
| 46>   H                    : -7.437697            -7.868007            3.394576
| 47> *
| 48>
| 49> #Run DFT-D3 single point of the particle with dimer basis set
| 50> $new_job
| 51> %base "14-192_DFT_B"
| 52> ! wB97X-D3 def2-TZVP TIGHTSCF CHELPG PMODEL
| 53>
| 54> %scf
| 55> MaxIter 1000
| 56> end
| 57>
| 58> * xyz 0 1
| 59>   C                    : -4.512315            -4.694352            1.680885
| 60>   O                    : -4.699176            -5.792095            0.846117
| 61>   H                    : -4.487098            -6.503456            1.462302
| 62>   H                    : -4.873885            -4.787427            2.728087
| 63>   H                    : -3.490901            -4.497704            1.788195
| 64>   H                    : -4.901199            -3.718378            1.329174
| 65>   C                      -6.584690            -7.195652            3.447492
| 66>   O                      -5.507805            -7.782798            2.709112
| 67>   H                      -5.203316            -8.573387            3.161655
| 68>   H                      -6.331861            -6.998877            4.494355
| 69>   H                      -6.910347            -6.252243            3.016668
| 70>   H                      -7.437697            -7.868007            3.394576
| 71> *
| 72>
| 73>                          ****END OF INPUT****
 Total Charge           Charge          ....    0
 Multiplicity           Mult            ....    1
 Number of Electrons    NEL             ....   36
Dispersion correction           -0.002143981
FINAL SINGLE POINT ENERGY      -231.471946244984
Dispersion correction           -0.000223510
FINAL SINGLE POINT ENERGY      -115.728627292766

CARTESIAN COORDINATES (ANGSTROEM)
---------------------------------
  C     -4.512315   -4.694352    1.680885
  O     -4.699176   -5.792095    0.846117
  H     -4.487098   -6.503456    1.462302
  H     -4.873885   -4.787427    2.728087
  H     -3.490901   -4.497704    1.788195
  H     -4.901199   -3.718378    1.329174
  C     -6.584690   -7.195652    3.447492
  O     -5.507805   -7.782798    2.709112
  H     -5.203316   -8.573387    3.161655
  H     -6.331861   -6.998877    4.494355
  H     -6.910347   -6.252243    3.016668
  H     -7.437697   -7.868007    3.394576

 Multiplicity           Mult            ....    1
 Number of Electrons    NEL             ....   18
 Basis Dimension        Dim             ....  172

ORBITAL ENERGIES
----------------

  NO   OCC          E(Eh)            E(eV)
   0   2.0000     -19.229454      -523.2600
   1   2.0000     -10.314001      -280.6582
   2   2.0000      -1.129620       -30.7385
   3   2.0000      -0.798260       -21.7218
   4   2.0000      -0.606361       -16.4999
   5   2.0000      -0.542259       -14.7556
   6   2.0000      -0.528465       -14.3803
   7   2.0000      -0.432019       -11.7558
   8   2.0000      -0.374125       -10.1805
   9   0.0000       0.096725         2.6320
  10   0.0000       0.125854         3.4247
  11   0.0000       0.151759         4.1296
  12   0.0000       0.192398         5.2354
  13   0.0000       0.202860         5.5201

MULLIKEN ATOMIC CHARGES
-----------------------
   0 C :   -0.000852
   1 O :    0.000780
   2 H :   -0.009148
   3 H :    0.000584
   4 H :   -0.000051
   5 H :   -0.000132
   6 C :   -0.157904
   7 O :   -0.477546
   8 H :    0.313092
   9 H :    0.103790
  10 H :    0.119509
  11 H :    0.107878
Sum of atomic charges:   -0.0000000

LOEWDIN ATOMIC CHARGES
----------------------
   0 C :   -0.006194
   1 O :   -0.005251
   2 H :   -0.032375
   3 H :   -0.002586
   4 H :   -0.000057
   5 H :   -0.000061
   6 C :   -0.363928
   7 O :   -0.057182
   8 H :    0.166774
   9 H :    0.096099
  10 H :    0.109164
  11 H :    0.095595

  Mayer bond orders larger than 0.1
B(  6-C ,  7-O ) :   0.9827 B(  6-C ,  9-H ) :   0.9744 B(  6-C , 10-H ) :   0.9750
B(  6-C , 11-H ) :   0.9785 B(  7-O ,  8-H ) :   0.8970

Dispersion correction           -0.000246858
FINAL SINGLE POINT ENERGY      -115.736210622495

DIPOLE MOMENT
-------------
                                X             Y             Z
Electronic contribution:      1.37267      -0.60502      -1.01122
Nuclear contribution   :     -1.63648       0.35002       1.60537
                        -----------------------------------------
Total Dipole Moment    :     -0.26381      -0.25500       0.59415
                        -----------------------------------------
Magnitude (a.u.)       :      0.69831
Magnitude (Debye)      :      1.77496

Rotational constants in cm-1:     4.360754     0.810432     0.785184
Rotational constants in MHz : 130732.105436 24296.136702 23539.230805

                             ****ORCA TERMINATED NORMALLY****
TOTAL RUN TIME: 0 days 0 hours 1 minutes 9 seconds 249 msec
