                         Program Version 4.1.2  - RELEASE  -
|  1> #Run DFT-D3 single point of the dimer
|  2> ! wB97X-D3 def2-TZVP TIGHTSCF CHELPG PMODEL PAL8
|  3>
|  4> %base "1-17_DFT_AB"
|  5>
|  6> %scf
|  7> MaxIter 1000
|  8> end
|  9>
| 10> * xyz 0 1
| 11>   C                      -2.881200            5.269052             1.066537
| 12>   O                      -2.445104            4.075524             0.341486
| 13>   H                      -2.756895            4.205874             -0.534556
| 14>   H                      -3.832270            5.165989             1.402556
| 15>   H                      -2.191036            5.618454             1.900053
| 16>   H                      -2.957396            6.094008             0.292697
| 17>   C                      -0.021919            8.009453             2.783988
| 18>   O                      -0.528219            7.199774             3.833651
| 19>   H                      0.125578             6.504699             4.084652
| 20>   H                      0.915588             8.444604             3.152632
| 21>   H                      0.145282             7.447361             1.830952
| 22>   H                      -0.773289            8.872872             2.476492
| 23> *
| 24>
| 25> #Run DFT-D3 single point of the molecule with dimer basis set
| 26> $new_job
| 27> %base "1-17_DFT_A"
| 28> ! wB97X-D3 def2-TZVP TIGHTSCF CHELPG PMODEL
| 29>
| 30> %scf
| 31> MaxIter 1000
| 32> end
| 33>
| 34> * xyz 0 1
| 35>   C                      -2.881200            5.269052             1.066537
| 36>   O                      -2.445104            4.075524             0.341486
| 37>   H                      -2.756895            4.205874             -0.534556
| 38>   H                      -3.832270            5.165989             1.402556
| 39>   H                      -2.191036            5.618454             1.900053
| 40>   H                      -2.957396            6.094008             0.292697
| 41>   C                    : -0.021919            8.009453             2.783988
| 42>   O                    : -0.528219            7.199774             3.833651
| 43>   H                    : 0.125578             6.504699             4.084652
| 44>   H                    : 0.915588             8.444604             3.152632
| 45>   H                    : 0.145282             7.447361             1.830952
| 46>   H                    : -0.773289            8.872872             2.476492
| 47> *
| 48>
| 49> #Run DFT-D3 single point of the particle with dimer basis set
| 50> $new_job
| 51> %base "1-17_DFT_B"
| 52> ! wB97X-D3 def2-TZVP TIGHTSCF CHELPG PMODEL
| 53>
| 54> %scf
| 55> MaxIter 1000
| 56> end
| 57>
| 58> * xyz 0 1
| 59>   C                    : -2.881200            5.269052             1.066537
| 60>   O                    : -2.445104            4.075524             0.341486
| 61>   H                    : -2.756895            4.205874             -0.534556
| 62>   H                    : -3.832270            5.165989             1.402556
| 63>   H                    : -2.191036            5.618454             1.900053
| 64>   H                    : -2.957396            6.094008             0.292697
| 65>   C                      -0.021919            8.009453             2.783988
| 66>   O                      -0.528219            7.199774             3.833651
| 67>   H                      0.125578             6.504699             4.084652
| 68>   H                      0.915588             8.444604             3.152632
| 69>   H                      0.145282             7.447361             1.830952
| 70>   H                      -0.773289            8.872872             2.476492
| 71> *
| 72>
| 73>                          ****END OF INPUT****
 Total Charge           Charge          ....    0
 Multiplicity           Mult            ....    1
 Number of Electrons    NEL             ....   36
Dispersion correction           -0.001356078
FINAL SINGLE POINT ENERGY      -231.455983081145
Dispersion correction           -0.000244874
FINAL SINGLE POINT ENERGY      -115.724526321070

CARTESIAN COORDINATES (ANGSTROEM)
---------------------------------
  C     -2.881200    5.269052    1.066537
  O     -2.445104    4.075524    0.341486
  H     -2.756895    4.205874   -0.534556
  H     -3.832270    5.165989    1.402556
  H     -2.191036    5.618454    1.900053
  H     -2.957396    6.094008    0.292697
  C     -0.021919    8.009453    2.783988
  O     -0.528219    7.199774    3.833651
  H      0.125578    6.504699    4.084652
  H      0.915588    8.444604    3.152632
  H      0.145282    7.447361    1.830952
  H     -0.773289    8.872872    2.476492

 Multiplicity           Mult            ....    1
 Number of Electrons    NEL             ....   18
 Basis Dimension        Dim             ....  172

ORBITAL ENERGIES
----------------

  NO   OCC          E(Eh)            E(eV)
   0   2.0000     -19.232291      -523.3372
   1   2.0000     -10.326587      -281.0007
   2   2.0000      -1.129082       -30.7239
   3   2.0000      -0.785092       -21.3634
   4   2.0000      -0.604593       -16.4518
   5   2.0000      -0.544400       -14.8139
   6   2.0000      -0.517865       -14.0918
   7   2.0000      -0.422975       -11.5097
   8   2.0000      -0.372712       -10.1420
   9   0.0000       0.088795         2.4162
  10   0.0000       0.115924         3.1545
  11   0.0000       0.144495         3.9319
  12   0.0000       0.176648         4.8068
  13   0.0000       0.187839         5.1114

MULLIKEN ATOMIC CHARGES
-----------------------
   0 C :    0.002108
   1 O :   -0.000019
   2 H :   -0.000004
   3 H :   -0.000056
   4 H :   -0.006949
   5 H :   -0.000149
   6 C :   -0.162854
   7 O :   -0.483113
   8 H :    0.319483
   9 H :    0.108344
  10 H :    0.105639
  11 H :    0.117569
Sum of atomic charges:   -0.0000000

LOEWDIN ATOMIC CHARGES
----------------------
   0 C :   -0.001091
   1 O :   -0.000014
   2 H :   -0.000002
   3 H :   -0.000007
   4 H :   -0.004868
   5 H :   -0.000061
   6 C :   -0.397772
   7 O :   -0.095401
   8 H :    0.183937
   9 H :    0.094913
  10 H :    0.096117
  11 H :    0.124250

  Mayer bond orders larger than 0.1
B(  6-C ,  7-O ) :   0.9803 B(  6-C ,  9-H ) :   0.9813 B(  6-C , 10-H ) :   0.9702
B(  6-C , 11-H ) :   0.9676 B(  7-O ,  8-H ) :   0.8896

Dispersion correction           -0.000261686
FINAL SINGLE POINT ENERGY      -115.729387309281

DIPOLE MOMENT
-------------
                                X             Y             Z
Electronic contribution:     -0.72559      -0.99645       1.37287
Nuclear contribution   :      1.35546       0.88144      -1.62401
                        -----------------------------------------
Total Dipole Moment    :      0.62986      -0.11501      -0.25113
                        -----------------------------------------
Magnitude (a.u.)       :      0.68777
Magnitude (Debye)      :      1.74816

Rotational constants in cm-1:     4.067474     0.813698     0.782873
Rotational constants in MHz : 121939.794877 24394.065683 23469.928170

                             ****ORCA TERMINATED NORMALLY****
TOTAL RUN TIME: 0 days 0 hours 6 minutes 15 seconds 602 msec
