                         Program Version 4.1.2  - RELEASE  -
|  1> #Run DFT-D3 single point of the dimer
|  2> ! wB97X-D3 def2-TZVP TIGHTSCF CHELPG PMODEL PAL8
|  3>
|  4> %base "22-66_DFT_AB"
|  5>
|  6> %scf
|  7> MaxIter 1000
|  8> end
|  9>
| 10> * xyz 0 1
| 11>   C                      7.094991             -5.874388            4.295036
| 12>   O                      6.607568             -5.115187            5.413430
| 13>   H                      6.014298             -4.411971            5.145993
| 14>   H                      6.600203             -5.667700            3.315345
| 15>   H                      8.165961             -5.827261            4.147364
| 16>   H                      6.868536             -6.907309            4.499651
| 17>   C                      9.813768             -4.368673            6.484752
| 18>   O                      9.133992             -5.558326            6.647676
| 19>   H                      8.232108             -5.329724            6.304824
| 20>   H                      10.888991            -4.387343            6.752246
| 21>   H                      9.611566             -4.010559            5.438671
| 22>   H                      9.447275             -3.557162            7.086190
| 23> *
| 24>
| 25> #Run DFT-D3 single point of the molecule with dimer basis set
| 26> $new_job
| 27> %base "22-66_DFT_A"
| 28> ! wB97X-D3 def2-TZVP TIGHTSCF CHELPG PMODEL
| 29>
| 30> %scf
| 31> MaxIter 1000
| 32> end
| 33>
| 34> * xyz 0 1
| 35>   C                      7.094991             -5.874388            4.295036
| 36>   O                      6.607568             -5.115187            5.413430
| 37>   H                      6.014298             -4.411971            5.145993
| 38>   H                      6.600203             -5.667700            3.315345
| 39>   H                      8.165961             -5.827261            4.147364
| 40>   H                      6.868536             -6.907309            4.499651
| 41>   C                    : 9.813768             -4.368673            6.484752
| 42>   O                    : 9.133992             -5.558326            6.647676
| 43>   H                    : 8.232108             -5.329724            6.304824
| 44>   H                    : 10.888991            -4.387343            6.752246
| 45>   H                    : 9.611566             -4.010559            5.438671
| 46>   H                    : 9.447275             -3.557162            7.086190
| 47> *
| 48>
| 49> #Run DFT-D3 single point of the particle with dimer basis set
| 50> $new_job
| 51> %base "22-66_DFT_B"
| 52> ! wB97X-D3 def2-TZVP TIGHTSCF CHELPG PMODEL
| 53>
| 54> %scf
| 55> MaxIter 1000
| 56> end
| 57>
| 58> * xyz 0 1
| 59>   C                    : 7.094991             -5.874388            4.295036
| 60>   O                    : 6.607568             -5.115187            5.413430
| 61>   H                    : 6.014298             -4.411971            5.145993
| 62>   H                    : 6.600203             -5.667700            3.315345
| 63>   H                    : 8.165961             -5.827261            4.147364
| 64>   H                    : 6.868536             -6.907309            4.499651
| 65>   C                      9.813768             -4.368673            6.484752
| 66>   O                      9.133992             -5.558326            6.647676
| 67>   H                      8.232108             -5.329724            6.304824
| 68>   H                      10.888991            -4.387343            6.752246
| 69>   H                      9.611566             -4.010559            5.438671
| 70>   H                      9.447275             -3.557162            7.086190
| 71> *
| 72>
| 73>                          ****END OF INPUT****
 Total Charge           Charge          ....    0
 Multiplicity           Mult            ....    1
 Number of Electrons    NEL             ....   36
Dispersion correction           -0.002140349
FINAL SINGLE POINT ENERGY      -231.471048503926
Dispersion correction           -0.000278292
FINAL SINGLE POINT ENERGY      -115.733466396503

CARTESIAN COORDINATES (ANGSTROEM)
---------------------------------
  C      7.094991   -5.874388    4.295036
  O      6.607568   -5.115187    5.413430
  H      6.014298   -4.411971    5.145993
  H      6.600203   -5.667700    3.315345
  H      8.165961   -5.827261    4.147364
  H      6.868536   -6.907309    4.499651
  C      9.813768   -4.368673    6.484752
  O      9.133992   -5.558326    6.647676
  H      8.232108   -5.329724    6.304824
  H     10.888991   -4.387343    6.752246
  H      9.611566   -4.010559    5.438671
  H      9.447275   -3.557162    7.086190

 Multiplicity           Mult            ....    1
 Number of Electrons    NEL             ....   18
 Basis Dimension        Dim             ....  172

ORBITAL ENERGIES
----------------

  NO   OCC          E(Eh)            E(eV)
   0   2.0000     -19.238085      -523.4949
   1   2.0000     -10.313734      -280.6510
   2   2.0000      -1.148442       -31.2507
   3   2.0000      -0.788561       -21.4578
   4   2.0000      -0.617249       -16.7962
   5   2.0000      -0.547644       -14.9021
   6   2.0000      -0.528738       -14.3877
   7   2.0000      -0.438333       -11.9276
   8   2.0000      -0.368821       -10.0361
   9   0.0000       0.068906         1.8750
  10   0.0000       0.137371         3.7380
  11   0.0000       0.151162         4.1133
  12   0.0000       0.162886         4.4324
  13   0.0000       0.185510         5.0480

MULLIKEN ATOMIC CHARGES
-----------------------
   0 C :   -0.008100
   1 O :   -0.002850
   2 H :   -0.000071
   3 H :   -0.000396
   4 H :   -0.002590
   5 H :    0.000806
   6 C :   -0.184047
   7 O :   -0.445241
   8 H :    0.320557
   9 H :    0.122670
  10 H :    0.093731
  11 H :    0.105532
Sum of atomic charges:   -0.0000000

LOEWDIN ATOMIC CHARGES
----------------------
   0 C :   -0.018192
   1 O :   -0.021687
   2 H :   -0.000935
   3 H :   -0.000194
   4 H :   -0.005948
   5 H :   -0.000646
   6 C :   -0.423799
   7 O :   -0.040237
   8 H :    0.212787
   9 H :    0.111658
  10 H :    0.099342
  11 H :    0.087851

  Mayer bond orders larger than 0.1
B(  6-C ,  7-O ) :   1.0012 B(  6-C ,  9-H ) :   0.9700 B(  6-C , 10-H ) :   0.9830
B(  6-C , 11-H ) :   0.9775 B(  7-O ,  8-H ) :   0.8982

Dispersion correction           -0.000213604
FINAL SINGLE POINT ENERGY      -115.729008322670

DIPOLE MOMENT
-------------
                                X             Y             Z
Electronic contribution:     -0.68005      -1.79368       0.36539
Nuclear contribution   :      0.38748       2.37599      -0.59676
                        -----------------------------------------
Total Dipole Moment    :     -0.29257       0.58231      -0.23137
                        -----------------------------------------
Magnitude (a.u.)       :      0.69153
Magnitude (Debye)      :      1.75773

Rotational constants in cm-1:     4.224560     0.871151     0.822363
Rotational constants in MHz : 126649.128782 26116.462877 24653.809433

                             ****ORCA TERMINATED NORMALLY****
TOTAL RUN TIME: 0 days 0 hours 1 minutes 0 seconds 68 msec
