                         Program Version 4.1.2  - RELEASE  -
|  1> #Run DFT-D3 single point of the dimer
|  2> ! wB97X-D3 def2-TZVP TIGHTSCF CHELPG PMODEL PAL8
|  3>
|  4> %base "19-206_DFT_AB"
|  5>
|  6> %scf
|  7> MaxIter 1000
|  8> end
|  9>
| 10> * xyz 0 1
| 11>   C                      4.295671             3.733466             0.817341
| 12>   O                      2.897017             3.811469             0.464852
| 13>   H                      2.560319             3.075837             0.969836
| 14>   H                      4.950979             4.390941             0.274118
| 15>   H                      4.439813             4.079853             1.906679
| 16>   H                      4.730280             2.730398             0.723484
| 17>   C                      1.550472             2.691775             3.242156
| 18>   O                      0.851878             2.735374             1.989813
| 19>   H                      -0.067199            2.404889             2.121764
| 20>   H                      0.871757             2.590793             4.113144
| 21>   H                      2.285522             1.838047             3.182843
| 22>   H                      2.106612             3.612805             3.357390
| 23> *
| 24>
| 25> #Run DFT-D3 single point of the molecule with dimer basis set
| 26> $new_job
| 27> %base "19-206_DFT_A"
| 28> ! wB97X-D3 def2-TZVP TIGHTSCF CHELPG PMODEL
| 29>
| 30> %scf
| 31> MaxIter 1000
| 32> end
| 33>
| 34> * xyz 0 1
| 35>   C                      4.295671             3.733466             0.817341
| 36>   O                      2.897017             3.811469             0.464852
| 37>   H                      2.560319             3.075837             0.969836
| 38>   H                      4.950979             4.390941             0.274118
| 39>   H                      4.439813             4.079853             1.906679
| 40>   H                      4.730280             2.730398             0.723484
| 41>   C                    : 1.550472             2.691775             3.242156
| 42>   O                    : 0.851878             2.735374             1.989813
| 43>   H                    : -0.067199            2.404889             2.121764
| 44>   H                    : 0.871757             2.590793             4.113144
| 45>   H                    : 2.285522             1.838047             3.182843
| 46>   H                    : 2.106612             3.612805             3.357390
| 47> *
| 48>
| 49> #Run DFT-D3 single point of the particle with dimer basis set
| 50> $new_job
| 51> %base "19-206_DFT_B"
| 52> ! wB97X-D3 def2-TZVP TIGHTSCF CHELPG PMODEL
| 53>
| 54> %scf
| 55> MaxIter 1000
| 56> end
| 57>
| 58> * xyz 0 1
| 59>   C                    : 4.295671             3.733466             0.817341
| 60>   O                    : 2.897017             3.811469             0.464852
| 61>   H                    : 2.560319             3.075837             0.969836
| 62>   H                    : 4.950979             4.390941             0.274118
| 63>   H                    : 4.439813             4.079853             1.906679
| 64>   H                    : 4.730280             2.730398             0.723484
| 65>   C                      1.550472             2.691775             3.242156
| 66>   O                      0.851878             2.735374             1.989813
| 67>   H                      -0.067199            2.404889             2.121764
| 68>   H                      0.871757             2.590793             4.113144
| 69>   H                      2.285522             1.838047             3.182843
| 70>   H                      2.106612             3.612805             3.357390
| 71> *
| 72>
| 73>                          ****END OF INPUT****
 Total Charge           Charge          ....    0
 Multiplicity           Mult            ....    1
 Number of Electrons    NEL             ....   36
Dispersion correction           -0.002070331
FINAL SINGLE POINT ENERGY      -231.467394113505
Dispersion correction           -0.000250691
FINAL SINGLE POINT ENERGY      -115.731172750178

CARTESIAN COORDINATES (ANGSTROEM)
---------------------------------
  C      4.295671    3.733466    0.817341
  O      2.897017    3.811469    0.464852
  H      2.560319    3.075837    0.969836
  H      4.950979    4.390941    0.274118
  H      4.439813    4.079853    1.906679
  H      4.730280    2.730398    0.723484
  C      1.550472    2.691775    3.242156
  O      0.851878    2.735374    1.989813
  H     -0.067199    2.404889    2.121764
  H      0.871757    2.590793    4.113144
  H      2.285522    1.838047    3.182843
  H      2.106612    3.612805    3.357390

 Multiplicity           Mult            ....    1
 Number of Electrons    NEL             ....   18
 Basis Dimension        Dim             ....  172

ORBITAL ENERGIES
----------------

  NO   OCC          E(Eh)            E(eV)
   0   2.0000     -19.230546      -523.2898
   1   2.0000     -10.318645      -280.7846
   2   2.0000      -1.123950       -30.5842
   3   2.0000      -0.791041       -21.5253
   4   2.0000      -0.603477       -16.4215
   5   2.0000      -0.536608       -14.6019
   6   2.0000      -0.522940       -14.2299
   7   2.0000      -0.434483       -11.8229
   8   2.0000      -0.370844       -10.0912
   9   0.0000       0.093980         2.5573
  10   0.0000       0.118421         3.2224
  11   0.0000       0.154433         4.2023
  12   0.0000       0.183812         5.0018
  13   0.0000       0.187463         5.1011

MULLIKEN ATOMIC CHARGES
-----------------------
   0 C :    0.002043
   1 O :    0.001052
   2 H :   -0.009945
   3 H :    0.000091
   4 H :   -0.000208
   5 H :   -0.000350
   6 C :   -0.172732
   7 O :   -0.477301
   8 H :    0.313650
   9 H :    0.113222
  10 H :    0.108838
  11 H :    0.121640
Sum of atomic charges:    0.0000000

LOEWDIN ATOMIC CHARGES
----------------------
   0 C :   -0.002260
   1 O :   -0.007641
   2 H :   -0.029095
   3 H :   -0.000008
   4 H :   -0.001155
   5 H :   -0.000078
   6 C :   -0.368684
   7 O :   -0.081272
   8 H :    0.179990
   9 H :    0.100174
  10 H :    0.106923
  11 H :    0.103106

  Mayer bond orders larger than 0.1
B(  6-C ,  7-O ) :   0.9899 B(  6-C ,  9-H ) :   0.9701 B(  6-C , 10-H ) :   0.9804
B(  6-C , 11-H ) :   0.9754 B(  7-O ,  8-H ) :   0.8962

Dispersion correction           -0.000260684
FINAL SINGLE POINT ENERGY      -115.734054783185

DIPOLE MOMENT
-------------
                                X             Y             Z
Electronic contribution:     -0.79873       0.13748      -1.57251
Nuclear contribution   :      0.47992      -0.34413       2.17875
                        -----------------------------------------
Total Dipole Moment    :     -0.31881      -0.20665       0.60624
                        -----------------------------------------
Magnitude (a.u.)       :      0.71545
Magnitude (Debye)      :      1.81853

Rotational constants in cm-1:     4.131286     0.811331     0.782322
Rotational constants in MHz : 123852.848409 24323.087877 23453.433019

                             ****ORCA TERMINATED NORMALLY****
TOTAL RUN TIME: 0 days 0 hours 0 minutes 51 seconds 306 msec
