                         Program Version 4.1.2  - RELEASE  -
|  1> #Run DFT-D3 single point of the dimer
|  2> ! wB97X-D3 def2-TZVP TIGHTSCF CHELPG PMODEL PAL8
|  3>
|  4> %base "22-101_DFT_AB"
|  5>
|  6> %scf
|  7> MaxIter 1000
|  8> end
|  9>
| 10> * xyz 0 1
| 11>   C                      8.152796             8.556054             -5.321419
| 12>   O                      6.909219             9.044673             -4.812207
| 13>   H                      6.285718             8.702034             -5.470259
| 14>   H                      8.064256             8.349003             -6.365875
| 15>   H                      9.010342             9.257000             -5.240811
| 16>   H                      8.377186             7.606242             -4.788367
| 17>   C                      8.731289             11.229532            -2.875286
| 18>   O                      7.314470             11.463683            -2.924470
| 19>   H                      6.838119             10.783308            -3.419614
| 20>   H                      8.907719             10.207985            -2.506736
| 21>   H                      9.225511             11.278878            -3.791571
| 22>   H                      9.287927             11.966581            -2.234232
| 23> *
| 24>
| 25> #Run DFT-D3 single point of the molecule with dimer basis set
| 26> $new_job
| 27> %base "22-101_DFT_A"
| 28> ! wB97X-D3 def2-TZVP TIGHTSCF CHELPG PMODEL
| 29>
| 30> %scf
| 31> MaxIter 1000
| 32> end
| 33>
| 34> * xyz 0 1
| 35>   C                      8.152796             8.556054             -5.321419
| 36>   O                      6.909219             9.044673             -4.812207
| 37>   H                      6.285718             8.702034             -5.470259
| 38>   H                      8.064256             8.349003             -6.365875
| 39>   H                      9.010342             9.257000             -5.240811
| 40>   H                      8.377186             7.606242             -4.788367
| 41>   C                    : 8.731289             11.229532            -2.875286
| 42>   O                    : 7.314470             11.463683            -2.924470
| 43>   H                    : 6.838119             10.783308            -3.419614
| 44>   H                    : 8.907719             10.207985            -2.506736
| 45>   H                    : 9.225511             11.278878            -3.791571
| 46>   H                    : 9.287927             11.966581            -2.234232
| 47> *
| 48>
| 49> #Run DFT-D3 single point of the particle with dimer basis set
| 50> $new_job
| 51> %base "22-101_DFT_B"
| 52> ! wB97X-D3 def2-TZVP TIGHTSCF CHELPG PMODEL
| 53>
| 54> %scf
| 55> MaxIter 1000
| 56> end
| 57>
| 58> * xyz 0 1
| 59>   C                    : 8.152796             8.556054             -5.321419
| 60>   O                    : 6.909219             9.044673             -4.812207
| 61>   H                    : 6.285718             8.702034             -5.470259
| 62>   H                    : 8.064256             8.349003             -6.365875
| 63>   H                    : 9.010342             9.257000             -5.240811
| 64>   H                    : 8.377186             7.606242             -4.788367
| 65>   C                      8.731289             11.229532            -2.875286
| 66>   O                      7.314470             11.463683            -2.924470
| 67>   H                      6.838119             10.783308            -3.419614
| 68>   H                      8.907719             10.207985            -2.506736
| 69>   H                      9.225511             11.278878            -3.791571
| 70>   H                      9.287927             11.966581            -2.234232
| 71> *
| 72>
| 73>                          ****END OF INPUT****
 Total Charge           Charge          ....    0
 Multiplicity           Mult            ....    1
 Number of Electrons    NEL             ....   36
Dispersion correction           -0.002162583
FINAL SINGLE POINT ENERGY      -231.469943281704
Dispersion correction           -0.000234502
FINAL SINGLE POINT ENERGY      -115.732078781219

CARTESIAN COORDINATES (ANGSTROEM)
---------------------------------
  C      8.152796    8.556054   -5.321419
  O      6.909219    9.044673   -4.812207
  H      6.285718    8.702034   -5.470259
  H      8.064256    8.349003   -6.365875
  H      9.010342    9.257000   -5.240811
  H      8.377186    7.606242   -4.788367
  C      8.731289   11.229532   -2.875286
  O      7.314470   11.463683   -2.924470
  H      6.838119   10.783308   -3.419614
  H      8.907719   10.207985   -2.506736
  H      9.225511   11.278878   -3.791571
  H      9.287927   11.966581   -2.234232

 Multiplicity           Mult            ....    1
 Number of Electrons    NEL             ....   18
 Basis Dimension        Dim             ....  172

ORBITAL ENERGIES
----------------

  NO   OCC          E(Eh)            E(eV)
   0   2.0000     -19.229724      -523.2674
   1   2.0000     -10.314236      -280.6646
   2   2.0000      -1.124784       -30.6069
   3   2.0000      -0.800662       -21.7871
   4   2.0000      -0.610115       -16.6021
   5   2.0000      -0.539939       -14.6925
   6   2.0000      -0.523181       -14.2365
   7   2.0000      -0.428856       -11.6698
   8   2.0000      -0.373609       -10.1664
   9   0.0000       0.071043         1.9332
  10   0.0000       0.129268         3.5176
  11   0.0000       0.143265         3.8984
  12   0.0000       0.177313         4.8249
  13   0.0000       0.181830         4.9478

MULLIKEN ATOMIC CHARGES
-----------------------
   0 C :    0.000729
   1 O :   -0.003092
   2 H :   -0.000303
   3 H :   -0.000024
   4 H :   -0.001981
   5 H :   -0.000273
   6 C :   -0.166442
   7 O :   -0.489148
   8 H :    0.318997
   9 H :    0.102125
  10 H :    0.113168
  11 H :    0.126244
Sum of atomic charges:   -0.0000000

LOEWDIN ATOMIC CHARGES
----------------------
   0 C :   -0.005189
   1 O :   -0.010631
   2 H :   -0.000541
   3 H :   -0.000032
   4 H :   -0.003361
   5 H :   -0.000139
   6 C :   -0.362336
   7 O :   -0.091565
   8 H :    0.173056
   9 H :    0.099156
  10 H :    0.084498
  11 H :    0.117081

  Mayer bond orders larger than 0.1
B(  6-C ,  7-O ) :   0.9859 B(  6-C ,  9-H ) :   0.9873 B(  6-C , 10-H ) :   0.9711
B(  6-C , 11-H ) :   0.9696 B(  7-O ,  8-H ) :   0.8984

Dispersion correction           -0.000263086
FINAL SINGLE POINT ENERGY      -115.730897222966

DIPOLE MOMENT
-------------
                                X             Y             Z
Electronic contribution:     -1.79424       0.46424      -0.03867
Nuclear contribution   :      2.09852      -0.99551      -0.27788
                        -----------------------------------------
Total Dipole Moment    :      0.30428      -0.53127      -0.31654
                        -----------------------------------------
Magnitude (a.u.)       :      0.68923
Magnitude (Debye)      :      1.75188

Rotational constants in cm-1:     4.471782     0.800872     0.767374
Rotational constants in MHz : 134060.659330 24009.532295 23005.293745

                             ****ORCA TERMINATED NORMALLY****
TOTAL RUN TIME: 0 days 0 hours 0 minutes 59 seconds 636 msec
