                         Program Version 4.1.2  - RELEASE  -
|  1> #Run DFT-D3 single point of the dimer
|  2> ! wB97X-D3 def2-TZVP TIGHTSCF CHELPG PMODEL PAL8
|  3>
|  4> %base "4-158_DFT_AB"
|  5>
|  6> %scf
|  7> MaxIter 1000
|  8> end
|  9>
| 10> * xyz 0 1
| 11>   C                      7.497052             2.270548             -2.229564
| 12>   O                      7.274644             2.219434             -0.824995
| 13>   H                      7.353373             3.087960             -0.498924
| 14>   H                      6.908298             1.511459             -2.771878
| 15>   H                      7.202090             3.245681             -2.504666
| 16>   H                      8.554469             2.117082             -2.447961
| 17>   C                      5.195705             -0.195321            0.932936
| 18>   O                      6.574999             -0.265906            0.859164
| 19>   H                      6.862757             0.404760             0.288852
| 20>   H                      4.796757             -0.787250            0.115151
| 21>   H                      4.839255             -0.751149            1.843127
| 22>   H                      4.779891             0.802732             0.921515
| 23> *
| 24>
| 25> #Run DFT-D3 single point of the molecule with dimer basis set
| 26> $new_job
| 27> %base "4-158_DFT_A"
| 28> ! wB97X-D3 def2-TZVP TIGHTSCF CHELPG PMODEL
| 29>
| 30> %scf
| 31> MaxIter 1000
| 32> end
| 33>
| 34> * xyz 0 1
| 35>   C                      7.497052             2.270548             -2.229564
| 36>   O                      7.274644             2.219434             -0.824995
| 37>   H                      7.353373             3.087960             -0.498924
| 38>   H                      6.908298             1.511459             -2.771878
| 39>   H                      7.202090             3.245681             -2.504666
| 40>   H                      8.554469             2.117082             -2.447961
| 41>   C                    : 5.195705             -0.195321            0.932936
| 42>   O                    : 6.574999             -0.265906            0.859164
| 43>   H                    : 6.862757             0.404760             0.288852
| 44>   H                    : 4.796757             -0.787250            0.115151
| 45>   H                    : 4.839255             -0.751149            1.843127
| 46>   H                    : 4.779891             0.802732             0.921515
| 47> *
| 48>
| 49> #Run DFT-D3 single point of the particle with dimer basis set
| 50> $new_job
| 51> %base "4-158_DFT_B"
| 52> ! wB97X-D3 def2-TZVP TIGHTSCF CHELPG PMODEL
| 53>
| 54> %scf
| 55> MaxIter 1000
| 56> end
| 57>
| 58> * xyz 0 1
| 59>   C                    : 7.497052             2.270548             -2.229564
| 60>   O                    : 7.274644             2.219434             -0.824995
| 61>   H                    : 7.353373             3.087960             -0.498924
| 62>   H                    : 6.908298             1.511459             -2.771878
| 63>   H                    : 7.202090             3.245681             -2.504666
| 64>   H                    : 8.554469             2.117082             -2.447961
| 65>   C                      5.195705             -0.195321            0.932936
| 66>   O                      6.574999             -0.265906            0.859164
| 67>   H                      6.862757             0.404760             0.288852
| 68>   H                      4.796757             -0.787250            0.115151
| 69>   H                      4.839255             -0.751149            1.843127
| 70>   H                      4.779891             0.802732             0.921515
| 71> *
| 72>
| 73>                          ****END OF INPUT****
 Total Charge           Charge          ....    0
 Multiplicity           Mult            ....    1
 Number of Electrons    NEL             ....   36
Dispersion correction           -0.001563256
FINAL SINGLE POINT ENERGY      -231.473782817546
Dispersion correction           -0.000223534
FINAL SINGLE POINT ENERGY      -115.732640185510

CARTESIAN COORDINATES (ANGSTROEM)
---------------------------------
  C      7.497052    2.270548   -2.229564
  O      7.274644    2.219434   -0.824995
  H      7.353373    3.087960   -0.498924
  H      6.908298    1.511459   -2.771878
  H      7.202090    3.245681   -2.504666
  H      8.554469    2.117082   -2.447961
  C      5.195705   -0.195321    0.932936
  O      6.574999   -0.265906    0.859164
  H      6.862757    0.404760    0.288852
  H      4.796757   -0.787250    0.115151
  H      4.839255   -0.751149    1.843127
  H      4.779891    0.802732    0.921515

 Multiplicity           Mult            ....    1
 Number of Electrons    NEL             ....   18
 Basis Dimension        Dim             ....  172

ORBITAL ENERGIES
----------------

  NO   OCC          E(Eh)            E(eV)
   0   2.0000     -19.226773      -523.1871
   1   2.0000     -10.310529      -280.5638
   2   2.0000      -1.153292       -31.3827
   3   2.0000      -0.796686       -21.6789
   4   2.0000      -0.621570       -16.9138
   5   2.0000      -0.546923       -14.8825
   6   2.0000      -0.529315       -14.4034
   7   2.0000      -0.434993       -11.8368
   8   2.0000      -0.370403       -10.0792
   9   0.0000       0.069555         1.8927
  10   0.0000       0.131521         3.5789
  11   0.0000       0.154253         4.1974
  12   0.0000       0.161641         4.3985
  13   0.0000       0.193409         5.2629

MULLIKEN ATOMIC CHARGES
-----------------------
   0 C :   -0.001639
   1 O :   -0.002299
   2 H :   -0.000176
   3 H :   -0.000054
   4 H :   -0.000004
   5 H :    0.000138
   6 C :   -0.166685
   7 O :   -0.452968
   8 H :    0.305331
   9 H :    0.101373
  10 H :    0.112486
  11 H :    0.104498
Sum of atomic charges:   -0.0000000

LOEWDIN ATOMIC CHARGES
----------------------
   0 C :   -0.001852
   1 O :   -0.010703
   2 H :   -0.000624
   3 H :   -0.000199
   4 H :   -0.000049
   5 H :   -0.000032
   6 C :   -0.407673
   7 O :   -0.030329
   8 H :    0.151492
   9 H :    0.093659
  10 H :    0.113860
  11 H :    0.092450

  Mayer bond orders larger than 0.1
B(  6-C ,  7-O ) :   0.9916 B(  6-C ,  9-H ) :   0.9832 B(  6-C , 10-H ) :   0.9751
B(  6-C , 11-H ) :   0.9732 B(  7-O ,  8-H ) :   0.9182

Dispersion correction           -0.000224120
FINAL SINGLE POINT ENERGY      -115.733022923841

DIPOLE MOMENT
-------------
                                X             Y             Z
Electronic contribution:      1.83211      -0.03503      -0.01596
Nuclear contribution   :     -2.16786       0.50089      -0.32386
                        -----------------------------------------
Total Dipole Moment    :     -0.33575       0.46586      -0.33982
                        -----------------------------------------
Magnitude (a.u.)       :      0.66726
Magnitude (Debye)      :      1.69603

Rotational constants in cm-1:     4.343646     0.865726     0.830660
Rotational constants in MHz : 130219.234669 25953.818331 24902.546152

                             ****ORCA TERMINATED NORMALLY****
TOTAL RUN TIME: 0 days 0 hours 1 minutes 27 seconds 421 msec
