                         Program Version 4.1.2  - RELEASE  -
|  1> #Run DFT-D3 single point of the dimer
|  2> ! wB97X-D3 def2-TZVP TIGHTSCF CHELPG PMODEL PAL8
|  3>
|  4> %base "3-190_DFT_AB"
|  5>
|  6> %scf
|  7> MaxIter 1000
|  8> end
|  9>
| 10> * xyz 0 1
| 11>   C                      -2.126235            -0.360681            -2.637112
| 12>   O                      -1.117700            -1.154782            -3.243928
| 13>   H                      -0.344218            -1.171476            -2.675353
| 14>   H                      -2.847046            -0.072665            -3.423563
| 15>   H                      -2.661588            -0.937043            -1.872576
| 16>   H                      -1.636193            0.528980             -2.202952
| 17>   C                      2.034985             -2.744475            -5.817266
| 18>   O                      2.736555             -2.909609            -4.626492
| 19>   H                      2.092520             -3.008004            -3.924737
| 20>   H                      2.544298             -3.003204            -6.733796
| 21>   H                      1.109340             -3.362636            -5.890541
| 22>   H                      1.652417             -1.735797            -6.016755
| 23> *
| 24>
| 25> #Run DFT-D3 single point of the molecule with dimer basis set
| 26> $new_job
| 27> %base "3-190_DFT_A"
| 28> ! wB97X-D3 def2-TZVP TIGHTSCF CHELPG PMODEL
| 29>
| 30> %scf
| 31> MaxIter 1000
| 32> end
| 33>
| 34> * xyz 0 1
| 35>   C                      -2.126235            -0.360681            -2.637112
| 36>   O                      -1.117700            -1.154782            -3.243928
| 37>   H                      -0.344218            -1.171476            -2.675353
| 38>   H                      -2.847046            -0.072665            -3.423563
| 39>   H                      -2.661588            -0.937043            -1.872576
| 40>   H                      -1.636193            0.528980             -2.202952
| 41>   C                    : 2.034985             -2.744475            -5.817266
| 42>   O                    : 2.736555             -2.909609            -4.626492
| 43>   H                    : 2.092520             -3.008004            -3.924737
| 44>   H                    : 2.544298             -3.003204            -6.733796
| 45>   H                    : 1.109340             -3.362636            -5.890541
| 46>   H                    : 1.652417             -1.735797            -6.016755
| 47> *
| 48>
| 49> #Run DFT-D3 single point of the particle with dimer basis set
| 50> $new_job
| 51> %base "3-190_DFT_B"
| 52> ! wB97X-D3 def2-TZVP TIGHTSCF CHELPG PMODEL
| 53>
| 54> %scf
| 55> MaxIter 1000
| 56> end
| 57>
| 58> * xyz 0 1
| 59>   C                    : -2.126235            -0.360681            -2.637112
| 60>   O                    : -1.117700            -1.154782            -3.243928
| 61>   H                    : -0.344218            -1.171476            -2.675353
| 62>   H                    : -2.847046            -0.072665            -3.423563
| 63>   H                    : -2.661588            -0.937043            -1.872576
| 64>   H                    : -1.636193            0.528980             -2.202952
| 65>   C                      2.034985             -2.744475            -5.817266
| 66>   O                      2.736555             -2.909609            -4.626492
| 67>   H                      2.092520             -3.008004            -3.924737
| 68>   H                      2.544298             -3.003204            -6.733796
| 69>   H                      1.109340             -3.362636            -5.890541
| 70>   H                      1.652417             -1.735797            -6.016755
| 71> *
| 72>
| 73>                          ****END OF INPUT****
 Total Charge           Charge          ....    0
 Multiplicity           Mult            ....    1
 Number of Electrons    NEL             ....   36
Dispersion correction           -0.000952879
FINAL SINGLE POINT ENERGY      -231.469016179793
Dispersion correction           -0.000235215
FINAL SINGLE POINT ENERGY      -115.736211708758

CARTESIAN COORDINATES (ANGSTROEM)
---------------------------------
  C     -2.126235   -0.360681   -2.637112
  O     -1.117700   -1.154782   -3.243928
  H     -0.344218   -1.171476   -2.675353
  H     -2.847046   -0.072665   -3.423563
  H     -2.661588   -0.937043   -1.872576
  H     -1.636193    0.528980   -2.202952
  C      2.034985   -2.744475   -5.817266
  O      2.736555   -2.909609   -4.626492
  H      2.092520   -3.008004   -3.924737
  H      2.544298   -3.003204   -6.733796
  H      1.109340   -3.362636   -5.890541
  H      1.652417   -1.735797   -6.016755

 Multiplicity           Mult            ....    1
 Number of Electrons    NEL             ....   18
 Basis Dimension        Dim             ....  172

ORBITAL ENERGIES
----------------

  NO   OCC          E(Eh)            E(eV)
   0   2.0000     -19.236335      -523.4473
   1   2.0000     -10.312776      -280.6249
   2   2.0000      -1.146747       -31.2046
   3   2.0000      -0.798099       -21.7174
   4   2.0000      -0.620891       -16.8953
   5   2.0000      -0.536904       -14.6099
   6   2.0000      -0.533971       -14.5301
   7   2.0000      -0.431711       -11.7475
   8   2.0000      -0.374679       -10.1955
   9   0.0000       0.077555         2.1104
  10   0.0000       0.110790         3.0148
  11   0.0000       0.147909         4.0248
  12   0.0000       0.176812         4.8113
  13   0.0000       0.194283         5.2867

MULLIKEN ATOMIC CHARGES
-----------------------
   0 C :    0.000042
   1 O :    0.000064
   2 H :   -0.000564
   3 H :   -0.000002
   4 H :   -0.000004
   5 H :   -0.000002
   6 C :   -0.168722
   7 O :   -0.462952
   8 H :    0.320924
   9 H :    0.121482
  10 H :    0.095136
  11 H :    0.094598
Sum of atomic charges:   -0.0000000

LOEWDIN ATOMIC CHARGES
----------------------
   0 C :   -0.000017
   1 O :   -0.000094
   2 H :   -0.000465
   3 H :   -0.000002
   4 H :   -0.000000
   5 H :   -0.000001
   6 C :   -0.414346
   7 O :   -0.053059
   8 H :    0.173686
   9 H :    0.104082
  10 H :    0.097791
  11 H :    0.092425

  Mayer bond orders larger than 0.1
B(  6-C ,  7-O ) :   1.0119 B(  6-C ,  9-H ) :   0.9735 B(  6-C , 10-H ) :   0.9829
B(  6-C , 11-H ) :   0.9729 B(  7-O ,  8-H ) :   0.8966

Dispersion correction           -0.000255301
FINAL SINGLE POINT ENERGY      -115.732060441826

DIPOLE MOMENT
-------------
                                X             Y             Z
Electronic contribution:      1.23930      -0.21799       1.63434
Nuclear contribution   :     -1.91705       0.20022      -1.64602
                        -----------------------------------------
Total Dipole Moment    :     -0.67775      -0.01777      -0.01167
                        -----------------------------------------
Magnitude (a.u.)       :      0.67808
Magnitude (Debye)      :      1.72355

Rotational constants in cm-1:     4.535094     0.832740     0.803423
Rotational constants in MHz : 135958.691236 24964.907359 24086.009252

                             ****ORCA TERMINATED NORMALLY****
TOTAL RUN TIME: 0 days 0 hours 6 minutes 13 seconds 981 msec
