                         Program Version 4.1.2  - RELEASE  -
|  1> #Run DFT-D3 single point of the dimer
|  2> ! wB97X-D3 def2-TZVP TIGHTSCF CHELPG PMODEL PAL8
|  3>
|  4> %base "15-42_DFT_AB"
|  5>
|  6> %scf
|  7> MaxIter 1000
|  8> end
|  9>
| 10> * xyz 0 1
| 11>   C                      7.027536             3.700445             1.588677
| 12>   O                      7.121738             4.093266             0.247516
| 13>   H                      7.366341             3.333908             -0.299382
| 14>   H                      8.023769             3.471064             2.076743
| 15>   H                      6.544191             4.464693             2.197487
| 16>   H                      6.420623             2.848499             1.708700
| 17>   C                      4.368537             5.393558             -2.809895
| 18>   O                      3.561577             5.915263             -3.882099
| 19>   H                      2.747769             6.147654             -3.483270
| 20>   H                      4.522148             6.098134             -2.062670
| 21>   H                      3.985404             4.497609             -2.348490
| 22>   H                      5.365098             5.152908             -3.121065
| 23> *
| 24>
| 25> #Run DFT-D3 single point of the molecule with dimer basis set
| 26> $new_job
| 27> %base "15-42_DFT_A"
| 28> ! wB97X-D3 def2-TZVP TIGHTSCF CHELPG PMODEL
| 29>
| 30> %scf
| 31> MaxIter 1000
| 32> end
| 33>
| 34> * xyz 0 1
| 35>   C                      7.027536             3.700445             1.588677
| 36>   O                      7.121738             4.093266             0.247516
| 37>   H                      7.366341             3.333908             -0.299382
| 38>   H                      8.023769             3.471064             2.076743
| 39>   H                      6.544191             4.464693             2.197487
| 40>   H                      6.420623             2.848499             1.708700
| 41>   C                    : 4.368537             5.393558             -2.809895
| 42>   O                    : 3.561577             5.915263             -3.882099
| 43>   H                    : 2.747769             6.147654             -3.483270
| 44>   H                    : 4.522148             6.098134             -2.062670
| 45>   H                    : 3.985404             4.497609             -2.348490
| 46>   H                    : 5.365098             5.152908             -3.121065
| 47> *
| 48>
| 49> #Run DFT-D3 single point of the particle with dimer basis set
| 50> $new_job
| 51> %base "15-42_DFT_B"
| 52> ! wB97X-D3 def2-TZVP TIGHTSCF CHELPG PMODEL
| 53>
| 54> %scf
| 55> MaxIter 1000
| 56> end
| 57>
| 58> * xyz 0 1
| 59>   C                    : 7.027536             3.700445             1.588677
| 60>   O                    : 7.121738             4.093266             0.247516
| 61>   H                    : 7.366341             3.333908             -0.299382
| 62>   H                    : 8.023769             3.471064             2.076743
| 63>   H                    : 6.544191             4.464693             2.197487
| 64>   H                    : 6.420623             2.848499             1.708700
| 65>   C                      4.368537             5.393558             -2.809895
| 66>   O                      3.561577             5.915263             -3.882099
| 67>   H                      2.747769             6.147654             -3.483270
| 68>   H                      4.522148             6.098134             -2.062670
| 69>   H                      3.985404             4.497609             -2.348490
| 70>   H                      5.365098             5.152908             -3.121065
| 71> *
| 72>
| 73>                          ****END OF INPUT****
 Total Charge           Charge          ....    0
 Multiplicity           Mult            ....    1
 Number of Electrons    NEL             ....   36
Dispersion correction           -0.000848445
FINAL SINGLE POINT ENERGY      -231.467332759137
Dispersion correction           -0.000247625
FINAL SINGLE POINT ENERGY      -115.734611401703

CARTESIAN COORDINATES (ANGSTROEM)
---------------------------------
  C      7.027536    3.700445    1.588677
  O      7.121738    4.093266    0.247516
  H      7.366341    3.333908   -0.299382
  H      8.023769    3.471064    2.076743
  H      6.544191    4.464693    2.197487
  H      6.420623    2.848499    1.708700
  C      4.368537    5.393558   -2.809895
  O      3.561577    5.915263   -3.882099
  H      2.747769    6.147654   -3.483270
  H      4.522148    6.098134   -2.062670
  H      3.985404    4.497609   -2.348490
  H      5.365098    5.152908   -3.121065

 Multiplicity           Mult            ....    1
 Number of Electrons    NEL             ....   18
 Basis Dimension        Dim             ....  172

ORBITAL ENERGIES
----------------

  NO   OCC          E(Eh)            E(eV)
   0   2.0000     -19.230046      -523.2761
   1   2.0000     -10.305234      -280.4197
   2   2.0000      -1.135318       -30.8936
   3   2.0000      -0.807650       -21.9773
   4   2.0000      -0.610377       -16.6092
   5   2.0000      -0.544960       -14.8291
   6   2.0000      -0.527256       -14.3474
   7   2.0000      -0.439744       -11.9660
   8   2.0000      -0.378689       -10.3046
   9   0.0000       0.080524         2.1912
  10   0.0000       0.119938         3.2637
  11   0.0000       0.136875         3.7246
  12   0.0000       0.175177         4.7668
  13   0.0000       0.193356         5.2615

MULLIKEN ATOMIC CHARGES
-----------------------
   0 C :   -0.000013
   1 O :    0.000037
   2 H :   -0.000043
   3 H :   -0.000001
   4 H :   -0.000001
   5 H :   -0.000002
   6 C :   -0.163096
   7 O :   -0.472731
   8 H :    0.310142
   9 H :    0.109707
  10 H :    0.101237
  11 H :    0.114764
Sum of atomic charges:   -0.0000000

LOEWDIN ATOMIC CHARGES
----------------------
   0 C :   -0.000021
   1 O :   -0.000073
   2 H :   -0.000045
   3 H :   -0.000001
   4 H :   -0.000002
   5 H :   -0.000001
   6 C :   -0.357621
   7 O :   -0.078999
   8 H :    0.152649
   9 H :    0.085080
  10 H :    0.093607
  11 H :    0.105427

  Mayer bond orders larger than 0.1
B(  6-C ,  7-O ) :   0.9997 B(  6-C ,  9-H ) :   0.9799 B(  6-C , 10-H ) :   0.9763
B(  6-C , 11-H ) :   0.9768 B(  7-O ,  8-H ) :   0.9067

Dispersion correction           -0.000239997
FINAL SINGLE POINT ENERGY      -115.731772698608

DIPOLE MOMENT
-------------
                                X             Y             Z
Electronic contribution:     -0.96925       0.65126      -1.47648
Nuclear contribution   :      0.80632      -0.70971       2.18480
                        -----------------------------------------
Total Dipole Moment    :     -0.16292      -0.05845       0.70833
                        -----------------------------------------
Magnitude (a.u.)       :      0.72917
Magnitude (Debye)      :      1.85340

Rotational constants in cm-1:     4.639252     0.806879     0.781336
Rotational constants in MHz : 139081.283893 24189.612219 23423.857840

                             ****ORCA TERMINATED NORMALLY****
TOTAL RUN TIME: 0 days 0 hours 1 minutes 3 seconds 296 msec
