                         Program Version 4.1.2  - RELEASE  -
|  1> #Run DFT-D3 single point of the dimer
|  2> ! wB97X-D3 def2-TZVP TIGHTSCF CHELPG PMODEL PAL8
|  3>
|  4> %base "5-64_DFT_AB"
|  5>
|  6> %scf
|  7> MaxIter 1000
|  8> end
|  9>
| 10> * xyz 0 1
| 11>   C                      0.496941             1.392049             5.026981
| 12>   O                      -0.494197            0.337308             5.082726
| 13>   H                      -0.689183            0.394878             4.127763
| 14>   H                      1.282604             1.248695             5.776744
| 15>   H                      1.032644             1.416140             4.066925
| 16>   H                      -0.013328            2.353019             5.225455
| 17>   C                      3.486480             3.228859             8.221319
| 18>   O                      2.522415             3.169753             7.171578
| 19>   H                      2.924334             3.012917             6.317033
| 20>   H                      3.112496             2.768738             9.151670
| 21>   H                      4.386893             2.667311             8.000667
| 22>   H                      3.835800             4.237860             8.215932
| 23> *
| 24>
| 25> #Run DFT-D3 single point of the molecule with dimer basis set
| 26> $new_job
| 27> %base "5-64_DFT_A"
| 28> ! wB97X-D3 def2-TZVP TIGHTSCF CHELPG PMODEL
| 29>
| 30> %scf
| 31> MaxIter 1000
| 32> end
| 33>
| 34> * xyz 0 1
| 35>   C                      0.496941             1.392049             5.026981
| 36>   O                      -0.494197            0.337308             5.082726
| 37>   H                      -0.689183            0.394878             4.127763
| 38>   H                      1.282604             1.248695             5.776744
| 39>   H                      1.032644             1.416140             4.066925
| 40>   H                      -0.013328            2.353019             5.225455
| 41>   C                    : 3.486480             3.228859             8.221319
| 42>   O                    : 2.522415             3.169753             7.171578
| 43>   H                    : 2.924334             3.012917             6.317033
| 44>   H                    : 3.112496             2.768738             9.151670
| 45>   H                    : 4.386893             2.667311             8.000667
| 46>   H                    : 3.835800             4.237860             8.215932
| 47> *
| 48>
| 49> #Run DFT-D3 single point of the particle with dimer basis set
| 50> $new_job
| 51> %base "5-64_DFT_B"
| 52> ! wB97X-D3 def2-TZVP TIGHTSCF CHELPG PMODEL
| 53>
| 54> %scf
| 55> MaxIter 1000
| 56> end
| 57>
| 58> * xyz 0 1
| 59>   C                    : 0.496941             1.392049             5.026981
| 60>   O                    : -0.494197            0.337308             5.082726
| 61>   H                    : -0.689183            0.394878             4.127763
| 62>   H                    : 1.282604             1.248695             5.776744
| 63>   H                    : 1.032644             1.416140             4.066925
| 64>   H                    : -0.013328            2.353019             5.225455
| 65>   C                      3.486480             3.228859             8.221319
| 66>   O                      2.522415             3.169753             7.171578
| 67>   H                      2.924334             3.012917             6.317033
| 68>   H                      3.112496             2.768738             9.151670
| 69>   H                      4.386893             2.667311             8.000667
| 70>   H                      3.835800             4.237860             8.215932
| 71> *
| 72>
| 73>                          ****END OF INPUT****
 Total Charge           Charge          ....    0
 Multiplicity           Mult            ....    1
 Number of Electrons    NEL             ....   36
Dispersion correction           -0.001390912
FINAL SINGLE POINT ENERGY      -231.459229569063
Dispersion correction           -0.000226452
FINAL SINGLE POINT ENERGY      -115.728788311717

CARTESIAN COORDINATES (ANGSTROEM)
---------------------------------
  C      0.496941    1.392049    5.026981
  O     -0.494197    0.337308    5.082726
  H     -0.689183    0.394878    4.127763
  H      1.282604    1.248695    5.776744
  H      1.032644    1.416140    4.066925
  H     -0.013328    2.353019    5.225455
  C      3.486480    3.228859    8.221319
  O      2.522415    3.169753    7.171578
  H      2.924334    3.012917    6.317033
  H      3.112496    2.768738    9.151670
  H      4.386893    2.667311    8.000667
  H      3.835800    4.237860    8.215932

 Multiplicity           Mult            ....    1
 Number of Electrons    NEL             ....   18
 Basis Dimension        Dim             ....  172

ORBITAL ENERGIES
----------------

  NO   OCC          E(Eh)            E(eV)
   0   2.0000     -19.226129      -523.1696
   1   2.0000     -10.311555      -280.5917
   2   2.0000      -1.129375       -30.7319
   3   2.0000      -0.799878       -21.7658
   4   2.0000      -0.612078       -16.6555
   5   2.0000      -0.555273       -15.1097
   6   2.0000      -0.513650       -13.9771
   7   2.0000      -0.428093       -11.6490
   8   2.0000      -0.372639       -10.1400
   9   0.0000       0.089368         2.4318
  10   0.0000       0.123788         3.3684
  11   0.0000       0.153141         4.1672
  12   0.0000       0.187828         5.1111
  13   0.0000       0.197758         5.3813

MULLIKEN ATOMIC CHARGES
-----------------------
   0 C :    0.007853
   1 O :   -0.000217
   2 H :   -0.000029
   3 H :   -0.017535
   4 H :   -0.000472
   5 H :   -0.001314
   6 C :   -0.167107
   7 O :   -0.478765
   8 H :    0.318540
   9 H :    0.123062
  10 H :    0.103691
  11 H :    0.112293
Sum of atomic charges:   -0.0000000

LOEWDIN ATOMIC CHARGES
----------------------
   0 C :   -0.006500
   1 O :   -0.000033
   2 H :   -0.000016
   3 H :   -0.009918
   4 H :   -0.000102
   5 H :   -0.001007
   6 C :   -0.370158
   7 O :   -0.079169
   8 H :    0.166056
   9 H :    0.111154
  10 H :    0.093737
  11 H :    0.095954

  Mayer bond orders larger than 0.1
B(  6-C ,  7-O ) :   0.9898 B(  6-C ,  9-H ) :   0.9695 B(  6-C , 10-H ) :   0.9792
B(  6-C , 11-H ) :   0.9802 B(  7-O ,  8-H ) :   0.8939

Dispersion correction           -0.000240975
FINAL SINGLE POINT ENERGY      -115.730094391940

DIPOLE MOMENT
-------------
                                X             Y             Z
Electronic contribution:     -1.34800      -0.01220      -1.09889
Nuclear contribution   :      2.05635      -0.07707       0.97564
                        -----------------------------------------
Total Dipole Moment    :      0.70835      -0.08926      -0.12325
                        -----------------------------------------
Magnitude (a.u.)       :      0.72452
Magnitude (Debye)      :      1.84157

Rotational constants in cm-1:     4.376339     0.819178     0.792303
Rotational constants in MHz : 131199.329601 24558.335729 23752.649770

                             ****ORCA TERMINATED NORMALLY****
TOTAL RUN TIME: 0 days 0 hours 1 minutes 4 seconds 217 msec
