                         Program Version 4.1.2  - RELEASE  -
|  1> #Run DFT-D3 single point of the dimer
|  2> ! wB97X-D3 def2-TZVP TIGHTSCF CHELPG PMODEL PAL8
|  3>
|  4> %base "13-2_DFT_AB"
|  5>
|  6> %scf
|  7> MaxIter 1000
|  8> end
|  9>
| 10> * xyz 0 1
| 11>   C                      -2.257604            -6.993449            -0.918277
| 12>   O                      -2.080523            -8.395982            -0.827367
| 13>   H                      -2.059170            -8.743386            0.111713
| 14>   H                      -1.423130            -6.407729            -0.539471
| 15>   H                      -2.370768            -6.724110            -2.003700
| 16>   H                      -3.147931            -6.621619            -0.383193
| 17>   C                      0.030164             -4.047049            -2.629038
| 18>   O                      -1.138071            -4.695708            -3.059685
| 19>   H                      -0.944249            -5.458277            -3.624393
| 20>   H                      0.284661             -4.359550            -1.576838
| 21>   H                      0.878129             -4.316467            -3.321165
| 22>   H                      -0.148044            -2.943190            -2.634008
| 23> *
| 24>
| 25> #Run DFT-D3 single point of the molecule with dimer basis set
| 26> $new_job
| 27> %base "13-2_DFT_A"
| 28> ! wB97X-D3 def2-TZVP TIGHTSCF CHELPG PMODEL
| 29>
| 30> %scf
| 31> MaxIter 1000
| 32> end
| 33>
| 34> * xyz 0 1
| 35>   C                      -2.257604            -6.993449            -0.918277
| 36>   O                      -2.080523            -8.395982            -0.827367
| 37>   H                      -2.059170            -8.743386            0.111713
| 38>   H                      -1.423130            -6.407729            -0.539471
| 39>   H                      -2.370768            -6.724110            -2.003700
| 40>   H                      -3.147931            -6.621619            -0.383193
| 41>   C                    : 0.030164             -4.047049            -2.629038
| 42>   O                    : -1.138071            -4.695708            -3.059685
| 43>   H                    : -0.944249            -5.458277            -3.624393
| 44>   H                    : 0.284661             -4.359550            -1.576838
| 45>   H                    : 0.878129             -4.316467            -3.321165
| 46>   H                    : -0.148044            -2.943190            -2.634008
| 47> *
| 48>
| 49> #Run DFT-D3 single point of the particle with dimer basis set
| 50> $new_job
| 51> %base "13-2_DFT_B"
| 52> ! wB97X-D3 def2-TZVP TIGHTSCF CHELPG PMODEL
| 53>
| 54> %scf
| 55> MaxIter 1000
| 56> end
| 57>
| 58> * xyz 0 1
| 59>   C                    : -2.257604            -6.993449            -0.918277
| 60>   O                    : -2.080523            -8.395982            -0.827367
| 61>   H                    : -2.059170            -8.743386            0.111713
| 62>   H                    : -1.423130            -6.407729            -0.539471
| 63>   H                    : -2.370768            -6.724110            -2.003700
| 64>   H                    : -3.147931            -6.621619            -0.383193
| 65>   C                      0.030164             -4.047049            -2.629038
| 66>   O                      -1.138071            -4.695708            -3.059685
| 67>   H                      -0.944249            -5.458277            -3.624393
| 68>   H                      0.284661             -4.359550            -1.576838
| 69>   H                      0.878129             -4.316467            -3.321165
| 70>   H                      -0.148044            -2.943190            -2.634008
| 71> *
| 72>
| 73>                          ****END OF INPUT****
 Total Charge           Charge          ....    0
 Multiplicity           Mult            ....    1
 Number of Electrons    NEL             ....   36
Dispersion correction           -0.001758815
FINAL SINGLE POINT ENERGY      -231.469363082150
Dispersion correction           -0.000274567
FINAL SINGLE POINT ENERGY      -115.733757729949

CARTESIAN COORDINATES (ANGSTROEM)
---------------------------------
  C     -2.257604   -6.993449   -0.918277
  O     -2.080523   -8.395982   -0.827367
  H     -2.059170   -8.743386    0.111713
  H     -1.423130   -6.407729   -0.539471
  H     -2.370768   -6.724110   -2.003700
  H     -3.147931   -6.621619   -0.383193
  C      0.030164   -4.047049   -2.629038
  O     -1.138071   -4.695708   -3.059685
  H     -0.944249   -5.458277   -3.624393
  H      0.284661   -4.359550   -1.576838
  H      0.878129   -4.316467   -3.321165
  H     -0.148044   -2.943190   -2.634008

 Multiplicity           Mult            ....    1
 Number of Electrons    NEL             ....   18
 Basis Dimension        Dim             ....  172

ORBITAL ENERGIES
----------------

  NO   OCC          E(Eh)            E(eV)
   0   2.0000     -19.229304      -523.2560
   1   2.0000     -10.322838      -280.8987
   2   2.0000      -1.135878       -30.9088
   3   2.0000      -0.788746       -21.4629
   4   2.0000      -0.610148       -16.6030
   5   2.0000      -0.537049       -14.6138
   6   2.0000      -0.530338       -14.4312
   7   2.0000      -0.426581       -11.6078
   8   2.0000      -0.370422       -10.0797
   9   0.0000       0.090507         2.4628
  10   0.0000       0.119768         3.2591
  11   0.0000       0.149214         4.0603
  12   0.0000       0.174380         4.7451
  13   0.0000       0.195839         5.3290

MULLIKEN ATOMIC CHARGES
-----------------------
   0 C :    0.004268
   1 O :    0.000130
   2 H :    0.000007
   3 H :   -0.001413
   4 H :   -0.010921
   5 H :   -0.001795
   6 C :   -0.159872
   7 O :   -0.472263
   8 H :    0.321818
   9 H :    0.099362
  10 H :    0.101469
  11 H :    0.119210
Sum of atomic charges:    0.0000000

LOEWDIN ATOMIC CHARGES
----------------------
   0 C :   -0.010453
   1 O :   -0.000035
   2 H :   -0.000019
   3 H :   -0.001806
   4 H :   -0.009806
   5 H :   -0.000278
   6 C :   -0.398555
   7 O :   -0.063468
   8 H :    0.174921
   9 H :    0.099416
  10 H :    0.101117
  11 H :    0.108966

  Mayer bond orders larger than 0.1
B(  6-C ,  7-O ) :   1.0053 B(  6-C ,  9-H ) :   0.9710 B(  6-C , 10-H ) :   0.9831
B(  6-C , 11-H ) :   0.9719 B(  7-O ,  8-H ) :   0.8918

Dispersion correction           -0.000253478
FINAL SINGLE POINT ENERGY      -115.734245573346

DIPOLE MOMENT
-------------
                                X             Y             Z
Electronic contribution:     -1.55221      -0.71300      -0.50554
Nuclear contribution   :      2.13925       0.48173       0.27896
                        -----------------------------------------
Total Dipole Moment    :      0.58704      -0.23127      -0.22658
                        -----------------------------------------
Magnitude (a.u.)       :      0.67040
Magnitude (Debye)      :      1.70403

Rotational constants in cm-1:     4.082847     0.836140     0.804875
Rotational constants in MHz : 122400.660237 25066.857219 24129.556583

                             ****ORCA TERMINATED NORMALLY****
TOTAL RUN TIME: 0 days 0 hours 0 minutes 52 seconds 698 msec
