                         Program Version 4.1.2  - RELEASE  -
|  1> #Run DFT-D3 single point of the dimer
|  2> ! wB97X-D3 def2-TZVP TIGHTSCF CHELPG PMODEL PAL8
|  3>
|  4> %base "17-127_DFT_AB"
|  5>
|  6> %scf
|  7> MaxIter 1000
|  8> end
|  9>
| 10> * xyz 0 1
| 11>   C                      1.263298             8.071151             1.297706
| 12>   O                      1.107930             8.673241             2.604837
| 13>   H                      1.560115             9.489564             2.538540
| 14>   H                      2.336274             7.912194             1.074222
| 15>   H                      0.795633             7.135600             1.198332
| 16>   H                      0.729675             8.716011             0.583347
| 17>   C                      -3.400542            9.064006             2.907560
| 18>   O                      -2.364288            8.356197             2.386535
| 19>   H                      -2.203702            7.511474             2.883112
| 20>   H                      -3.460149            10.035669            2.373809
| 21>   H                      -4.379780            8.611277             2.906538
| 22>   H                      -3.126849            9.402309             3.916430
| 23> *
| 24>
| 25> #Run DFT-D3 single point of the molecule with dimer basis set
| 26> $new_job
| 27> %base "17-127_DFT_A"
| 28> ! wB97X-D3 def2-TZVP TIGHTSCF CHELPG PMODEL
| 29>
| 30> %scf
| 31> MaxIter 1000
| 32> end
| 33>
| 34> * xyz 0 1
| 35>   C                      1.263298             8.071151             1.297706
| 36>   O                      1.107930             8.673241             2.604837
| 37>   H                      1.560115             9.489564             2.538540
| 38>   H                      2.336274             7.912194             1.074222
| 39>   H                      0.795633             7.135600             1.198332
| 40>   H                      0.729675             8.716011             0.583347
| 41>   C                    : -3.400542            9.064006             2.907560
| 42>   O                    : -2.364288            8.356197             2.386535
| 43>   H                    : -2.203702            7.511474             2.883112
| 44>   H                    : -3.460149            10.035669            2.373809
| 45>   H                    : -4.379780            8.611277             2.906538
| 46>   H                    : -3.126849            9.402309             3.916430
| 47> *
| 48>
| 49> #Run DFT-D3 single point of the particle with dimer basis set
| 50> $new_job
| 51> %base "17-127_DFT_B"
| 52> ! wB97X-D3 def2-TZVP TIGHTSCF CHELPG PMODEL
| 53>
| 54> %scf
| 55> MaxIter 1000
| 56> end
| 57>
| 58> * xyz 0 1
| 59>   C                    : 1.263298             8.071151             1.297706
| 60>   O                    : 1.107930             8.673241             2.604837
| 61>   H                    : 1.560115             9.489564             2.538540
| 62>   H                    : 2.336274             7.912194             1.074222
| 63>   H                    : 0.795633             7.135600             1.198332
| 64>   H                    : 0.729675             8.716011             0.583347
| 65>   C                      -3.400542            9.064006             2.907560
| 66>   O                      -2.364288            8.356197             2.386535
| 67>   H                      -2.203702            7.511474             2.883112
| 68>   H                      -3.460149            10.035669            2.373809
| 69>   H                      -4.379780            8.611277             2.906538
| 70>   H                      -3.126849            9.402309             3.916430
| 71> *
| 72>
| 73>                          ****END OF INPUT****
 Total Charge           Charge          ....    0
 Multiplicity           Mult            ....    1
 Number of Electrons    NEL             ....   36
Dispersion correction           -0.001269990
FINAL SINGLE POINT ENERGY      -231.463954837143
Dispersion correction           -0.000233096
FINAL SINGLE POINT ENERGY      -115.732029359220

CARTESIAN COORDINATES (ANGSTROEM)
---------------------------------
  C      1.263298    8.071151    1.297706
  O      1.107930    8.673241    2.604837
  H      1.560115    9.489564    2.538540
  H      2.336274    7.912194    1.074222
  H      0.795633    7.135600    1.198332
  H      0.729675    8.716011    0.583347
  C     -3.400542    9.064006    2.907560
  O     -2.364288    8.356197    2.386535
  H     -2.203702    7.511474    2.883112
  H     -3.460149   10.035669    2.373809
  H     -4.379780    8.611277    2.906538
  H     -3.126849    9.402309    3.916430

 Multiplicity           Mult            ....    1
 Number of Electrons    NEL             ....   18
 Basis Dimension        Dim             ....  172

ORBITAL ENERGIES
----------------

  NO   OCC          E(Eh)            E(eV)
   0   2.0000     -19.232939      -523.3549
   1   2.0000     -10.307957      -280.4938
   2   2.0000      -1.147003       -31.2115
   3   2.0000      -0.792364       -21.5613
   4   2.0000      -0.618325       -16.8255
   5   2.0000      -0.551440       -15.0055
   6   2.0000      -0.530835       -14.4447
   7   2.0000      -0.420259       -11.4358
   8   2.0000      -0.371140       -10.0992
   9   0.0000       0.090688         2.4677
  10   0.0000       0.120716         3.2849
  11   0.0000       0.152202         4.1416
  12   0.0000       0.174788         4.7562
  13   0.0000       0.196799         5.3552

MULLIKEN ATOMIC CHARGES
-----------------------
   0 C :   -0.000605
   1 O :   -0.000587
   2 H :   -0.000165
   3 H :   -0.000105
   4 H :   -0.000752
   5 H :   -0.001148
   6 C :   -0.141534
   7 O :   -0.470781
   8 H :    0.320711
   9 H :    0.110489
  10 H :    0.097933
  11 H :    0.086546
Sum of atomic charges:    0.0000000

LOEWDIN ATOMIC CHARGES
----------------------
   0 C :   -0.003336
   1 O :   -0.001724
   2 H :   -0.000215
   3 H :   -0.000057
   4 H :   -0.000404
   5 H :   -0.000699
   6 C :   -0.434577
   7 O :   -0.045801
   8 H :    0.191725
   9 H :    0.113630
  10 H :    0.088780
  11 H :    0.092679

  Mayer bond orders larger than 0.1
B(  6-C ,  7-O ) :   1.0065 B(  6-C ,  9-H ) :   0.9724 B(  6-C , 10-H ) :   0.9668
B(  6-C , 11-H ) :   0.9866 B(  7-O ,  8-H ) :   0.8856

Dispersion correction           -0.000236727
FINAL SINGLE POINT ENERGY      -115.731843696657

DIPOLE MOMENT
-------------
                                X             Y             Z
Electronic contribution:      1.29654      -1.01711      -0.83639
Nuclear contribution   :     -1.58020       0.75113       1.34098
                        -----------------------------------------
Total Dipole Moment    :     -0.28366      -0.26598       0.50459
                        -----------------------------------------
Magnitude (a.u.)       :      0.63704
Magnitude (Debye)      :      1.61923

Rotational constants in cm-1:     4.342439     0.873928     0.845173
Rotational constants in MHz : 130183.039954 26199.701472 25337.655311

                             ****ORCA TERMINATED NORMALLY****
TOTAL RUN TIME: 0 days 0 hours 1 minutes 12 seconds 493 msec
