                         Program Version 4.1.2  - RELEASE  -
|  1> #Run DFT-D3 single point of the dimer
|  2> ! wB97X-D3 def2-TZVP TIGHTSCF CHELPG PMODEL PAL8
|  3>
|  4> %base "3-159_DFT_AB"
|  5>
|  6> %scf
|  7> MaxIter 1000
|  8> end
|  9>
| 10> * xyz 0 1
| 11>   C                      5.253205             4.507074             -3.053376
| 12>   O                      5.078979             3.592392             -4.076095
| 13>   H                      5.864764             3.683690             -4.620839
| 14>   H                      4.340975             4.627776             -2.440658
| 15>   H                      6.206101             4.469384             -2.478846
| 16>   H                      5.314553             5.510813             -3.427747
| 17>   C                      8.476601             6.827370             -5.500873
| 18>   O                      7.613410             5.999457             -4.708761
| 19>   H                      7.246268             5.332910             -5.284940
| 20>   H                      7.861279             7.628649             -5.983380
| 21>   H                      9.201161             7.318715             -4.880898
| 22>   H                      9.067864             6.395864             -6.314998
| 23> *
| 24>
| 25> #Run DFT-D3 single point of the molecule with dimer basis set
| 26> $new_job
| 27> %base "3-159_DFT_A"
| 28> ! wB97X-D3 def2-TZVP TIGHTSCF CHELPG PMODEL
| 29>
| 30> %scf
| 31> MaxIter 1000
| 32> end
| 33>
| 34> * xyz 0 1
| 35>   C                      5.253205             4.507074             -3.053376
| 36>   O                      5.078979             3.592392             -4.076095
| 37>   H                      5.864764             3.683690             -4.620839
| 38>   H                      4.340975             4.627776             -2.440658
| 39>   H                      6.206101             4.469384             -2.478846
| 40>   H                      5.314553             5.510813             -3.427747
| 41>   C                    : 8.476601             6.827370             -5.500873
| 42>   O                    : 7.613410             5.999457             -4.708761
| 43>   H                    : 7.246268             5.332910             -5.284940
| 44>   H                    : 7.861279             7.628649             -5.983380
| 45>   H                    : 9.201161             7.318715             -4.880898
| 46>   H                    : 9.067864             6.395864             -6.314998
| 47> *
| 48>
| 49> #Run DFT-D3 single point of the particle with dimer basis set
| 50> $new_job
| 51> %base "3-159_DFT_B"
| 52> ! wB97X-D3 def2-TZVP TIGHTSCF CHELPG PMODEL
| 53>
| 54> %scf
| 55> MaxIter 1000
| 56> end
| 57>
| 58> * xyz 0 1
| 59>   C                    : 5.253205             4.507074             -3.053376
| 60>   O                    : 5.078979             3.592392             -4.076095
| 61>   H                    : 5.864764             3.683690             -4.620839
| 62>   H                    : 4.340975             4.627776             -2.440658
| 63>   H                    : 6.206101             4.469384             -2.478846
| 64>   H                    : 5.314553             5.510813             -3.427747
| 65>   C                      8.476601             6.827370             -5.500873
| 66>   O                      7.613410             5.999457             -4.708761
| 67>   H                      7.246268             5.332910             -5.284940
| 68>   H                      7.861279             7.628649             -5.983380
| 69>   H                      9.201161             7.318715             -4.880898
| 70>   H                      9.067864             6.395864             -6.314998
| 71> *
| 72>
| 73>                          ****END OF INPUT****
 Total Charge           Charge          ....    0
 Multiplicity           Mult            ....    1
 Number of Electrons    NEL             ....   36
Dispersion correction           -0.001804140
FINAL SINGLE POINT ENERGY      -231.461493288479
Dispersion correction           -0.000230770
FINAL SINGLE POINT ENERGY      -115.728856518712

CARTESIAN COORDINATES (ANGSTROEM)
---------------------------------
  C      5.253205    4.507074   -3.053376
  O      5.078979    3.592392   -4.076095
  H      5.864764    3.683690   -4.620839
  H      4.340975    4.627776   -2.440658
  H      6.206101    4.469384   -2.478846
  H      5.314553    5.510813   -3.427747
  C      8.476601    6.827370   -5.500873
  O      7.613410    5.999457   -4.708761
  H      7.246268    5.332910   -5.284940
  H      7.861279    7.628649   -5.983380
  H      9.201161    7.318715   -4.880898
  H      9.067864    6.395864   -6.314998

 Multiplicity           Mult            ....    1
 Number of Electrons    NEL             ....   18
 Basis Dimension        Dim             ....  172

ORBITAL ENERGIES
----------------

  NO   OCC          E(Eh)            E(eV)
   0   2.0000     -19.234617      -523.4005
   1   2.0000     -10.315127      -280.6889
   2   2.0000      -1.133528       -30.8449
   3   2.0000      -0.799070       -21.7438
   4   2.0000      -0.612093       -16.6559
   5   2.0000      -0.536510       -14.5992
   6   2.0000      -0.520884       -14.1740
   7   2.0000      -0.441539       -12.0149
   8   2.0000      -0.375036       -10.2052
   9   0.0000       0.089043         2.4230
  10   0.0000       0.129901         3.5348
  11   0.0000       0.150336         4.0909
  12   0.0000       0.178130         4.8472
  13   0.0000       0.200243         5.4489

MULLIKEN ATOMIC CHARGES
-----------------------
   0 C :    0.008382
   1 O :   -0.000348
   2 H :   -0.000763
   3 H :   -0.000324
   4 H :   -0.003530
   5 H :   -0.011024
   6 C :   -0.188102
   7 O :   -0.457783
   8 H :    0.317053
   9 H :    0.103500
  10 H :    0.123191
  11 H :    0.109749
Sum of atomic charges:    0.0000000

LOEWDIN ATOMIC CHARGES
----------------------
   0 C :   -0.009062
   1 O :   -0.000317
   2 H :   -0.003447
   3 H :   -0.000047
   4 H :   -0.002239
   5 H :   -0.007394
   6 C :   -0.377221
   7 O :   -0.068910
   8 H :    0.168396
   9 H :    0.101081
  10 H :    0.102708
  11 H :    0.096452

  Mayer bond orders larger than 0.1
B(  6-C ,  7-O ) :   1.0062 B(  6-C ,  9-H ) :   0.9805 B(  6-C , 10-H ) :   0.9761
B(  6-C , 11-H ) :   0.9669 B(  7-O ,  8-H ) :   0.8979

Dispersion correction           -0.000270743
FINAL SINGLE POINT ENERGY      -115.733423777064

DIPOLE MOMENT
-------------
                                X             Y             Z
Electronic contribution:     -1.03205      -1.12564       1.16616
Nuclear contribution   :      1.17676       1.02607      -1.85601
                        -----------------------------------------
Total Dipole Moment    :      0.14470      -0.09957      -0.68985
                        -----------------------------------------
Magnitude (a.u.)       :      0.71186
Magnitude (Debye)      :      1.80940

Rotational constants in cm-1:     4.417181     0.800614     0.776429
Rotational constants in MHz : 132423.741611 24001.818201 23276.769185

                             ****ORCA TERMINATED NORMALLY****
TOTAL RUN TIME: 0 days 0 hours 5 minutes 43 seconds 213 msec
