                         Program Version 4.1.2  - RELEASE  -
|  1> #Run DFT-D3 single point of the dimer
|  2> ! wB97X-D3 def2-TZVP TIGHTSCF CHELPG PMODEL PAL8
|  3>
|  4> %base "10-100_DFT_AB"
|  5>
|  6> %scf
|  7> MaxIter 1000
|  8> end
|  9>
| 10> * xyz 0 1
| 11>   C                      -6.546840            0.074704             9.038280
| 12>   O                      -6.336000            1.429750             8.808845
| 13>   H                      -5.428613            1.515341             8.559811
| 14>   H                      -7.109638            -0.391232            8.240486
| 15>   H                      -5.589320            -0.496312            9.039589
| 16>   H                      -7.081118            -0.070553            9.995042
| 17>   C                      -5.166520            -2.157854            5.731922
| 18>   O                      -4.352424            -2.878573            4.845293
| 19>   H                      -4.531012            -2.479481            4.001761
| 20>   H                      -6.255409            -2.274834            5.542018
| 21>   H                      -4.978157            -2.425634            6.797351
| 22>   H                      -5.056658            -1.138531            5.729317
| 23> *
| 24>
| 25> #Run DFT-D3 single point of the molecule with dimer basis set
| 26> $new_job
| 27> %base "10-100_DFT_A"
| 28> ! wB97X-D3 def2-TZVP TIGHTSCF CHELPG PMODEL
| 29>
| 30> %scf
| 31> MaxIter 1000
| 32> end
| 33>
| 34> * xyz 0 1
| 35>   C                      -6.546840            0.074704             9.038280
| 36>   O                      -6.336000            1.429750             8.808845
| 37>   H                      -5.428613            1.515341             8.559811
| 38>   H                      -7.109638            -0.391232            8.240486
| 39>   H                      -5.589320            -0.496312            9.039589
| 40>   H                      -7.081118            -0.070553            9.995042
| 41>   C                    : -5.166520            -2.157854            5.731922
| 42>   O                    : -4.352424            -2.878573            4.845293
| 43>   H                    : -4.531012            -2.479481            4.001761
| 44>   H                    : -6.255409            -2.274834            5.542018
| 45>   H                    : -4.978157            -2.425634            6.797351
| 46>   H                    : -5.056658            -1.138531            5.729317
| 47> *
| 48>
| 49> #Run DFT-D3 single point of the particle with dimer basis set
| 50> $new_job
| 51> %base "10-100_DFT_B"
| 52> ! wB97X-D3 def2-TZVP TIGHTSCF CHELPG PMODEL
| 53>
| 54> %scf
| 55> MaxIter 1000
| 56> end
| 57>
| 58> * xyz 0 1
| 59>   C                    : -6.546840            0.074704             9.038280
| 60>   O                    : -6.336000            1.429750             8.808845
| 61>   H                    : -5.428613            1.515341             8.559811
| 62>   H                    : -7.109638            -0.391232            8.240486
| 63>   H                    : -5.589320            -0.496312            9.039589
| 64>   H                    : -7.081118            -0.070553            9.995042
| 65>   C                      -5.166520            -2.157854            5.731922
| 66>   O                      -4.352424            -2.878573            4.845293
| 67>   H                      -4.531012            -2.479481            4.001761
| 68>   H                      -6.255409            -2.274834            5.542018
| 69>   H                      -4.978157            -2.425634            6.797351
| 70>   H                      -5.056658            -1.138531            5.729317
| 71> *
| 72>
| 73>                          ****END OF INPUT****
 Total Charge           Charge          ....    0
 Multiplicity           Mult            ....    1
 Number of Electrons    NEL             ....   36
Dispersion correction           -0.001306624
FINAL SINGLE POINT ENERGY      -231.465017143699
Dispersion correction           -0.000234363
FINAL SINGLE POINT ENERGY      -115.734128218344

CARTESIAN COORDINATES (ANGSTROEM)
---------------------------------
  C     -6.546840    0.074704    9.038280
  O     -6.336000    1.429750    8.808845
  H     -5.428613    1.515341    8.559811
  H     -7.109638   -0.391232    8.240486
  H     -5.589320   -0.496312    9.039589
  H     -7.081118   -0.070553    9.995042
  C     -5.166520   -2.157854    5.731922
  O     -4.352424   -2.878573    4.845293
  H     -4.531012   -2.479481    4.001761
  H     -6.255409   -2.274834    5.542018
  H     -4.978157   -2.425634    6.797351
  H     -5.056658   -1.138531    5.729317

 Multiplicity           Mult            ....    1
 Number of Electrons    NEL             ....   18
 Basis Dimension        Dim             ....  172

ORBITAL ENERGIES
----------------

  NO   OCC          E(Eh)            E(eV)
   0   2.0000     -19.234852      -523.4069
   1   2.0000     -10.308197      -280.5003
   2   2.0000      -1.146394       -31.1950
   3   2.0000      -0.800300       -21.7773
   4   2.0000      -0.621407       -16.9093
   5   2.0000      -0.539796       -14.6886
   6   2.0000      -0.526538       -14.3278
   7   2.0000      -0.441223       -12.0063
   8   2.0000      -0.375645       -10.2218
   9   0.0000       0.080336         2.1860
  10   0.0000       0.117638         3.2011
  11   0.0000       0.150293         4.0897
  12   0.0000       0.163011         4.4358
  13   0.0000       0.179691         4.8897

MULLIKEN ATOMIC CHARGES
-----------------------
   0 C :    0.000009
   1 O :    0.000034
   2 H :   -0.000012
   3 H :    0.000130
   4 H :   -0.000814
   5 H :    0.000012
   6 C :   -0.182640
   7 O :   -0.456751
   8 H :    0.313771
   9 H :    0.095518
  10 H :    0.117233
  11 H :    0.113509
Sum of atomic charges:   -0.0000000

LOEWDIN ATOMIC CHARGES
----------------------
   0 C :   -0.000885
   1 O :   -0.000012
   2 H :   -0.000060
   3 H :   -0.000315
   4 H :   -0.000756
   5 H :   -0.000008
   6 C :   -0.399808
   7 O :   -0.056437
   8 H :    0.167719
   9 H :    0.097472
  10 H :    0.114673
  11 H :    0.078417

  Mayer bond orders larger than 0.1
B(  6-C ,  7-O ) :   1.0060 B(  6-C ,  9-H ) :   0.9769 B(  6-C , 10-H ) :   0.9756
B(  6-C , 11-H ) :   0.9724 B(  7-O ,  8-H ) :   0.9023

Dispersion correction           -0.000234008
FINAL SINGLE POINT ENERGY      -115.730084531247

DIPOLE MOMENT
-------------
                                X             Y             Z
Electronic contribution:      1.24349      -1.04019      -1.14525
Nuclear contribution   :     -1.64658       1.60163       0.95214
                        -----------------------------------------
Total Dipole Moment    :     -0.40309       0.56144      -0.19311
                        -----------------------------------------
Magnitude (a.u.)       :      0.71763
Magnitude (Debye)      :      1.82407

Rotational constants in cm-1:     4.502921     0.839982     0.802101
Rotational constants in MHz : 134994.170182 25182.038481 24046.378764

                             ****ORCA TERMINATED NORMALLY****
TOTAL RUN TIME: 0 days 0 hours 1 minutes 1 seconds 477 msec
