                         Program Version 4.1.2  - RELEASE  -
|  1> #Run DFT-D3 single point of the dimer
|  2> ! wB97X-D3 def2-TZVP TIGHTSCF CHELPG PMODEL PAL8
|  3>
|  4> %base "3-103_DFT_AB"
|  5>
|  6> %scf
|  7> MaxIter 1000
|  8> end
|  9>
| 10> * xyz 0 1
| 11>   C                      3.247965             -4.559031            -0.450661
| 12>   O                      3.082228             -5.100131            0.833028
| 13>   H                      3.428484             -4.516003            1.598931
| 14>   H                      2.833958             -5.230700            -1.176977
| 15>   H                      2.781872             -3.575299            -0.586808
| 16>   H                      4.333572             -4.378047            -0.637821
| 17>   C                      7.824149             -6.541782            -2.938392
| 18>   O                      6.838613             -6.343580            -3.974668
| 19>   H                      6.273689             -7.114405            -3.803424
| 20>   H                      8.641501             -7.009749            -3.332158
| 21>   H                      8.094999             -5.546398            -2.500354
| 22>   H                      7.388448             -7.062077            -2.040342
| 23> *
| 24>
| 25> #Run DFT-D3 single point of the molecule with dimer basis set
| 26> $new_job
| 27> %base "3-103_DFT_A"
| 28> ! wB97X-D3 def2-TZVP TIGHTSCF CHELPG PMODEL
| 29>
| 30> %scf
| 31> MaxIter 1000
| 32> end
| 33>
| 34> * xyz 0 1
| 35>   C                      3.247965             -4.559031            -0.450661
| 36>   O                      3.082228             -5.100131            0.833028
| 37>   H                      3.428484             -4.516003            1.598931
| 38>   H                      2.833958             -5.230700            -1.176977
| 39>   H                      2.781872             -3.575299            -0.586808
| 40>   H                      4.333572             -4.378047            -0.637821
| 41>   C                    : 7.824149             -6.541782            -2.938392
| 42>   O                    : 6.838613             -6.343580            -3.974668
| 43>   H                    : 6.273689             -7.114405            -3.803424
| 44>   H                    : 8.641501             -7.009749            -3.332158
| 45>   H                    : 8.094999             -5.546398            -2.500354
| 46>   H                    : 7.388448             -7.062077            -2.040342
| 47> *
| 48>
| 49> #Run DFT-D3 single point of the particle with dimer basis set
| 50> $new_job
| 51> %base "3-103_DFT_B"
| 52> ! wB97X-D3 def2-TZVP TIGHTSCF CHELPG PMODEL
| 53>
| 54> %scf
| 55> MaxIter 1000
| 56> end
| 57>
| 58> * xyz 0 1
| 59>   C                    : 3.247965             -4.559031            -0.450661
| 60>   O                    : 3.082228             -5.100131            0.833028
| 61>   H                    : 3.428484             -4.516003            1.598931
| 62>   H                    : 2.833958             -5.230700            -1.176977
| 63>   H                    : 2.781872             -3.575299            -0.586808
| 64>   H                    : 4.333572             -4.378047            -0.637821
| 65>   C                      7.824149             -6.541782            -2.938392
| 66>   O                      6.838613             -6.343580            -3.974668
| 67>   H                      6.273689             -7.114405            -3.803424
| 68>   H                      8.641501             -7.009749            -3.332158
| 69>   H                      8.094999             -5.546398            -2.500354
| 70>   H                      7.388448             -7.062077            -2.040342
| 71> *
| 72>
| 73>                          ****END OF INPUT****
 Total Charge           Charge          ....    0
 Multiplicity           Mult            ....    1
 Number of Electrons    NEL             ....   36
Dispersion correction           -0.000694080
FINAL SINGLE POINT ENERGY      -231.459365820468
Dispersion correction           -0.000258005
FINAL SINGLE POINT ENERGY      -115.731116186214

CARTESIAN COORDINATES (ANGSTROEM)
---------------------------------
  C      3.247965   -4.559031   -0.450661
  O      3.082228   -5.100131    0.833028
  H      3.428484   -4.516003    1.598931
  H      2.833958   -5.230700   -1.176977
  H      2.781872   -3.575299   -0.586808
  H      4.333572   -4.378047   -0.637821
  C      7.824149   -6.541782   -2.938392
  O      6.838613   -6.343580   -3.974668
  H      6.273689   -7.114405   -3.803424
  H      8.641501   -7.009749   -3.332158
  H      8.094999   -5.546398   -2.500354
  H      7.388448   -7.062077   -2.040342

 Multiplicity           Mult            ....    1
 Number of Electrons    NEL             ....   18
 Basis Dimension        Dim             ....  172

ORBITAL ENERGIES
----------------

  NO   OCC          E(Eh)            E(eV)
   0   2.0000     -19.231656      -523.3200
   1   2.0000     -10.313287      -280.6388
   2   2.0000      -1.130161       -30.7533
   3   2.0000      -0.793872       -21.6024
   4   2.0000      -0.599637       -16.3169
   5   2.0000      -0.557279       -15.1643
   6   2.0000      -0.514378       -13.9969
   7   2.0000      -0.436055       -11.8657
   8   2.0000      -0.378218       -10.2918
   9   0.0000       0.084804         2.3076
  10   0.0000       0.112221         3.0537
  11   0.0000       0.153673         4.1817
  12   0.0000       0.165053         4.4913
  13   0.0000       0.184524         5.0211

MULLIKEN ATOMIC CHARGES
-----------------------
   0 C :    0.000064
   1 O :   -0.000002
   2 H :   -0.000000
   3 H :   -0.000051
   4 H :   -0.000014
   5 H :   -0.000150
   6 C :   -0.181109
   7 O :   -0.465663
   8 H :    0.315027
   9 H :    0.119412
  10 H :    0.109606
  11 H :    0.102880
Sum of atomic charges:   -0.0000000

LOEWDIN ATOMIC CHARGES
----------------------
   0 C :   -0.000064
   1 O :   -0.000002
   2 H :   -0.000000
   3 H :   -0.000018
   4 H :   -0.000001
   5 H :   -0.000064
   6 C :   -0.366097
   7 O :   -0.103790
   8 H :    0.176690
   9 H :    0.079378
  10 H :    0.110301
  11 H :    0.103667

  Mayer bond orders larger than 0.1
B(  6-C ,  7-O ) :   1.0045 B(  6-C ,  9-H ) :   0.9742 B(  6-C , 10-H ) :   0.9752
B(  6-C , 11-H ) :   0.9843 B(  7-O ,  8-H ) :   0.9039

Dispersion correction           -0.000231092
FINAL SINGLE POINT ENERGY      -115.727742910498

DIPOLE MOMENT
-------------
                                X             Y             Z
Electronic contribution:     -1.05700       0.28395      -1.47173
Nuclear contribution   :      1.10336      -0.83343       1.99743
                        -----------------------------------------
Total Dipole Moment    :      0.04635      -0.54948       0.52569
                        -----------------------------------------
Magnitude (a.u.)       :      0.76186
Magnitude (Debye)      :      1.93650

Rotational constants in cm-1:     4.194896     0.815034     0.786660
Rotational constants in MHz : 125759.809956 24434.118526 23583.461463

                             ****ORCA TERMINATED NORMALLY****
TOTAL RUN TIME: 0 days 0 hours 5 minutes 58 seconds 145 msec
