                         Program Version 4.1.2  - RELEASE  -
|  1> #Run DFT-D3 single point of the dimer
|  2> ! wB97X-D3 def2-TZVP TIGHTSCF CHELPG PMODEL PAL8
|  3>
|  4> %base "20-208_DFT_AB"
|  5>
|  6> %scf
|  7> MaxIter 1000
|  8> end
|  9>
| 10> * xyz 0 1
| 11>   C                      5.421601             2.703210             -10.180060
| 12>   O                      5.608552             1.804198             -11.122969
| 13>   H                      6.310818             1.332435             -10.691831
| 14>   H                      6.405950             3.097264             -9.888662
| 15>   H                      4.898594             3.542927             -10.643198
| 16>   H                      4.797134             2.230353             -9.310910
| 17>   C                      6.770045             -0.474777            -7.158249
| 18>   O                      7.790233             0.389090             -7.588819
| 19>   H                      7.949563             0.138723             -8.530837
| 20>   H                      6.975357             -1.538955            -7.451042
| 21>   H                      6.541344             -0.455448            -6.058036
| 22>   H                      5.929860             -0.206529            -7.788592
| 23> *
| 24>
| 25> #Run DFT-D3 single point of the molecule with dimer basis set
| 26> $new_job
| 27> %base "20-208_DFT_A"
| 28> ! wB97X-D3 def2-TZVP TIGHTSCF CHELPG PMODEL
| 29>
| 30> %scf
| 31> MaxIter 1000
| 32> end
| 33>
| 34> * xyz 0 1
| 35>   C                      5.421601             2.703210             -10.180060
| 36>   O                      5.608552             1.804198             -11.122969
| 37>   H                      6.310818             1.332435             -10.691831
| 38>   H                      6.405950             3.097264             -9.888662
| 39>   H                      4.898594             3.542927             -10.643198
| 40>   H                      4.797134             2.230353             -9.310910
| 41>   C                    : 6.770045             -0.474777            -7.158249
| 42>   O                    : 7.790233             0.389090             -7.588819
| 43>   H                    : 7.949563             0.138723             -8.530837
| 44>   H                    : 6.975357             -1.538955            -7.451042
| 45>   H                    : 6.541344             -0.455448            -6.058036
| 46>   H                    : 5.929860             -0.206529            -7.788592
| 47> *
| 48>
| 49> #Run DFT-D3 single point of the particle with dimer basis set
| 50> $new_job
| 51> %base "20-208_DFT_B"
| 52> ! wB97X-D3 def2-TZVP TIGHTSCF CHELPG PMODEL
| 53>
| 54> %scf
| 55> MaxIter 1000
| 56> end
| 57>
| 58> * xyz 0 1
| 59>   C                    : 5.421601             2.703210             -10.180060
| 60>   O                    : 5.608552             1.804198             -11.122969
| 61>   H                    : 6.310818             1.332435             -10.691831
| 62>   H                    : 6.405950             3.097264             -9.888662
| 63>   H                    : 4.898594             3.542927             -10.643198
| 64>   H                    : 4.797134             2.230353             -9.310910
| 65>   C                      6.770045             -0.474777            -7.158249
| 66>   O                      7.790233             0.389090             -7.588819
| 67>   H                      7.949563             0.138723             -8.530837
| 68>   H                      6.975357             -1.538955            -7.451042
| 69>   H                      6.541344             -0.455448            -6.058036
| 70>   H                      5.929860             -0.206529            -7.788592
| 71> *
| 72>
| 73>                          ****END OF INPUT****
 Total Charge           Charge          ....    0
 Multiplicity           Mult            ....    1
 Number of Electrons    NEL             ....   36
Dispersion correction           -0.001385467
FINAL SINGLE POINT ENERGY      -231.446371777352
Dispersion correction           -0.000173669
FINAL SINGLE POINT ENERGY      -115.717190833063

CARTESIAN COORDINATES (ANGSTROEM)
---------------------------------
  C      5.421601    2.703210  -10.180060
  O      5.608552    1.804198  -11.122969
  H      6.310818    1.332435  -10.691831
  H      6.405950    3.097264   -9.888662
  H      4.898594    3.542927  -10.643198
  H      4.797134    2.230353   -9.310910
  C      6.770045   -0.474777   -7.158249
  O      7.790233    0.389090   -7.588819
  H      7.949563    0.138723   -8.530837
  H      6.975357   -1.538955   -7.451042
  H      6.541344   -0.455448   -6.058036
  H      5.929860   -0.206529   -7.788592

 Multiplicity           Mult            ....    1
 Number of Electrons    NEL             ....   18
 Basis Dimension        Dim             ....  172

ORBITAL ENERGIES
----------------

  NO   OCC          E(Eh)            E(eV)
   0   2.0000     -19.232550      -523.3443
   1   2.0000     -10.317926      -280.7650
   2   2.0000      -1.137379       -30.9497
   3   2.0000      -0.786467       -21.4009
   4   2.0000      -0.609741       -16.5919
   5   2.0000      -0.544787       -14.8244
   6   2.0000      -0.525423       -14.2975
   7   2.0000      -0.435691       -11.8558
   8   2.0000      -0.366627        -9.9764
   9   0.0000       0.078386         2.1330
  10   0.0000       0.122463         3.3324
  11   0.0000       0.150174         4.0864
  12   0.0000       0.175108         4.7649
  13   0.0000       0.182511         4.9664

MULLIKEN ATOMIC CHARGES
-----------------------
   0 C :   -0.000396
   1 O :    0.000272
   2 H :   -0.001985
   3 H :   -0.000882
   4 H :   -0.000134
   5 H :    0.000174
   6 C :   -0.181052
   7 O :   -0.467378
   8 H :    0.319223
   9 H :    0.098749
  10 H :    0.127131
  11 H :    0.106280
Sum of atomic charges:   -0.0000000

LOEWDIN ATOMIC CHARGES
----------------------
   0 C :   -0.001335
   1 O :   -0.000051
   2 H :   -0.001197
   3 H :   -0.000596
   4 H :   -0.000038
   5 H :   -0.000464
   6 C :   -0.403814
   7 O :   -0.085435
   8 H :    0.189150
   9 H :    0.096103
  10 H :    0.114762
  11 H :    0.092914

  Mayer bond orders larger than 0.1
B(  6-C ,  7-O ) :   0.9901 B(  6-C ,  9-H ) :   0.9801 B(  6-C , 10-H ) :   0.9660
B(  6-C , 11-H ) :   0.9845 B(  7-O ,  8-H ) :   0.8934

Dispersion correction           -0.000218167
FINAL SINGLE POINT ENERGY      -115.729104182930

DIPOLE MOMENT
-------------
                                X             Y             Z
Electronic contribution:      1.35150       1.25674      -0.23668
Nuclear contribution   :     -1.64508      -1.74598      -0.17630
                        -----------------------------------------
Total Dipole Moment    :     -0.29358      -0.48924      -0.41299
                        -----------------------------------------
Magnitude (a.u.)       :      0.70435
Magnitude (Debye)      :      1.79031

Rotational constants in cm-1:     4.133072     0.848044     0.804220
Rotational constants in MHz : 123906.367227 25423.715631 24109.907494

                             ****ORCA TERMINATED NORMALLY****
TOTAL RUN TIME: 0 days 0 hours 0 minutes 55 seconds 136 msec
