                         Program Version 4.1.2  - RELEASE  -
|  1> #Run DFT-D3 single point of the dimer
|  2> ! wB97X-D3 def2-TZVP TIGHTSCF CHELPG PMODEL PAL8
|  3>
|  4> %base "14-42_DFT_AB"
|  5>
|  6> %scf
|  7> MaxIter 1000
|  8> end
|  9>
| 10> * xyz 0 1
| 11>   C                      10.841088            -7.127061            -6.891285
| 12>   O                      10.495546            -7.092162            -5.484353
| 13>   H                      9.956987             -6.291068            -5.245316
| 14>   H                      9.927392             -6.872766            -7.502368
| 15>   H                      11.640231            -6.359361            -7.120319
| 16>   H                      11.277844            -8.122326            -7.267426
| 17>   C                      8.342883             -9.562659            -7.085963
| 18>   O                      6.954251             -9.875099            -6.737926
| 19>   H                      6.672375             -10.682217           -7.228092
| 20>   H                      8.799559             -9.099347            -6.241238
| 21>   H                      8.929992             -10.375192           -7.488363
| 22>   H                      8.393096             -8.772650            -7.810404
| 23> *
| 24>
| 25> #Run DFT-D3 single point of the molecule with dimer basis set
| 26> $new_job
| 27> %base "14-42_DFT_A"
| 28> ! wB97X-D3 def2-TZVP TIGHTSCF CHELPG PMODEL
| 29>
| 30> %scf
| 31> MaxIter 1000
| 32> end
| 33>
| 34> * xyz 0 1
| 35>   C                      10.841088            -7.127061            -6.891285
| 36>   O                      10.495546            -7.092162            -5.484353
| 37>   H                      9.956987             -6.291068            -5.245316
| 38>   H                      9.927392             -6.872766            -7.502368
| 39>   H                      11.640231            -6.359361            -7.120319
| 40>   H                      11.277844            -8.122326            -7.267426
| 41>   C                    : 8.342883             -9.562659            -7.085963
| 42>   O                    : 6.954251             -9.875099            -6.737926
| 43>   H                    : 6.672375             -10.682217           -7.228092
| 44>   H                    : 8.799559             -9.099347            -6.241238
| 45>   H                    : 8.929992             -10.375192           -7.488363
| 46>   H                    : 8.393096             -8.772650            -7.810404
| 47> *
| 48>
| 49> #Run DFT-D3 single point of the particle with dimer basis set
| 50> $new_job
| 51> %base "14-42_DFT_B"
| 52> ! wB97X-D3 def2-TZVP TIGHTSCF CHELPG PMODEL
| 53>
| 54> %scf
| 55> MaxIter 1000
| 56> end
| 57>
| 58> * xyz 0 1
| 59>   C                    : 10.841088            -7.127061            -6.891285
| 60>   O                    : 10.495546            -7.092162            -5.484353
| 61>   H                    : 9.956987             -6.291068            -5.245316
| 62>   H                    : 9.927392             -6.872766            -7.502368
| 63>   H                    : 11.640231            -6.359361            -7.120319
| 64>   H                    : 11.277844            -8.122326            -7.267426
| 65>   C                      8.342883             -9.562659            -7.085963
| 66>   O                      6.954251             -9.875099            -6.737926
| 67>   H                      6.672375             -10.682217           -7.228092
| 68>   H                      8.799559             -9.099347            -6.241238
| 69>   H                      8.929992             -10.375192           -7.488363
| 70>   H                      8.393096             -8.772650            -7.810404
| 71> *
| 72>
| 73>                          ****END OF INPUT****
 Total Charge           Charge          ....    0
 Multiplicity           Mult            ....    1
 Number of Electrons    NEL             ....   36
Dispersion correction           -0.002003680
FINAL SINGLE POINT ENERGY      -231.461135094647
Dispersion correction           -0.000287305
FINAL SINGLE POINT ENERGY      -115.728470704039

CARTESIAN COORDINATES (ANGSTROEM)
---------------------------------
  C     10.841088   -7.127061   -6.891285
  O     10.495546   -7.092162   -5.484353
  H      9.956987   -6.291068   -5.245316
  H      9.927392   -6.872766   -7.502368
  H     11.640231   -6.359361   -7.120319
  H     11.277844   -8.122326   -7.267426
  C      8.342883   -9.562659   -7.085963
  O      6.954251   -9.875099   -6.737926
  H      6.672375  -10.682217   -7.228092
  H      8.799559   -9.099347   -6.241238
  H      8.929992  -10.375192   -7.488363
  H      8.393096   -8.772650   -7.810404

 Multiplicity           Mult            ....    1
 Number of Electrons    NEL             ....   18
 Basis Dimension        Dim             ....  172

ORBITAL ENERGIES
----------------

  NO   OCC          E(Eh)            E(eV)
   0   2.0000     -19.232209      -523.3350
   1   2.0000     -10.310183      -280.5544
   2   2.0000      -1.115041       -30.3418
   3   2.0000      -0.802881       -21.8475
   4   2.0000      -0.602804       -16.4031
   5   2.0000      -0.530480       -14.4351
   6   2.0000      -0.523932       -14.2569
   7   2.0000      -0.442317       -12.0361
   8   2.0000      -0.371824       -10.1178
   9   0.0000       0.083425         2.2701
  10   0.0000       0.113320         3.0836
  11   0.0000       0.149385         4.0650
  12   0.0000       0.165773         4.5109
  13   0.0000       0.181699         4.9443

MULLIKEN ATOMIC CHARGES
-----------------------
   0 C :   -0.002564
   1 O :    0.000586
   2 H :    0.000032
   3 H :    0.000174
   4 H :    0.000012
   5 H :    0.000442
   6 C :   -0.177364
   7 O :   -0.482976
   8 H :    0.315566
   9 H :    0.123639
  10 H :    0.115104
  11 H :    0.107350
Sum of atomic charges:   -0.0000000

LOEWDIN ATOMIC CHARGES
----------------------
   0 C :   -0.009062
   1 O :   -0.002084
   2 H :   -0.000277
   3 H :   -0.003453
   4 H :   -0.000055
   5 H :   -0.000877
   6 C :   -0.341769
   7 O :   -0.121602
   8 H :    0.178976
   9 H :    0.105982
  10 H :    0.096920
  11 H :    0.097302

  Mayer bond orders larger than 0.1
B(  6-C ,  7-O ) :   1.0035 B(  6-C ,  9-H ) :   0.9783 B(  6-C , 10-H ) :   0.9723
B(  6-C , 11-H ) :   0.9750 B(  7-O ,  8-H ) :   0.8974

Dispersion correction           -0.000275307
FINAL SINGLE POINT ENERGY      -115.730930631451

DIPOLE MOMENT
-------------
                                X             Y             Z
Electronic contribution:     -1.69744      -0.39592       0.53621
Nuclear contribution   :      2.11916       0.02677      -0.99730
                        -----------------------------------------
Total Dipole Moment    :      0.42172      -0.36915      -0.46109
                        -----------------------------------------
Magnitude (a.u.)       :      0.72576
Magnitude (Debye)      :      1.84473

Rotational constants in cm-1:     4.454604     0.785616     0.748852
Rotational constants in MHz : 133545.664716 23552.177028 22450.031825

                             ****ORCA TERMINATED NORMALLY****
TOTAL RUN TIME: 0 days 0 hours 1 minutes 2 seconds 893 msec
