                         Program Version 4.1.2  - RELEASE  -
|  1> #Run DFT-D3 single point of the dimer
|  2> ! wB97X-D3 def2-TZVP TIGHTSCF CHELPG PMODEL PAL8
|  3>
|  4> %base "13-16_DFT_AB"
|  5>
|  6> %scf
|  7> MaxIter 1000
|  8> end
|  9>
| 10> * xyz 0 1
| 11>   C                      -1.759558            -3.697240            10.473655
| 12>   O                      -1.814703            -2.791501            9.446395
| 13>   H                      -1.493921            -1.963915            9.817831
| 14>   H                      -0.839036            -3.765161            10.942798
| 15>   H                      -2.437705            -3.484567            11.215743
| 16>   H                      -1.906414            -4.658250            10.028213
| 17>   C                      0.404256             -2.421285            6.257709
| 18>   O                      -0.117990            -3.404198            7.145016
| 19>   H                      -0.354279            -3.007264            7.988121
| 20>   H                      1.466461             -2.287587            6.424802
| 21>   H                      0.067196             -2.692540            5.254666
| 22>   H                      -0.059025            -1.418658            6.470274
| 23> *
| 24>
| 25> #Run DFT-D3 single point of the molecule with dimer basis set
| 26> $new_job
| 27> %base "13-16_DFT_A"
| 28> ! wB97X-D3 def2-TZVP TIGHTSCF CHELPG PMODEL
| 29>
| 30> %scf
| 31> MaxIter 1000
| 32> end
| 33>
| 34> * xyz 0 1
| 35>   C                      -1.759558            -3.697240            10.473655
| 36>   O                      -1.814703            -2.791501            9.446395
| 37>   H                      -1.493921            -1.963915            9.817831
| 38>   H                      -0.839036            -3.765161            10.942798
| 39>   H                      -2.437705            -3.484567            11.215743
| 40>   H                      -1.906414            -4.658250            10.028213
| 41>   C                    : 0.404256             -2.421285            6.257709
| 42>   O                    : -0.117990            -3.404198            7.145016
| 43>   H                    : -0.354279            -3.007264            7.988121
| 44>   H                    : 1.466461             -2.287587            6.424802
| 45>   H                    : 0.067196             -2.692540            5.254666
| 46>   H                    : -0.059025            -1.418658            6.470274
| 47> *
| 48>
| 49> #Run DFT-D3 single point of the particle with dimer basis set
| 50> $new_job
| 51> %base "13-16_DFT_B"
| 52> ! wB97X-D3 def2-TZVP TIGHTSCF CHELPG PMODEL
| 53>
| 54> %scf
| 55> MaxIter 1000
| 56> end
| 57>
| 58> * xyz 0 1
| 59>   C                    : -1.759558            -3.697240            10.473655
| 60>   O                    : -1.814703            -2.791501            9.446395
| 61>   H                    : -1.493921            -1.963915            9.817831
| 62>   H                    : -0.839036            -3.765161            10.942798
| 63>   H                    : -2.437705            -3.484567            11.215743
| 64>   H                    : -1.906414            -4.658250            10.028213
| 65>   C                      0.404256             -2.421285            6.257709
| 66>   O                      -0.117990            -3.404198            7.145016
| 67>   H                      -0.354279            -3.007264            7.988121
| 68>   H                      1.466461             -2.287587            6.424802
| 69>   H                      0.067196             -2.692540            5.254666
| 70>   H                      -0.059025            -1.418658            6.470274
| 71> *
| 72>
| 73>                          ****END OF INPUT****
 Total Charge           Charge          ....    0
 Multiplicity           Mult            ....    1
 Number of Electrons    NEL             ....   36
Dispersion correction           -0.001532622
FINAL SINGLE POINT ENERGY      -231.467435082946
Dispersion correction           -0.000194011
FINAL SINGLE POINT ENERGY      -115.728779841669

CARTESIAN COORDINATES (ANGSTROEM)
---------------------------------
  C     -1.759558   -3.697240   10.473655
  O     -1.814703   -2.791501    9.446395
  H     -1.493921   -1.963915    9.817831
  H     -0.839036   -3.765161   10.942798
  H     -2.437705   -3.484567   11.215743
  H     -1.906414   -4.658250   10.028213
  C      0.404256   -2.421285    6.257709
  O     -0.117990   -3.404198    7.145016
  H     -0.354279   -3.007264    7.988121
  H      1.466461   -2.287587    6.424802
  H      0.067196   -2.692540    5.254666
  H     -0.059025   -1.418658    6.470274

 Multiplicity           Mult            ....    1
 Number of Electrons    NEL             ....   18
 Basis Dimension        Dim             ....  172

ORBITAL ENERGIES
----------------

  NO   OCC          E(Eh)            E(eV)
   0   2.0000     -19.227389      -523.2038
   1   2.0000     -10.316786      -280.7340
   2   2.0000      -1.130724       -30.7686
   3   2.0000      -0.794504       -21.6195
   4   2.0000      -0.609021       -16.5723
   5   2.0000      -0.549786       -14.9604
   6   2.0000      -0.517837       -14.0911
   7   2.0000      -0.428320       -11.6552
   8   2.0000      -0.374207       -10.1827
   9   0.0000       0.072521         1.9734
  10   0.0000       0.127225         3.4620
  11   0.0000       0.157400         4.2831
  12   0.0000       0.172150         4.6844
  13   0.0000       0.196010         5.3337

MULLIKEN ATOMIC CHARGES
-----------------------
   0 C :   -0.000273
   1 O :   -0.002551
   2 H :   -0.000701
   3 H :   -0.000335
   4 H :    0.000106
   5 H :   -0.000335
   6 C :   -0.159274
   7 O :   -0.480358
   8 H :    0.312218
   9 H :    0.112769
  10 H :    0.121471
  11 H :    0.097263
Sum of atomic charges:   -0.0000000

LOEWDIN ATOMIC CHARGES
----------------------
   0 C :   -0.003363
   1 O :   -0.014462
   2 H :   -0.001933
   3 H :   -0.000245
   4 H :   -0.000047
   5 H :   -0.000335
   6 C :   -0.374857
   7 O :   -0.080425
   8 H :    0.172931
   9 H :    0.094570
  10 H :    0.107828
  11 H :    0.100340

  Mayer bond orders larger than 0.1
B(  6-C ,  7-O ) :   0.9896 B(  6-C ,  9-H ) :   0.9731 B(  6-C , 10-H ) :   0.9725
B(  6-C , 11-H ) :   0.9825 B(  7-O ,  8-H ) :   0.9016

Dispersion correction           -0.000244149
FINAL SINGLE POINT ENERGY      -115.734189690256

DIPOLE MOMENT
-------------
                                X             Y             Z
Electronic contribution:     -0.52136      -1.39563       0.92488
Nuclear contribution   :      0.56761       2.06324      -0.74866
                        -----------------------------------------
Total Dipole Moment    :      0.04625       0.66761       0.17621
                        -----------------------------------------
Magnitude (a.u.)       :      0.69202
Magnitude (Debye)      :      1.75897

Rotational constants in cm-1:     4.199088     0.823498     0.797360
Rotational constants in MHz : 125885.504052 24687.843552 23904.242713

                             ****ORCA TERMINATED NORMALLY****
TOTAL RUN TIME: 0 days 0 hours 1 minutes 11 seconds 167 msec
