                         Program Version 4.1.2  - RELEASE  -
|  1> #Run DFT-D3 single point of the dimer
|  2> ! wB97X-D3 def2-TZVP TIGHTSCF CHELPG PMODEL PAL8
|  3>
|  4> %base "2-74_DFT_AB"
|  5>
|  6> %scf
|  7> MaxIter 1000
|  8> end
|  9>
| 10> * xyz 0 1
| 11>   C                      -6.296488            0.198913             2.792889
| 12>   O                      -6.461516            -0.521665            1.555688
| 13>   H                      -5.961074            -1.353102            1.626890
| 14>   H                      -6.761771            -0.381322            3.663012
| 15>   H                      -5.261582            0.262228             3.149411
| 16>   H                      -6.779186            1.233509             2.736756
| 17>   C                      -4.602138            1.634884             6.062380
| 18>   O                      -5.510830            2.685958             5.751689
| 19>   H                      -5.954040            2.791662             6.614522
| 20>   H                      -5.100692            0.938811             6.756365
| 21>   H                      -4.443054            0.931583             5.176692
| 22>   H                      -3.641260            1.881957             6.524378
| 23> *
| 24>
| 25> #Run DFT-D3 single point of the molecule with dimer basis set
| 26> $new_job
| 27> %base "2-74_DFT_A"
| 28> ! wB97X-D3 def2-TZVP TIGHTSCF CHELPG PMODEL
| 29>
| 30> %scf
| 31> MaxIter 1000
| 32> end
| 33>
| 34> * xyz 0 1
| 35>   C                      -6.296488            0.198913             2.792889
| 36>   O                      -6.461516            -0.521665            1.555688
| 37>   H                      -5.961074            -1.353102            1.626890
| 38>   H                      -6.761771            -0.381322            3.663012
| 39>   H                      -5.261582            0.262228             3.149411
| 40>   H                      -6.779186            1.233509             2.736756
| 41>   C                    : -4.602138            1.634884             6.062380
| 42>   O                    : -5.510830            2.685958             5.751689
| 43>   H                    : -5.954040            2.791662             6.614522
| 44>   H                    : -5.100692            0.938811             6.756365
| 45>   H                    : -4.443054            0.931583             5.176692
| 46>   H                    : -3.641260            1.881957             6.524378
| 47> *
| 48>
| 49> #Run DFT-D3 single point of the particle with dimer basis set
| 50> $new_job
| 51> %base "2-74_DFT_B"
| 52> ! wB97X-D3 def2-TZVP TIGHTSCF CHELPG PMODEL
| 53>
| 54> %scf
| 55> MaxIter 1000
| 56> end
| 57>
| 58> * xyz 0 1
| 59>   C                    : -6.296488            0.198913             2.792889
| 60>   O                    : -6.461516            -0.521665            1.555688
| 61>   H                    : -5.961074            -1.353102            1.626890
| 62>   H                    : -6.761771            -0.381322            3.663012
| 63>   H                    : -5.261582            0.262228             3.149411
| 64>   H                    : -6.779186            1.233509             2.736756
| 65>   C                      -4.602138            1.634884             6.062380
| 66>   O                      -5.510830            2.685958             5.751689
| 67>   H                      -5.954040            2.791662             6.614522
| 68>   H                      -5.100692            0.938811             6.756365
| 69>   H                      -4.443054            0.931583             5.176692
| 70>   H                      -3.641260            1.881957             6.524378
| 71> *
| 72>
| 73>                          ****END OF INPUT****
 Total Charge           Charge          ....    0
 Multiplicity           Mult            ....    1
 Number of Electrons    NEL             ....   36
Dispersion correction           -0.001553109
FINAL SINGLE POINT ENERGY      -231.460673502957
Dispersion correction           -0.000270371
FINAL SINGLE POINT ENERGY      -115.730835933352

CARTESIAN COORDINATES (ANGSTROEM)
---------------------------------
  C     -6.296488    0.198913    2.792889
  O     -6.461516   -0.521665    1.555688
  H     -5.961074   -1.353102    1.626890
  H     -6.761771   -0.381322    3.663012
  H     -5.261582    0.262228    3.149411
  H     -6.779186    1.233509    2.736756
  C     -4.602138    1.634884    6.062380
  O     -5.510830    2.685958    5.751689
  H     -5.954040    2.791662    6.614522
  H     -5.100692    0.938811    6.756365
  H     -4.443054    0.931583    5.176692
  H     -3.641260    1.881957    6.524378

 Multiplicity           Mult            ....    1
 Number of Electrons    NEL             ....   18
 Basis Dimension        Dim             ....  172

ORBITAL ENERGIES
----------------

  NO   OCC          E(Eh)            E(eV)
   0   2.0000     -19.238399      -523.5035
   1   2.0000     -10.320625      -280.8385
   2   2.0000      -1.138247       -30.9733
   3   2.0000      -0.789162       -21.4742
   4   2.0000      -0.608801       -16.5663
   5   2.0000      -0.543434       -14.7876
   6   2.0000      -0.521751       -14.1976
   7   2.0000      -0.432441       -11.7673
   8   2.0000      -0.379594       -10.3293
   9   0.0000       0.088485         2.4078
  10   0.0000       0.114328         3.1110
  11   0.0000       0.150640         4.0991
  12   0.0000       0.171723         4.6728
  13   0.0000       0.191528         5.2117

MULLIKEN ATOMIC CHARGES
-----------------------
   0 C :    0.001595
   1 O :    0.000077
   2 H :    0.000029
   3 H :   -0.000667
   4 H :    0.001173
   5 H :   -0.001371
   6 C :   -0.196254
   7 O :   -0.454285
   8 H :    0.318494
   9 H :    0.105704
  10 H :    0.112748
  11 H :    0.112758
Sum of atomic charges:    0.0000000

LOEWDIN ATOMIC CHARGES
----------------------
   0 C :   -0.003683
   1 O :   -0.000025
   2 H :   -0.000005
   3 H :   -0.000308
   4 H :   -0.004784
   5 H :   -0.000753
   6 C :   -0.399153
   7 O :   -0.084696
   8 H :    0.183933
   9 H :    0.097352
  10 H :    0.117850
  11 H :    0.094274

  Mayer bond orders larger than 0.1
B(  6-C ,  7-O ) :   1.0080 B(  6-C ,  9-H ) :   0.9902 B(  6-C , 10-H ) :   0.9747
B(  6-C , 11-H ) :   0.9638 B(  7-O ,  8-H ) :   0.8996

Dispersion correction           -0.000250574
FINAL SINGLE POINT ENERGY      -115.728982422171

DIPOLE MOMENT
-------------
                                X             Y             Z
Electronic contribution:     -1.04914       1.60483      -0.58835
Nuclear contribution   :      1.09720      -1.95802       1.25398
                        -----------------------------------------
Total Dipole Moment    :      0.04806      -0.35319       0.66563
                        -----------------------------------------
Magnitude (a.u.)       :      0.75506
Magnitude (Debye)      :      1.91922

Rotational constants in cm-1:     4.207515     0.815200     0.788820
Rotational constants in MHz : 126138.117507 24439.089503 23648.226677

                             ****ORCA TERMINATED NORMALLY****
TOTAL RUN TIME: 0 days 0 hours 6 minutes 0 seconds 92 msec
