                         Program Version 4.1.2  - RELEASE  -
|  1> #Run DFT-D3 single point of the dimer
|  2> ! wB97X-D3 def2-TZVP TIGHTSCF CHELPG PMODEL PAL8
|  3>
|  4> %base "3-63_DFT_AB"
|  5>
|  6> %scf
|  7> MaxIter 1000
|  8> end
|  9>
| 10> * xyz 0 1
| 11>   C                      -8.550756            3.122368             3.230009
| 12>   O                      -8.562572            2.964860             1.793958
| 13>   H                      -8.190921            3.761981             1.375839
| 14>   H                      -9.274297            2.452273             3.762807
| 15>   H                      -7.574168            2.767367             3.602449
| 16>   H                      -8.847867            4.108928             3.617314
| 17>   C                      -5.693072            1.112097             -3.767097
| 18>   O                      -6.108488            1.713460             -2.566644
| 19>   H                      -6.511621            1.097057             -1.946003
| 20>   H                      -5.085930            0.251614             -3.445419
| 21>   H                      -6.602067            0.636664             -4.169847
| 22>   H                      -5.104219            1.728336             -4.437093
| 23> *
| 24>
| 25> #Run DFT-D3 single point of the molecule with dimer basis set
| 26> $new_job
| 27> %base "3-63_DFT_A"
| 28> ! wB97X-D3 def2-TZVP TIGHTSCF CHELPG PMODEL
| 29>
| 30> %scf
| 31> MaxIter 1000
| 32> end
| 33>
| 34> * xyz 0 1
| 35>   C                      -8.550756            3.122368             3.230009
| 36>   O                      -8.562572            2.964860             1.793958
| 37>   H                      -8.190921            3.761981             1.375839
| 38>   H                      -9.274297            2.452273             3.762807
| 39>   H                      -7.574168            2.767367             3.602449
| 40>   H                      -8.847867            4.108928             3.617314
| 41>   C                    : -5.693072            1.112097             -3.767097
| 42>   O                    : -6.108488            1.713460             -2.566644
| 43>   H                    : -6.511621            1.097057             -1.946003
| 44>   H                    : -5.085930            0.251614             -3.445419
| 45>   H                    : -6.602067            0.636664             -4.169847
| 46>   H                    : -5.104219            1.728336             -4.437093
| 47> *
| 48>
| 49> #Run DFT-D3 single point of the particle with dimer basis set
| 50> $new_job
| 51> %base "3-63_DFT_B"
| 52> ! wB97X-D3 def2-TZVP TIGHTSCF CHELPG PMODEL
| 53>
| 54> %scf
| 55> MaxIter 1000
| 56> end
| 57>
| 58> * xyz 0 1
| 59>   C                    : -8.550756            3.122368             3.230009
| 60>   O                    : -8.562572            2.964860             1.793958
| 61>   H                    : -8.190921            3.761981             1.375839
| 62>   H                    : -9.274297            2.452273             3.762807
| 63>   H                    : -7.574168            2.767367             3.602449
| 64>   H                    : -8.847867            4.108928             3.617314
| 65>   C                      -5.693072            1.112097             -3.767097
| 66>   O                      -6.108488            1.713460             -2.566644
| 67>   H                      -6.511621            1.097057             -1.946003
| 68>   H                      -5.085930            0.251614             -3.445419
| 69>   H                      -6.602067            0.636664             -4.169847
| 70>   H                      -5.104219            1.728336             -4.437093
| 71> *
| 72>
| 73>                          ****END OF INPUT****
 Total Charge           Charge          ....    0
 Multiplicity           Mult            ....    1
 Number of Electrons    NEL             ....   36
Dispersion correction           -0.000580601
FINAL SINGLE POINT ENERGY      -231.459298351169
Dispersion correction           -0.000281362
FINAL SINGLE POINT ENERGY      -115.731224808355

CARTESIAN COORDINATES (ANGSTROEM)
---------------------------------
  C     -8.550756    3.122368    3.230009
  O     -8.562572    2.964860    1.793958
  H     -8.190921    3.761981    1.375839
  H     -9.274297    2.452273    3.762807
  H     -7.574168    2.767367    3.602449
  H     -8.847867    4.108928    3.617314
  C     -5.693072    1.112097   -3.767097
  O     -6.108488    1.713460   -2.566644
  H     -6.511621    1.097057   -1.946003
  H     -5.085930    0.251614   -3.445419
  H     -6.602067    0.636664   -4.169847
  H     -5.104219    1.728336   -4.437093

 Multiplicity           Mult            ....    1
 Number of Electrons    NEL             ....   18
 Basis Dimension        Dim             ....  172

ORBITAL ENERGIES
----------------

  NO   OCC          E(Eh)            E(eV)
   0   2.0000     -19.221820      -523.0523
   1   2.0000     -10.314137      -280.6619
   2   2.0000      -1.132859       -30.8267
   3   2.0000      -0.794684       -21.6245
   4   2.0000      -0.609358       -16.5815
   5   2.0000      -0.548737       -14.9319
   6   2.0000      -0.532185       -14.4815
   7   2.0000      -0.423359       -11.5202
   8   2.0000      -0.362123        -9.8539
   9   0.0000       0.087244         2.3740
  10   0.0000       0.111517         3.0345
  11   0.0000       0.154230         4.1968
  12   0.0000       0.168714         4.5909
  13   0.0000       0.198528         5.4022

MULLIKEN ATOMIC CHARGES
-----------------------
   0 C :    0.000003
   1 O :    0.000001
   2 H :   -0.000040
   3 H :    0.000000
   4 H :   -0.000000
   5 H :   -0.000000
   6 C :   -0.155416
   7 O :   -0.491627
   8 H :    0.319276
   9 H :    0.098846
  10 H :    0.099989
  11 H :    0.128968
Sum of atomic charges:    0.0000000

LOEWDIN ATOMIC CHARGES
----------------------
   0 C :   -0.000001
   1 O :   -0.000002
   2 H :   -0.000018
   3 H :   -0.000000
   4 H :   -0.000000
   5 H :   -0.000000
   6 C :   -0.385197
   7 O :   -0.085835
   8 H :    0.169848
   9 H :    0.096453
  10 H :    0.097912
  11 H :    0.106841

  Mayer bond orders larger than 0.1
B(  6-C ,  7-O ) :   0.9771 B(  6-C ,  9-H ) :   0.9888 B(  6-C , 10-H ) :   0.9859
B(  6-C , 11-H ) :   0.9644 B(  7-O ,  8-H ) :   0.8917

Dispersion correction           -0.000214825
FINAL SINGLE POINT ENERGY      -115.727255533458

DIPOLE MOMENT
-------------
                                X             Y             Z
Electronic contribution:     -0.41626       1.07178       1.28213
Nuclear contribution   :      0.33963      -1.72458      -1.36344
                        -----------------------------------------
Total Dipole Moment    :     -0.07663      -0.65280      -0.08131
                        -----------------------------------------
Magnitude (a.u.)       :      0.66229
Magnitude (Debye)      :      1.68341

Rotational constants in cm-1:     4.280880     0.846829     0.809094
Rotational constants in MHz : 128337.547650 25387.300856 24256.041407

                             ****ORCA TERMINATED NORMALLY****
TOTAL RUN TIME: 0 days 0 hours 5 minutes 59 seconds 5 msec
