                         Program Version 4.1.2  - RELEASE  -
|  1> #Run DFT-D3 single point of the dimer
|  2> ! wB97X-D3 def2-TZVP TIGHTSCF CHELPG PMODEL PAL8
|  3>
|  4> %base "21-148_DFT_AB"
|  5>
|  6> %scf
|  7> MaxIter 1000
|  8> end
|  9>
| 10> * xyz 0 1
| 11>   C                      -8.603786            5.447837             -7.490318
| 12>   O                      -8.296332            6.339186             -6.437737
| 13>   H                      -7.357825            6.381653             -6.421790
| 14>   H                      -8.094756            4.454546             -7.365590
| 15>   H                      -9.650627            5.292896             -7.546803
| 16>   H                      -8.190118            5.916413             -8.395784
| 17>   C                      -9.160519            8.680467             -9.379281
| 18>   O                      -9.513265            8.611742             -7.977910
| 19>   H                      -8.903762            8.138614             -7.374890
| 20>   H                      -9.073666            9.693718             -9.714634
| 21>   H                      -8.235219            8.176330             -9.639684
| 22>   H                      -10.008208           8.291303             -9.932701
| 23> *
| 24>
| 25> #Run DFT-D3 single point of the molecule with dimer basis set
| 26> $new_job
| 27> %base "21-148_DFT_A"
| 28> ! wB97X-D3 def2-TZVP TIGHTSCF CHELPG PMODEL
| 29>
| 30> %scf
| 31> MaxIter 1000
| 32> end
| 33>
| 34> * xyz 0 1
| 35>   C                      -8.603786            5.447837             -7.490318
| 36>   O                      -8.296332            6.339186             -6.437737
| 37>   H                      -7.357825            6.381653             -6.421790
| 38>   H                      -8.094756            4.454546             -7.365590
| 39>   H                      -9.650627            5.292896             -7.546803
| 40>   H                      -8.190118            5.916413             -8.395784
| 41>   C                    : -9.160519            8.680467             -9.379281
| 42>   O                    : -9.513265            8.611742             -7.977910
| 43>   H                    : -8.903762            8.138614             -7.374890
| 44>   H                    : -9.073666            9.693718             -9.714634
| 45>   H                    : -8.235219            8.176330             -9.639684
| 46>   H                    : -10.008208           8.291303             -9.932701
| 47> *
| 48>
| 49> #Run DFT-D3 single point of the particle with dimer basis set
| 50> $new_job
| 51> %base "21-148_DFT_B"
| 52> ! wB97X-D3 def2-TZVP TIGHTSCF CHELPG PMODEL
| 53>
| 54> %scf
| 55> MaxIter 1000
| 56> end
| 57>
| 58> * xyz 0 1
| 59>   C                    : -8.603786            5.447837             -7.490318
| 60>   O                    : -8.296332            6.339186             -6.437737
| 61>   H                    : -7.357825            6.381653             -6.421790
| 62>   H                    : -8.094756            4.454546             -7.365590
| 63>   H                    : -9.650627            5.292896             -7.546803
| 64>   H                    : -8.190118            5.916413             -8.395784
| 65>   C                      -9.160519            8.680467             -9.379281
| 66>   O                      -9.513265            8.611742             -7.977910
| 67>   H                      -8.903762            8.138614             -7.374890
| 68>   H                      -9.073666            9.693718             -9.714634
| 69>   H                      -8.235219            8.176330             -9.639684
| 70>   H                      -10.008208           8.291303             -9.932701
| 71> *
| 72>
| 73>                          ****END OF INPUT****
 Total Charge           Charge          ....    0
 Multiplicity           Mult            ....    1
 Number of Electrons    NEL             ....   36
Dispersion correction           -0.002151241
FINAL SINGLE POINT ENERGY      -231.472091639322
Dispersion correction           -0.000214172
FINAL SINGLE POINT ENERGY      -115.734243228452

CARTESIAN COORDINATES (ANGSTROEM)
---------------------------------
  C     -8.603786    5.447837   -7.490318
  O     -8.296332    6.339186   -6.437737
  H     -7.357825    6.381653   -6.421790
  H     -8.094756    4.454546   -7.365590
  H     -9.650627    5.292896   -7.546803
  H     -8.190118    5.916413   -8.395784
  C     -9.160519    8.680467   -9.379281
  O     -9.513265    8.611742   -7.977910
  H     -8.903762    8.138614   -7.374890
  H     -9.073666    9.693718   -9.714634
  H     -8.235219    8.176330   -9.639684
  H    -10.008208    8.291303   -9.932701

 Multiplicity           Mult            ....    1
 Number of Electrons    NEL             ....   18
 Basis Dimension        Dim             ....  172

ORBITAL ENERGIES
----------------

  NO   OCC          E(Eh)            E(eV)
   0   2.0000     -19.227683      -523.2118
   1   2.0000     -10.312577      -280.6195
   2   2.0000      -1.116016       -30.3683
   3   2.0000      -0.802905       -21.8482
   4   2.0000      -0.606550       -16.5051
   5   2.0000      -0.531971       -14.4757
   6   2.0000      -0.530968       -14.4484
   7   2.0000      -0.427502       -11.6329
   8   2.0000      -0.370683       -10.0868
   9   0.0000       0.073109         1.9894
  10   0.0000       0.139498         3.7959
  11   0.0000       0.144290         3.9263
  12   0.0000       0.168604         4.5880
  13   0.0000       0.191892         5.2216

MULLIKEN ATOMIC CHARGES
-----------------------
   0 C :   -0.014780
   1 O :   -0.000439
   2 H :   -0.000242
   3 H :   -0.000564
   4 H :    0.001279
   5 H :    0.001789
   6 C :   -0.153839
   7 O :   -0.501617
   8 H :    0.321051
   9 H :    0.117169
  10 H :    0.110856
  11 H :    0.119337
Sum of atomic charges:   -0.0000000

LOEWDIN ATOMIC CHARGES
----------------------
   0 C :   -0.012658
   1 O :   -0.011908
   2 H :   -0.001466
   3 H :   -0.000243
   4 H :   -0.001306
   5 H :   -0.003255
   6 C :   -0.350772
   7 O :   -0.099259
   8 H :    0.181653
   9 H :    0.097305
  10 H :    0.097809
  11 H :    0.104100

  Mayer bond orders larger than 0.1
B(  6-C ,  7-O ) :   0.9780 B(  6-C ,  9-H ) :   0.9752 B(  6-C , 10-H ) :   0.9752
B(  6-C , 11-H ) :   0.9807 B(  7-O ,  8-H ) :   0.8935

Dispersion correction           -0.000280262
FINAL SINGLE POINT ENERGY      -115.731647946740

DIPOLE MOMENT
-------------
                                X             Y             Z
Electronic contribution:     -0.44504      -0.04332       1.67967
Nuclear contribution   :      1.00361      -0.21755      -1.91450
                        -----------------------------------------
Total Dipole Moment    :      0.55858      -0.26087      -0.23483
                        -----------------------------------------
Magnitude (a.u.)       :      0.65970
Magnitude (Debye)      :      1.67683

Rotational constants in cm-1:     4.505502     0.791859     0.761306
Rotational constants in MHz : 135071.563069 23739.330373 22823.366605

                             ****ORCA TERMINATED NORMALLY****
TOTAL RUN TIME: 0 days 0 hours 1 minutes 5 seconds 326 msec
