                         Program Version 4.1.2  - RELEASE  -
|  1> #Run DFT-D3 single point of the dimer
|  2> ! wB97X-D3 def2-TZVP TIGHTSCF CHELPG PMODEL PAL8
|  3>
|  4> %base "15-125_DFT_AB"
|  5>
|  6> %scf
|  7> MaxIter 1000
|  8> end
|  9>
| 10> * xyz 0 1
| 11>   C                      9.206192             2.657361             9.113873
| 12>   O                      9.537454             1.298386             9.106032
| 13>   H                      8.908156             0.835783             9.650586
| 14>   H                      8.438459             2.799997             9.832986
| 15>   H                      10.148782            3.218785             9.394563
| 16>   H                      8.796245             2.992167             8.167669
| 17>   C                      7.425220             -1.625264            9.424730
| 18>   O                      7.284133             -0.337851            10.035462
| 19>   H                      6.486196             -0.384319            10.613470
| 20>   H                      7.224110             -2.397311            10.177262
| 21>   H                      6.662327             -1.825236            8.668143
| 22>   H                      8.374441             -1.760879            8.939591
| 23> *
| 24>
| 25> #Run DFT-D3 single point of the molecule with dimer basis set
| 26> $new_job
| 27> %base "15-125_DFT_A"
| 28> ! wB97X-D3 def2-TZVP TIGHTSCF CHELPG PMODEL
| 29>
| 30> %scf
| 31> MaxIter 1000
| 32> end
| 33>
| 34> * xyz 0 1
| 35>   C                      9.206192             2.657361             9.113873
| 36>   O                      9.537454             1.298386             9.106032
| 37>   H                      8.908156             0.835783             9.650586
| 38>   H                      8.438459             2.799997             9.832986
| 39>   H                      10.148782            3.218785             9.394563
| 40>   H                      8.796245             2.992167             8.167669
| 41>   C                    : 7.425220             -1.625264            9.424730
| 42>   O                    : 7.284133             -0.337851            10.035462
| 43>   H                    : 6.486196             -0.384319            10.613470
| 44>   H                    : 7.224110             -2.397311            10.177262
| 45>   H                    : 6.662327             -1.825236            8.668143
| 46>   H                    : 8.374441             -1.760879            8.939591
| 47> *
| 48>
| 49> #Run DFT-D3 single point of the particle with dimer basis set
| 50> $new_job
| 51> %base "15-125_DFT_B"
| 52> ! wB97X-D3 def2-TZVP TIGHTSCF CHELPG PMODEL
| 53>
| 54> %scf
| 55> MaxIter 1000
| 56> end
| 57>
| 58> * xyz 0 1
| 59>   C                    : 9.206192             2.657361             9.113873
| 60>   O                    : 9.537454             1.298386             9.106032
| 61>   H                    : 8.908156             0.835783             9.650586
| 62>   H                    : 8.438459             2.799997             9.832986
| 63>   H                    : 10.148782            3.218785             9.394563
| 64>   H                    : 8.796245             2.992167             8.167669
| 65>   C                      7.425220             -1.625264            9.424730
| 66>   O                      7.284133             -0.337851            10.035462
| 67>   H                      6.486196             -0.384319            10.613470
| 68>   H                      7.224110             -2.397311            10.177262
| 69>   H                      6.662327             -1.825236            8.668143
| 70>   H                      8.374441             -1.760879            8.939591
| 71> *
| 72>
| 73>                          ****END OF INPUT****
 Total Charge           Charge          ....    0
 Multiplicity           Mult            ....    1
 Number of Electrons    NEL             ....   36
Dispersion correction           -0.001639291
FINAL SINGLE POINT ENERGY      -231.474743488972
Dispersion correction           -0.000228857
FINAL SINGLE POINT ENERGY      -115.732880180366

CARTESIAN COORDINATES (ANGSTROEM)
---------------------------------
  C      9.206192    2.657361    9.113873
  O      9.537454    1.298386    9.106032
  H      8.908156    0.835783    9.650586
  H      8.438459    2.799997    9.832986
  H     10.148782    3.218785    9.394563
  H      8.796245    2.992167    8.167669
  C      7.425220   -1.625264    9.424730
  O      7.284133   -0.337851   10.035462
  H      6.486196   -0.384319   10.613470
  H      7.224110   -2.397311   10.177262
  H      6.662327   -1.825236    8.668143
  H      8.374441   -1.760879    8.939591

 Multiplicity           Mult            ....    1
 Number of Electrons    NEL             ....   18
 Basis Dimension        Dim             ....  172

ORBITAL ENERGIES
----------------

  NO   OCC          E(Eh)            E(eV)
   0   2.0000     -19.233861      -523.3800
   1   2.0000     -10.313317      -280.6396
   2   2.0000      -1.127306       -30.6755
   3   2.0000      -0.796004       -21.6604
   4   2.0000      -0.607504       -16.5310
   5   2.0000      -0.536132       -14.5889
   6   2.0000      -0.528899       -14.3921
   7   2.0000      -0.439499       -11.9594
   8   2.0000      -0.371105       -10.0983
   9   0.0000       0.099626         2.7110
  10   0.0000       0.120030         3.2662
  11   0.0000       0.151229         4.1151
  12   0.0000       0.185624         5.0511
  13   0.0000       0.203285         5.5317

MULLIKEN ATOMIC CHARGES
-----------------------
   0 C :    0.000643
   1 O :    0.000215
   2 H :   -0.007959
   3 H :   -0.001934
   4 H :   -0.000161
   5 H :   -0.000037
   6 C :   -0.170355
   7 O :   -0.466618
   8 H :    0.313364
   9 H :    0.103185
  10 H :    0.100847
  11 H :    0.128808
Sum of atomic charges:   -0.0000000

LOEWDIN ATOMIC CHARGES
----------------------
   0 C :   -0.002686
   1 O :   -0.003450
   2 H :   -0.030173
   3 H :   -0.000934
   4 H :   -0.000039
   5 H :   -0.000055
   6 C :   -0.370488
   7 O :   -0.071948
   8 H :    0.183835
   9 H :    0.097119
  10 H :    0.093678
  11 H :    0.105142

  Mayer bond orders larger than 0.1
B(  6-C ,  7-O ) :   0.9927 B(  6-C ,  9-H ) :   0.9824 B(  6-C , 10-H ) :   0.9695
B(  6-C , 11-H ) :   0.9745 B(  7-O ,  8-H ) :   0.8949

Dispersion correction           -0.000241355
FINAL SINGLE POINT ENERGY      -115.733756245155

DIPOLE MOMENT
-------------
                                X             Y             Z
Electronic contribution:      0.07503       1.72800       0.67690
Nuclear contribution   :     -0.51847      -2.29352      -0.56647
                        -----------------------------------------
Total Dipole Moment    :     -0.44344      -0.56552       0.11043
                        -----------------------------------------
Magnitude (a.u.)       :      0.72709
Magnitude (Debye)      :      1.84811

Rotational constants in cm-1:     4.310566     0.817557     0.778882
Rotational constants in MHz : 129227.505715 24509.752746 23350.303374

                             ****ORCA TERMINATED NORMALLY****
TOTAL RUN TIME: 0 days 0 hours 1 minutes 1 seconds 847 msec
