                         Program Version 4.1.2  - RELEASE  -
|  1> #Run DFT-D3 single point of the dimer
|  2> ! wB97X-D3 def2-TZVP TIGHTSCF CHELPG PMODEL PAL8
|  3>
|  4> %base "12-43_DFT_AB"
|  5>
|  6> %scf
|  7> MaxIter 1000
|  8> end
|  9>
| 10> * xyz 0 1
| 11>   C                      -2.565252            4.718114             -0.085181
| 12>   O                      -2.001019            4.805665             -1.430314
| 13>   H                      -1.240345            5.338943             -1.221299
| 14>   H                      -1.779562            4.387065             0.613376
| 15>   H                      -2.893558            5.626545             0.347260
| 16>   H                      -3.394099            4.098800             0.009473
| 17>   C                      1.985308             5.468408             -0.360350
| 18>   O                      0.722614             5.878839             -0.949379
| 19>   H                      0.881776             6.662856             -1.417531
| 20>   H                      2.010401             4.414437             0.026963
| 21>   H                      2.708360             5.469500             -1.256987
| 22>   H                      2.359041             6.154839             0.428649
| 23> *
| 24>
| 25> #Run DFT-D3 single point of the molecule with dimer basis set
| 26> $new_job
| 27> %base "12-43_DFT_A"
| 28> ! wB97X-D3 def2-TZVP TIGHTSCF CHELPG PMODEL
| 29>
| 30> %scf
| 31> MaxIter 1000
| 32> end
| 33>
| 34> * xyz 0 1
| 35>   C                      -2.565252            4.718114             -0.085181
| 36>   O                      -2.001019            4.805665             -1.430314
| 37>   H                      -1.240345            5.338943             -1.221299
| 38>   H                      -1.779562            4.387065             0.613376
| 39>   H                      -2.893558            5.626545             0.347260
| 40>   H                      -3.394099            4.098800             0.009473
| 41>   C                    : 1.985308             5.468408             -0.360350
| 42>   O                    : 0.722614             5.878839             -0.949379
| 43>   H                    : 0.881776             6.662856             -1.417531
| 44>   H                    : 2.010401             4.414437             0.026963
| 45>   H                    : 2.708360             5.469500             -1.256987
| 46>   H                    : 2.359041             6.154839             0.428649
| 47> *
| 48>
| 49> #Run DFT-D3 single point of the particle with dimer basis set
| 50> $new_job
| 51> %base "12-43_DFT_B"
| 52> ! wB97X-D3 def2-TZVP TIGHTSCF CHELPG PMODEL
| 53>
| 54> %scf
| 55> MaxIter 1000
| 56> end
| 57>
| 58> * xyz 0 1
| 59>   C                    : -2.565252            4.718114             -0.085181
| 60>   O                    : -2.001019            4.805665             -1.430314
| 61>   H                    : -1.240345            5.338943             -1.221299
| 62>   H                    : -1.779562            4.387065             0.613376
| 63>   H                    : -2.893558            5.626545             0.347260
| 64>   H                    : -3.394099            4.098800             0.009473
| 65>   C                      1.985308             5.468408             -0.360350
| 66>   O                      0.722614             5.878839             -0.949379
| 67>   H                      0.881776             6.662856             -1.417531
| 68>   H                      2.010401             4.414437             0.026963
| 69>   H                      2.708360             5.469500             -1.256987
| 70>   H                      2.359041             6.154839             0.428649
| 71> *
| 72>
| 73>                          ****END OF INPUT****
 Total Charge           Charge          ....    0
 Multiplicity           Mult            ....    1
 Number of Electrons    NEL             ....   36
Dispersion correction           -0.001577320
FINAL SINGLE POINT ENERGY      -231.463183593329
Dispersion correction           -0.000233859
FINAL SINGLE POINT ENERGY      -115.727254437520

CARTESIAN COORDINATES (ANGSTROEM)
---------------------------------
  C     -2.565252    4.718114   -0.085181
  O     -2.001019    4.805665   -1.430314
  H     -1.240345    5.338943   -1.221299
  H     -1.779562    4.387065    0.613376
  H     -2.893558    5.626545    0.347260
  H     -3.394099    4.098800    0.009473
  C      1.985308    5.468408   -0.360350
  O      0.722614    5.878839   -0.949379
  H      0.881776    6.662856   -1.417531
  H      2.010401    4.414437    0.026963
  H      2.708360    5.469500   -1.256987
  H      2.359041    6.154839    0.428649

 Multiplicity           Mult            ....    1
 Number of Electrons    NEL             ....   18
 Basis Dimension        Dim             ....  172

ORBITAL ENERGIES
----------------

  NO   OCC          E(Eh)            E(eV)
   0   2.0000     -19.228521      -523.2347
   1   2.0000     -10.329457      -281.0788
   2   2.0000      -1.133747       -30.8508
   3   2.0000      -0.792109       -21.5544
   4   2.0000      -0.604085       -16.4380
   5   2.0000      -0.537592       -14.6286
   6   2.0000      -0.526705       -14.3324
   7   2.0000      -0.431083       -11.7304
   8   2.0000      -0.375213       -10.2101
   9   0.0000       0.100875         2.7450
  10   0.0000       0.123801         3.3688
  11   0.0000       0.147846         4.0231
  12   0.0000       0.190293         5.1781
  13   0.0000       0.194444         5.2911

MULLIKEN ATOMIC CHARGES
-----------------------
   0 C :    0.002218
   1 O :   -0.000221
   2 H :   -0.009865
   3 H :   -0.001951
   4 H :   -0.000773
   5 H :   -0.000250
   6 C :   -0.183935
   7 O :   -0.461421
   8 H :    0.310396
   9 H :    0.129996
  10 H :    0.103838
  11 H :    0.111969
Sum of atomic charges:    0.0000000

LOEWDIN ATOMIC CHARGES
----------------------
   0 C :   -0.003446
   1 O :   -0.004165
   2 H :   -0.033354
   3 H :   -0.000823
   4 H :   -0.000178
   5 H :   -0.000046
   6 C :   -0.366352
   7 O :   -0.056781
   8 H :    0.145721
   9 H :    0.114268
  10 H :    0.107185
  11 H :    0.097972

  Mayer bond orders larger than 0.1
B(  6-C ,  7-O ) :   0.9849 B(  6-C ,  9-H ) :   0.9704 B(  6-C , 10-H ) :   0.9855
B(  6-C , 11-H ) :   0.9619 B(  7-O ,  8-H ) :   0.9038

Dispersion correction           -0.000259762
FINAL SINGLE POINT ENERGY      -115.728743302256

DIPOLE MOMENT
-------------
                                X             Y             Z
Electronic contribution:     -1.73539       0.40833      -0.51726
Nuclear contribution   :      2.37169      -0.08734       0.46206
                        -----------------------------------------
Total Dipole Moment    :      0.63630       0.32098      -0.05520
                        -----------------------------------------
Magnitude (a.u.)       :      0.71481
Magnitude (Debye)      :      1.81690

Rotational constants in cm-1:     4.154439     0.787787     0.766530
Rotational constants in MHz : 124546.954257 23617.271031 22980.005344

                             ****ORCA TERMINATED NORMALLY****
TOTAL RUN TIME: 0 days 0 hours 1 minutes 14 seconds 982 msec
