                         Program Version 4.1.2  - RELEASE  -
|  1> #Run DFT-D3 single point of the dimer
|  2> ! wB97X-D3 def2-TZVP TIGHTSCF CHELPG PMODEL PAL8
|  3>
|  4> %base "15-154_DFT_AB"
|  5>
|  6> %scf
|  7> MaxIter 1000
|  8> end
|  9>
| 10> * xyz 0 1
| 11>   C                      -7.384591            -5.803450            -3.268758
| 12>   O                      -6.320142            -6.327695            -2.550983
| 13>   H                      -5.901000            -5.572593            -2.211143
| 14>   H                      -7.027067            -4.995892            -3.920319
| 15>   H                      -7.912776            -6.587076            -3.837397
| 16>   H                      -8.019997            -5.265419            -2.574121
| 17>   C                      -5.165863            -9.581708            -2.485840
| 18>   O                      -6.423885            -9.223285            -1.799085
| 19>   H                      -6.573787            -8.283563            -1.949006
| 20>   H                      -4.823366            -10.519670           -2.077877
| 21>   H                      -5.296363            -9.580533            -3.532243
| 22>   H                      -4.360786            -8.853469            -2.328686
| 23> *
| 24>
| 25> #Run DFT-D3 single point of the molecule with dimer basis set
| 26> $new_job
| 27> %base "15-154_DFT_A"
| 28> ! wB97X-D3 def2-TZVP TIGHTSCF CHELPG PMODEL
| 29>
| 30> %scf
| 31> MaxIter 1000
| 32> end
| 33>
| 34> * xyz 0 1
| 35>   C                      -7.384591            -5.803450            -3.268758
| 36>   O                      -6.320142            -6.327695            -2.550983
| 37>   H                      -5.901000            -5.572593            -2.211143
| 38>   H                      -7.027067            -4.995892            -3.920319
| 39>   H                      -7.912776            -6.587076            -3.837397
| 40>   H                      -8.019997            -5.265419            -2.574121
| 41>   C                    : -5.165863            -9.581708            -2.485840
| 42>   O                    : -6.423885            -9.223285            -1.799085
| 43>   H                    : -6.573787            -8.283563            -1.949006
| 44>   H                    : -4.823366            -10.519670           -2.077877
| 45>   H                    : -5.296363            -9.580533            -3.532243
| 46>   H                    : -4.360786            -8.853469            -2.328686
| 47> *
| 48>
| 49> #Run DFT-D3 single point of the particle with dimer basis set
| 50> $new_job
| 51> %base "15-154_DFT_B"
| 52> ! wB97X-D3 def2-TZVP TIGHTSCF CHELPG PMODEL
| 53>
| 54> %scf
| 55> MaxIter 1000
| 56> end
| 57>
| 58> * xyz 0 1
| 59>   C                    : -7.384591            -5.803450            -3.268758
| 60>   O                    : -6.320142            -6.327695            -2.550983
| 61>   H                    : -5.901000            -5.572593            -2.211143
| 62>   H                    : -7.027067            -4.995892            -3.920319
| 63>   H                    : -7.912776            -6.587076            -3.837397
| 64>   H                    : -8.019997            -5.265419            -2.574121
| 65>   C                      -5.165863            -9.581708            -2.485840
| 66>   O                      -6.423885            -9.223285            -1.799085
| 67>   H                      -6.573787            -8.283563            -1.949006
| 68>   H                      -4.823366            -10.519670           -2.077877
| 69>   H                      -5.296363            -9.580533            -3.532243
| 70>   H                      -4.360786            -8.853469            -2.328686
| 71> *
| 72>
| 73>                          ****END OF INPUT****
 Total Charge           Charge          ....    0
 Multiplicity           Mult            ....    1
 Number of Electrons    NEL             ....   36
Dispersion correction           -0.001749684
FINAL SINGLE POINT ENERGY      -231.472238599119
Dispersion correction           -0.000195615
FINAL SINGLE POINT ENERGY      -115.731660259479

CARTESIAN COORDINATES (ANGSTROEM)
---------------------------------
  C     -7.384591   -5.803450   -3.268758
  O     -6.320142   -6.327695   -2.550983
  H     -5.901000   -5.572593   -2.211143
  H     -7.027067   -4.995892   -3.920319
  H     -7.912776   -6.587076   -3.837397
  H     -8.019997   -5.265419   -2.574121
  C     -5.165863   -9.581708   -2.485840
  O     -6.423885   -9.223285   -1.799085
  H     -6.573787   -8.283563   -1.949006
  H     -4.823366  -10.519670   -2.077877
  H     -5.296363   -9.580533   -3.532243
  H     -4.360786   -8.853469   -2.328686

 Multiplicity           Mult            ....    1
 Number of Electrons    NEL             ....   18
 Basis Dimension        Dim             ....  172

ORBITAL ENERGIES
----------------

  NO   OCC          E(Eh)            E(eV)
   0   2.0000     -19.230402      -523.2859
   1   2.0000     -10.313722      -280.6506
   2   2.0000      -1.117369       -30.4051
   3   2.0000      -0.802544       -21.8383
   4   2.0000      -0.603177       -16.4133
   5   2.0000      -0.540407       -14.7052
   6   2.0000      -0.515476       -14.0268
   7   2.0000      -0.442509       -12.0413
   8   2.0000      -0.376016       -10.2319
   9   0.0000       0.068673         1.8687
  10   0.0000       0.132284         3.5996
  11   0.0000       0.149207         4.0601
  12   0.0000       0.159066         4.3284
  13   0.0000       0.191382         5.2078

MULLIKEN ATOMIC CHARGES
-----------------------
   0 C :   -0.002238
   1 O :   -0.003590
   2 H :   -0.000189
   3 H :   -0.000066
   4 H :   -0.001303
   5 H :    0.000096
   6 C :   -0.175768
   7 O :   -0.483453
   8 H :    0.313352
   9 H :    0.126784
  10 H :    0.117854
  11 H :    0.108522
Sum of atomic charges:   -0.0000000

LOEWDIN ATOMIC CHARGES
----------------------
   0 C :   -0.004067
   1 O :   -0.014930
   2 H :   -0.000754
   3 H :   -0.000079
   4 H :   -0.000880
   5 H :   -0.000078
   6 C :   -0.332249
   7 O :   -0.111816
   8 H :    0.170177
   9 H :    0.106983
  10 H :    0.089589
  11 H :    0.098103

  Mayer bond orders larger than 0.1
B(  6-C ,  7-O ) :   0.9822 B(  6-C ,  9-H ) :   0.9759 B(  6-C , 10-H ) :   0.9728
B(  6-C , 11-H ) :   0.9762 B(  7-O ,  8-H ) :   0.9099

Dispersion correction           -0.000259032
FINAL SINGLE POINT ENERGY      -115.732923998879

DIPOLE MOMENT
-------------
                                X             Y             Z
Electronic contribution:     -1.56419       0.21061       0.84405
Nuclear contribution   :      2.02757       0.22414      -1.23621
                        -----------------------------------------
Total Dipole Moment    :      0.46339       0.43476      -0.39216
                        -----------------------------------------
Magnitude (a.u.)       :      0.74668
Magnitude (Debye)      :      1.89791

Rotational constants in cm-1:     4.377102     0.779532     0.747831
Rotational constants in MHz : 131222.219904 23369.794712 22419.412420

                             ****ORCA TERMINATED NORMALLY****
TOTAL RUN TIME: 0 days 0 hours 1 minutes 6 seconds 984 msec
