                         Program Version 4.1.2  - RELEASE  -
|  1> #Run DFT-D3 single point of the dimer
|  2> ! wB97X-D3 def2-TZVP TIGHTSCF CHELPG PMODEL PAL8
|  3>
|  4> %base "12-94_DFT_AB"
|  5>
|  6> %scf
|  7> MaxIter 1000
|  8> end
|  9>
| 10> * xyz 0 1
| 11>   C                      7.069487             6.948817             1.348319
| 12>   O                      6.833436             7.462442             0.067141
| 13>   H                      6.469724             6.786522             -0.512093
| 14>   H                      6.543788             6.020128             1.325691
| 15>   H                      8.106300             6.629288             1.569079
| 16>   H                      6.689718             7.616708             2.082214
| 17>   C                      3.937609             6.089715             5.121929
| 18>   O                      4.894966             6.938586             4.500561
| 19>   H                      5.624434             6.969971             5.126123
| 20>   H                      3.038266             5.905496             4.475867
| 21>   H                      4.311928             5.107801             5.271609
| 22>   H                      3.625862             6.468092             6.095905
| 23> *
| 24>
| 25> #Run DFT-D3 single point of the molecule with dimer basis set
| 26> $new_job
| 27> %base "12-94_DFT_A"
| 28> ! wB97X-D3 def2-TZVP TIGHTSCF CHELPG PMODEL
| 29>
| 30> %scf
| 31> MaxIter 1000
| 32> end
| 33>
| 34> * xyz 0 1
| 35>   C                      7.069487             6.948817             1.348319
| 36>   O                      6.833436             7.462442             0.067141
| 37>   H                      6.469724             6.786522             -0.512093
| 38>   H                      6.543788             6.020128             1.325691
| 39>   H                      8.106300             6.629288             1.569079
| 40>   H                      6.689718             7.616708             2.082214
| 41>   C                    : 3.937609             6.089715             5.121929
| 42>   O                    : 4.894966             6.938586             4.500561
| 43>   H                    : 5.624434             6.969971             5.126123
| 44>   H                    : 3.038266             5.905496             4.475867
| 45>   H                    : 4.311928             5.107801             5.271609
| 46>   H                    : 3.625862             6.468092             6.095905
| 47> *
| 48>
| 49> #Run DFT-D3 single point of the particle with dimer basis set
| 50> $new_job
| 51> %base "12-94_DFT_B"
| 52> ! wB97X-D3 def2-TZVP TIGHTSCF CHELPG PMODEL
| 53>
| 54> %scf
| 55> MaxIter 1000
| 56> end
| 57>
| 58> * xyz 0 1
| 59>   C                    : 7.069487             6.948817             1.348319
| 60>   O                    : 6.833436             7.462442             0.067141
| 61>   H                    : 6.469724             6.786522             -0.512093
| 62>   H                    : 6.543788             6.020128             1.325691
| 63>   H                    : 8.106300             6.629288             1.569079
| 64>   H                    : 6.689718             7.616708             2.082214
| 65>   C                      3.937609             6.089715             5.121929
| 66>   O                      4.894966             6.938586             4.500561
| 67>   H                      5.624434             6.969971             5.126123
| 68>   H                      3.038266             5.905496             4.475867
| 69>   H                      4.311928             5.107801             5.271609
| 70>   H                      3.625862             6.468092             6.095905
| 71> *
| 72>
| 73>                          ****END OF INPUT****
 Total Charge           Charge          ....    0
 Multiplicity           Mult            ....    1
 Number of Electrons    NEL             ....   36
Dispersion correction           -0.001090973
FINAL SINGLE POINT ENERGY      -231.463935426787
Dispersion correction           -0.000230809
FINAL SINGLE POINT ENERGY      -115.728953999924

CARTESIAN COORDINATES (ANGSTROEM)
---------------------------------
  C      7.069487    6.948817    1.348319
  O      6.833436    7.462442    0.067141
  H      6.469724    6.786522   -0.512093
  H      6.543788    6.020128    1.325691
  H      8.106300    6.629288    1.569079
  H      6.689718    7.616708    2.082214
  C      3.937609    6.089715    5.121929
  O      4.894966    6.938586    4.500561
  H      5.624434    6.969971    5.126123
  H      3.038266    5.905496    4.475867
  H      4.311928    5.107801    5.271609
  H      3.625862    6.468092    6.095905

 Multiplicity           Mult            ....    1
 Number of Electrons    NEL             ....   18
 Basis Dimension        Dim             ....  172

ORBITAL ENERGIES
----------------

  NO   OCC          E(Eh)            E(eV)
   0   2.0000     -19.233102      -523.3593
   1   2.0000     -10.313149      -280.6350
   2   2.0000      -1.136693       -30.9310
   3   2.0000      -0.796133       -21.6639
   4   2.0000      -0.610382       -16.6093
   5   2.0000      -0.545049       -14.8315
   6   2.0000      -0.523378       -14.2418
   7   2.0000      -0.437292       -11.8993
   8   2.0000      -0.375801       -10.2261
   9   0.0000       0.095868         2.6087
  10   0.0000       0.119134         3.2418
  11   0.0000       0.151459         4.1214
  12   0.0000       0.180784         4.9194
  13   0.0000       0.198924         5.4130

MULLIKEN ATOMIC CHARGES
-----------------------
   0 C :   -0.001509
   1 O :   -0.000026
   2 H :   -0.000003
   3 H :   -0.000854
   4 H :   -0.000019
   5 H :   -0.001859
   6 C :   -0.165912
   7 O :   -0.463971
   8 H :    0.313976
   9 H :    0.117182
  10 H :    0.105050
  11 H :    0.097945
Sum of atomic charges:   -0.0000000

LOEWDIN ATOMIC CHARGES
----------------------
   0 C :   -0.003672
   1 O :   -0.000026
   2 H :   -0.000003
   3 H :   -0.000651
   4 H :   -0.000032
   5 H :   -0.002948
   6 C :   -0.383021
   7 O :   -0.077225
   8 H :    0.171861
   9 H :    0.115384
  10 H :    0.087019
  11 H :    0.093314

  Mayer bond orders larger than 0.1
B(  6-C ,  7-O ) :   0.9962 B(  6-C ,  9-H ) :   0.9737 B(  6-C , 10-H ) :   0.9771
B(  6-C , 11-H ) :   0.9763 B(  7-O ,  8-H ) :   0.8996

Dispersion correction           -0.000234757
FINAL SINGLE POINT ENERGY      -115.734153237860

DIPOLE MOMENT
-------------
                                X             Y             Z
Electronic contribution:      1.16322       1.16754      -0.90887
Nuclear contribution   :     -1.09003      -1.50849       1.55460
                        -----------------------------------------
Total Dipole Moment    :      0.07318      -0.34095       0.64574
                        -----------------------------------------
Magnitude (a.u.)       :      0.73388
Magnitude (Debye)      :      1.86537

Rotational constants in cm-1:     4.344871     0.824270     0.790151
Rotational constants in MHz : 130255.962475 24710.988577 23688.124423

                             ****ORCA TERMINATED NORMALLY****
TOTAL RUN TIME: 0 days 0 hours 0 minutes 42 seconds 229 msec
