                         Program Version 4.1.2  - RELEASE  -
|  1> #Run DFT-D3 single point of the dimer
|  2> ! wB97X-D3 def2-TZVP TIGHTSCF CHELPG PMODEL PAL8
|  3>
|  4> %base "19-63_DFT_AB"
|  5>
|  6> %scf
|  7> MaxIter 1000
|  8> end
|  9>
| 10> * xyz 0 1
| 11>   C                      7.735640             -3.628557            -5.394134
| 12>   O                      6.374040             -3.628548            -5.142410
| 13>   H                      5.933957             -4.477045            -5.105908
| 14>   H                      8.304852             -3.877057            -4.570331
| 15>   H                      7.857922             -4.475036            -6.074864
| 16>   H                      8.076524             -2.769222            -5.967372
| 17>   C                      8.555876             -5.023468            -2.085604
| 18>   O                      9.597576             -5.817501            -1.599137
| 19>   H                      10.014008            -5.365580            -0.897390
| 20>   H                      7.789222             -4.795281            -1.346501
| 21>   H                      8.845916             -4.068275            -2.582090
| 22>   H                      8.075075             -5.507060            -2.944996
| 23> *
| 24>
| 25> #Run DFT-D3 single point of the molecule with dimer basis set
| 26> $new_job
| 27> %base "19-63_DFT_A"
| 28> ! wB97X-D3 def2-TZVP TIGHTSCF CHELPG PMODEL
| 29>
| 30> %scf
| 31> MaxIter 1000
| 32> end
| 33>
| 34> * xyz 0 1
| 35>   C                      7.735640             -3.628557            -5.394134
| 36>   O                      6.374040             -3.628548            -5.142410
| 37>   H                      5.933957             -4.477045            -5.105908
| 38>   H                      8.304852             -3.877057            -4.570331
| 39>   H                      7.857922             -4.475036            -6.074864
| 40>   H                      8.076524             -2.769222            -5.967372
| 41>   C                    : 8.555876             -5.023468            -2.085604
| 42>   O                    : 9.597576             -5.817501            -1.599137
| 43>   H                    : 10.014008            -5.365580            -0.897390
| 44>   H                    : 7.789222             -4.795281            -1.346501
| 45>   H                    : 8.845916             -4.068275            -2.582090
| 46>   H                    : 8.075075             -5.507060            -2.944996
| 47> *
| 48>
| 49> #Run DFT-D3 single point of the particle with dimer basis set
| 50> $new_job
| 51> %base "19-63_DFT_B"
| 52> ! wB97X-D3 def2-TZVP TIGHTSCF CHELPG PMODEL
| 53>
| 54> %scf
| 55> MaxIter 1000
| 56> end
| 57>
| 58> * xyz 0 1
| 59>   C                    : 7.735640             -3.628557            -5.394134
| 60>   O                    : 6.374040             -3.628548            -5.142410
| 61>   H                    : 5.933957             -4.477045            -5.105908
| 62>   H                    : 8.304852             -3.877057            -4.570331
| 63>   H                    : 7.857922             -4.475036            -6.074864
| 64>   H                    : 8.076524             -2.769222            -5.967372
| 65>   C                      8.555876             -5.023468            -2.085604
| 66>   O                      9.597576             -5.817501            -1.599137
| 67>   H                      10.014008            -5.365580            -0.897390
| 68>   H                      7.789222             -4.795281            -1.346501
| 69>   H                      8.845916             -4.068275            -2.582090
| 70>   H                      8.075075             -5.507060            -2.944996
| 71> *
| 72>
| 73>                          ****END OF INPUT****
 Total Charge           Charge          ....    0
 Multiplicity           Mult            ....    1
 Number of Electrons    NEL             ....   36
Dispersion correction           -0.001667035
FINAL SINGLE POINT ENERGY      -231.459613265671
Dispersion correction           -0.000222511
FINAL SINGLE POINT ENERGY      -115.725372719109

CARTESIAN COORDINATES (ANGSTROEM)
---------------------------------
  C      7.735640   -3.628557   -5.394134
  O      6.374040   -3.628548   -5.142410
  H      5.933957   -4.477045   -5.105908
  H      8.304852   -3.877057   -4.570331
  H      7.857922   -4.475036   -6.074864
  H      8.076524   -2.769222   -5.967372
  C      8.555876   -5.023468   -2.085604
  O      9.597576   -5.817501   -1.599137
  H     10.014008   -5.365580   -0.897390
  H      7.789222   -4.795281   -1.346501
  H      8.845916   -4.068275   -2.582090
  H      8.075075   -5.507060   -2.944996

 Multiplicity           Mult            ....    1
 Number of Electrons    NEL             ....   18
 Basis Dimension        Dim             ....  172

ORBITAL ENERGIES
----------------

  NO   OCC          E(Eh)            E(eV)
   0   2.0000     -19.232092      -523.3318
   1   2.0000     -10.313701      -280.6501
   2   2.0000      -1.148432       -31.2504
   3   2.0000      -0.799076       -21.7440
   4   2.0000      -0.619536       -16.8584
   5   2.0000      -0.546051       -14.8588
   6   2.0000      -0.525056       -14.2875
   7   2.0000      -0.431025       -11.7288
   8   2.0000      -0.376749       -10.2519
   9   0.0000       0.086021         2.3408
  10   0.0000       0.121600         3.3089
  11   0.0000       0.156884         4.2690
  12   0.0000       0.163847         4.4585
  13   0.0000       0.180744         4.9183

MULLIKEN ATOMIC CHARGES
-----------------------
   0 C :    0.000457
   1 O :    0.000270
   2 H :   -0.000153
   3 H :   -0.003175
   4 H :   -0.000077
   5 H :   -0.000317
   6 C :   -0.157202
   7 O :   -0.460699
   8 H :    0.311933
   9 H :    0.100356
  10 H :    0.092889
  11 H :    0.115717
Sum of atomic charges:    0.0000000

LOEWDIN ATOMIC CHARGES
----------------------
   0 C :   -0.006782
   1 O :   -0.000101
   2 H :   -0.000284
   3 H :   -0.011379
   4 H :   -0.000154
   5 H :   -0.000049
   6 C :   -0.399353
   7 O :   -0.044220
   8 H :    0.153474
   9 H :    0.093252
  10 H :    0.102023
  11 H :    0.113572

  Mayer bond orders larger than 0.1
B(  6-C ,  7-O ) :   1.0103 B(  6-C ,  9-H ) :   0.9680 B(  6-C , 10-H ) :   0.9714
B(  6-C , 11-H ) :   0.9748 B(  7-O ,  8-H ) :   0.9034

Dispersion correction           -0.000254644
FINAL SINGLE POINT ENERGY      -115.734093440937

DIPOLE MOMENT
-------------
                                X             Y             Z
Electronic contribution:      1.40191      -1.19073       0.69597
Nuclear contribution   :     -1.53378       1.77513      -0.43954
                        -----------------------------------------
Total Dipole Moment    :     -0.13188       0.58441       0.25642
                        -----------------------------------------
Magnitude (a.u.)       :      0.65167
Magnitude (Debye)      :      1.65642

Rotational constants in cm-1:     4.463501     0.832758     0.807868
Rotational constants in MHz : 133812.395899 24965.443767 24219.270177

                             ****ORCA TERMINATED NORMALLY****
TOTAL RUN TIME: 0 days 0 hours 0 minutes 50 seconds 536 msec
