                         Program Version 4.1.2  - RELEASE  -
|  1> #Run DFT-D3 single point of the dimer
|  2> ! wB97X-D3 def2-TZVP TIGHTSCF CHELPG PMODEL PAL8
|  3>
|  4> %base "21-4_DFT_AB"
|  5>
|  6> %scf
|  7> MaxIter 1000
|  8> end
|  9>
| 10> * xyz 0 1
| 11>   C                      -6.197209            -10.043977           -7.076087
| 12>   O                      -7.192169            -9.113181            -7.459103
| 13>   H                      -7.983588            -9.380507            -7.088494
| 14>   H                      -6.571320            -11.022002           -7.330227
| 15>   H                      -5.260879            -9.809619            -7.601295
| 16>   H                      -5.787484            -10.013825           -6.086584
| 17>   C                      -1.001725            -9.641674            -5.075141
| 18>   O                      -1.080321            -11.053985           -4.800357
| 19>   H                      -0.733545            -11.033127           -3.907484
| 20>   H                      -1.773834            -9.130125            -4.517852
| 21>   H                      -0.063907            -9.121528            -4.738339
| 22>   H                      -1.159688            -9.406464            -6.166276
| 23> *
| 24>
| 25> #Run DFT-D3 single point of the molecule with dimer basis set
| 26> $new_job
| 27> %base "21-4_DFT_A"
| 28> ! wB97X-D3 def2-TZVP TIGHTSCF CHELPG PMODEL
| 29>
| 30> %scf
| 31> MaxIter 1000
| 32> end
| 33>
| 34> * xyz 0 1
| 35>   C                      -6.197209            -10.043977           -7.076087
| 36>   O                      -7.192169            -9.113181            -7.459103
| 37>   H                      -7.983588            -9.380507            -7.088494
| 38>   H                      -6.571320            -11.022002           -7.330227
| 39>   H                      -5.260879            -9.809619            -7.601295
| 40>   H                      -5.787484            -10.013825           -6.086584
| 41>   C                    : -1.001725            -9.641674            -5.075141
| 42>   O                    : -1.080321            -11.053985           -4.800357
| 43>   H                    : -0.733545            -11.033127           -3.907484
| 44>   H                    : -1.773834            -9.130125            -4.517852
| 45>   H                    : -0.063907            -9.121528            -4.738339
| 46>   H                    : -1.159688            -9.406464            -6.166276
| 47> *
| 48>
| 49> #Run DFT-D3 single point of the particle with dimer basis set
| 50> $new_job
| 51> %base "21-4_DFT_B"
| 52> ! wB97X-D3 def2-TZVP TIGHTSCF CHELPG PMODEL
| 53>
| 54> %scf
| 55> MaxIter 1000
| 56> end
| 57>
| 58> * xyz 0 1
| 59>   C                    : -6.197209            -10.043977           -7.076087
| 60>   O                    : -7.192169            -9.113181            -7.459103
| 61>   H                    : -7.983588            -9.380507            -7.088494
| 62>   H                    : -6.571320            -11.022002           -7.330227
| 63>   H                    : -5.260879            -9.809619            -7.601295
| 64>   H                    : -5.787484            -10.013825           -6.086584
| 65>   C                      -1.001725            -9.641674            -5.075141
| 66>   O                      -1.080321            -11.053985           -4.800357
| 67>   H                      -0.733545            -11.033127           -3.907484
| 68>   H                      -1.773834            -9.130125            -4.517852
| 69>   H                      -0.063907            -9.121528            -4.738339
| 70>   H                      -1.159688            -9.406464            -6.166276
| 71> *
| 72>
| 73>                          ****END OF INPUT****
 Total Charge           Charge          ....    0
 Multiplicity           Mult            ....    1
 Number of Electrons    NEL             ....   36
Dispersion correction           -0.000650848
FINAL SINGLE POINT ENERGY      -231.459342096189
Dispersion correction           -0.000241853
FINAL SINGLE POINT ENERGY      -115.728615958720

CARTESIAN COORDINATES (ANGSTROEM)
---------------------------------
  C     -6.197209  -10.043977   -7.076087
  O     -7.192169   -9.113181   -7.459103
  H     -7.983588   -9.380507   -7.088494
  H     -6.571320  -11.022002   -7.330227
  H     -5.260879   -9.809619   -7.601295
  H     -5.787484  -10.013825   -6.086584
  C     -1.001725   -9.641674   -5.075141
  O     -1.080321  -11.053985   -4.800357
  H     -0.733545  -11.033127   -3.907484
  H     -1.773834   -9.130125   -4.517852
  H     -0.063907   -9.121528   -4.738339
  H     -1.159688   -9.406464   -6.166276

 Multiplicity           Mult            ....    1
 Number of Electrons    NEL             ....   18
 Basis Dimension        Dim             ....  172

ORBITAL ENERGIES
----------------

  NO   OCC          E(Eh)            E(eV)
   0   2.0000     -19.235996      -523.4381
   1   2.0000     -10.321300      -280.8569
   2   2.0000      -1.137309       -30.9478
   3   2.0000      -0.790350       -21.5065
   4   2.0000      -0.607612       -16.5340
   5   2.0000      -0.534783       -14.5522
   6   2.0000      -0.520202       -14.1554
   7   2.0000      -0.448827       -12.2132
   8   2.0000      -0.375101       -10.2070
   9   0.0000       0.088812         2.4167
  10   0.0000       0.112897         3.0721
  11   0.0000       0.147449         4.0123
  12   0.0000       0.167255         4.5512
  13   0.0000       0.191715         5.2168

MULLIKEN ATOMIC CHARGES
-----------------------
   0 C :   -0.000027
   1 O :    0.000002
   2 H :    0.000000
   3 H :    0.000000
   4 H :   -0.000014
   5 H :    0.000018
   6 C :   -0.194365
   7 O :   -0.456117
   8 H :    0.313197
   9 H :    0.109889
  10 H :    0.105395
  11 H :    0.122021
Sum of atomic charges:   -0.0000000

LOEWDIN ATOMIC CHARGES
----------------------
   0 C :   -0.000014
   1 O :   -0.000001
   2 H :   -0.000000
   3 H :   -0.000000
   4 H :   -0.000012
   5 H :   -0.000010
   6 C :   -0.385052
   7 O :   -0.091182
   8 H :    0.171482
   9 H :    0.091366
  10 H :    0.099336
  11 H :    0.114086

  Mayer bond orders larger than 0.1
B(  6-C ,  7-O ) :   0.9968 B(  6-C ,  9-H ) :   0.9765 B(  6-C , 10-H ) :   0.9720
B(  6-C , 11-H ) :   0.9724 B(  7-O ,  8-H ) :   0.9048

Dispersion correction           -0.000240810
FINAL SINGLE POINT ENERGY      -115.730297467643

DIPOLE MOMENT
-------------
                                X             Y             Z
Electronic contribution:     -0.14147      -1.96454       0.16363
Nuclear contribution   :      0.37285       2.53381       0.28272
                        -----------------------------------------
Total Dipole Moment    :      0.23138       0.56927       0.44635
                        -----------------------------------------
Magnitude (a.u.)       :      0.75950
Magnitude (Debye)      :      1.93049

Rotational constants in cm-1:     4.198217     0.811588     0.772348
Rotational constants in MHz : 125859.371791 24330.797268 23154.401567

                             ****ORCA TERMINATED NORMALLY****
TOTAL RUN TIME: 0 days 0 hours 0 minutes 50 seconds 974 msec
