                         Program Version 4.1.2  - RELEASE  -
|  1> #Run DFT-D3 single point of the dimer
|  2> ! wB97X-D3 def2-TZVP TIGHTSCF CHELPG PMODEL PAL8
|  3>
|  4> %base "18-50_DFT_AB"
|  5>
|  6> %scf
|  7> MaxIter 1000
|  8> end
|  9>
| 10> * xyz 0 1
| 11>   C                      -2.012563            4.665636             -1.975602
| 12>   O                      -2.587163            3.443356             -2.387225
| 13>   H                      -2.699769            2.832937             -1.683804
| 14>   H                      -1.104865            4.452574             -1.373677
| 15>   H                      -1.693675            5.183946             -2.882772
| 16>   H                      -2.766827            5.318061             -1.491630
| 17>   C                      -6.079436            4.146608             -2.729976
| 18>   O                      -5.389488            4.637872             -3.875073
| 19>   H                      -5.028886            3.885787             -4.348644
| 20>   H                      -6.994678            3.663562             -3.009391
| 21>   H                      -5.483287            3.360420             -2.209580
| 22>   H                      -6.265662            4.907287             -2.035100
| 23> *
| 24>
| 25> #Run DFT-D3 single point of the molecule with dimer basis set
| 26> $new_job
| 27> %base "18-50_DFT_A"
| 28> ! wB97X-D3 def2-TZVP TIGHTSCF CHELPG PMODEL
| 29>
| 30> %scf
| 31> MaxIter 1000
| 32> end
| 33>
| 34> * xyz 0 1
| 35>   C                      -2.012563            4.665636             -1.975602
| 36>   O                      -2.587163            3.443356             -2.387225
| 37>   H                      -2.699769            2.832937             -1.683804
| 38>   H                      -1.104865            4.452574             -1.373677
| 39>   H                      -1.693675            5.183946             -2.882772
| 40>   H                      -2.766827            5.318061             -1.491630
| 41>   C                    : -6.079436            4.146608             -2.729976
| 42>   O                    : -5.389488            4.637872             -3.875073
| 43>   H                    : -5.028886            3.885787             -4.348644
| 44>   H                    : -6.994678            3.663562             -3.009391
| 45>   H                    : -5.483287            3.360420             -2.209580
| 46>   H                    : -6.265662            4.907287             -2.035100
| 47> *
| 48>
| 49> #Run DFT-D3 single point of the particle with dimer basis set
| 50> $new_job
| 51> %base "18-50_DFT_B"
| 52> ! wB97X-D3 def2-TZVP TIGHTSCF CHELPG PMODEL
| 53>
| 54> %scf
| 55> MaxIter 1000
| 56> end
| 57>
| 58> * xyz 0 1
| 59>   C                    : -2.012563            4.665636             -1.975602
| 60>   O                    : -2.587163            3.443356             -2.387225
| 61>   H                    : -2.699769            2.832937             -1.683804
| 62>   H                    : -1.104865            4.452574             -1.373677
| 63>   H                    : -1.693675            5.183946             -2.882772
| 64>   H                    : -2.766827            5.318061             -1.491630
| 65>   C                      -6.079436            4.146608             -2.729976
| 66>   O                      -5.389488            4.637872             -3.875073
| 67>   H                      -5.028886            3.885787             -4.348644
| 68>   H                      -6.994678            3.663562             -3.009391
| 69>   H                      -5.483287            3.360420             -2.209580
| 70>   H                      -6.265662            4.907287             -2.035100
| 71> *
| 72>
| 73>                          ****END OF INPUT****
 Total Charge           Charge          ....    0
 Multiplicity           Mult            ....    1
 Number of Electrons    NEL             ....   36
Dispersion correction           -0.001919343
FINAL SINGLE POINT ENERGY      -231.472599071455
Dispersion correction           -0.000246454
FINAL SINGLE POINT ENERGY      -115.735488084096

CARTESIAN COORDINATES (ANGSTROEM)
---------------------------------
  C     -2.012563    4.665636   -1.975602
  O     -2.587163    3.443356   -2.387225
  H     -2.699769    2.832937   -1.683804
  H     -1.104865    4.452574   -1.373677
  H     -1.693675    5.183946   -2.882772
  H     -2.766827    5.318061   -1.491630
  C     -6.079436    4.146608   -2.729976
  O     -5.389488    4.637872   -3.875073
  H     -5.028886    3.885787   -4.348644
  H     -6.994678    3.663562   -3.009391
  H     -5.483287    3.360420   -2.209580
  H     -6.265662    4.907287   -2.035100

 Multiplicity           Mult            ....    1
 Number of Electrons    NEL             ....   18
 Basis Dimension        Dim             ....  172

ORBITAL ENERGIES
----------------

  NO   OCC          E(Eh)            E(eV)
   0   2.0000     -19.229836      -523.2704
   1   2.0000     -10.309257      -280.5291
   2   2.0000      -1.133096       -30.8331
   3   2.0000      -0.800804       -21.7910
   4   2.0000      -0.609972       -16.5982
   5   2.0000      -0.542556       -14.7637
   6   2.0000      -0.530673       -14.4403
   7   2.0000      -0.436959       -11.8903
   8   2.0000      -0.373205       -10.1554
   9   0.0000       0.083209         2.2642
  10   0.0000       0.126730         3.4485
  11   0.0000       0.150103         4.0845
  12   0.0000       0.165367         4.4999
  13   0.0000       0.199247         5.4218

MULLIKEN ATOMIC CHARGES
-----------------------
   0 C :   -0.003010
   1 O :    0.000146
   2 H :   -0.000239
   3 H :   -0.000127
   4 H :   -0.000141
   5 H :   -0.000001
   6 C :   -0.165391
   7 O :   -0.480748
   8 H :    0.315912
   9 H :    0.108355
  10 H :    0.098606
  11 H :    0.126637
Sum of atomic charges:    0.0000000

LOEWDIN ATOMIC CHARGES
----------------------
   0 C :   -0.003359
   1 O :   -0.002508
   2 H :   -0.000984
   3 H :   -0.000085
   4 H :   -0.000393
   5 H :   -0.000448
   6 C :   -0.368624
   7 O :   -0.081113
   8 H :    0.168029
   9 H :    0.091512
  10 H :    0.099962
  11 H :    0.098010

  Mayer bond orders larger than 0.1
B(  6-C ,  7-O ) :   0.9867 B(  6-C ,  9-H ) :   0.9762 B(  6-C , 10-H ) :   0.9826
B(  6-C , 11-H ) :   0.9749 B(  7-O ,  8-H ) :   0.8996

Dispersion correction           -0.000235004
FINAL SINGLE POINT ENERGY      -115.734945553680

DIPOLE MOMENT
-------------
                                X             Y             Z
Electronic contribution:      0.77588       0.87608      -1.40727
Nuclear contribution   :     -0.84080      -1.54750       1.57751
                        -----------------------------------------
Total Dipole Moment    :     -0.06492      -0.67142       0.17024
                        -----------------------------------------
Magnitude (a.u.)       :      0.69570
Magnitude (Debye)      :      1.76834

Rotational constants in cm-1:     4.407738     0.824062     0.793611
Rotational constants in MHz : 132140.659984 24704.754563 23791.865142

                             ****ORCA TERMINATED NORMALLY****
TOTAL RUN TIME: 0 days 0 hours 1 minutes 1 seconds 670 msec
