                         Program Version 4.1.2  - RELEASE  -
|  1> #Run DFT-D3 single point of the dimer
|  2> ! wB97X-D3 def2-TZVP TIGHTSCF CHELPG PMODEL PAL8
|  3>
|  4> %base "19-82_DFT_AB"
|  5>
|  6> %scf
|  7> MaxIter 1000
|  8> end
|  9>
| 10> * xyz 0 1
| 11>   C                      1.790265             3.458561             8.299905
| 12>   O                      0.760315             4.348827             7.951540
| 13>   H                      0.700689             4.320397             6.985783
| 14>   H                      2.747720             4.048782             8.453165
| 15>   H                      1.540345             2.807398             9.173545
| 16>   H                      2.017215             2.823354             7.489023
| 17>   C                      -2.826672            3.168697             7.311766
| 18>   O                      -2.985900            2.187477             8.339613
| 19>   H                      -2.080365            1.979500             8.637292
| 20>   H                      -2.631409            4.182728             7.755383
| 21>   H                      -1.965593            2.904438             6.677685
| 22>   H                      -3.653128            3.269334             6.564215
| 23> *
| 24>
| 25> #Run DFT-D3 single point of the molecule with dimer basis set
| 26> $new_job
| 27> %base "19-82_DFT_A"
| 28> ! wB97X-D3 def2-TZVP TIGHTSCF CHELPG PMODEL
| 29>
| 30> %scf
| 31> MaxIter 1000
| 32> end
| 33>
| 34> * xyz 0 1
| 35>   C                      1.790265             3.458561             8.299905
| 36>   O                      0.760315             4.348827             7.951540
| 37>   H                      0.700689             4.320397             6.985783
| 38>   H                      2.747720             4.048782             8.453165
| 39>   H                      1.540345             2.807398             9.173545
| 40>   H                      2.017215             2.823354             7.489023
| 41>   C                    : -2.826672            3.168697             7.311766
| 42>   O                    : -2.985900            2.187477             8.339613
| 43>   H                    : -2.080365            1.979500             8.637292
| 44>   H                    : -2.631409            4.182728             7.755383
| 45>   H                    : -1.965593            2.904438             6.677685
| 46>   H                    : -3.653128            3.269334             6.564215
| 47> *
| 48>
| 49> #Run DFT-D3 single point of the particle with dimer basis set
| 50> $new_job
| 51> %base "19-82_DFT_B"
| 52> ! wB97X-D3 def2-TZVP TIGHTSCF CHELPG PMODEL
| 53>
| 54> %scf
| 55> MaxIter 1000
| 56> end
| 57>
| 58> * xyz 0 1
| 59>   C                    : 1.790265             3.458561             8.299905
| 60>   O                    : 0.760315             4.348827             7.951540
| 61>   H                    : 0.700689             4.320397             6.985783
| 62>   H                    : 2.747720             4.048782             8.453165
| 63>   H                    : 1.540345             2.807398             9.173545
| 64>   H                    : 2.017215             2.823354             7.489023
| 65>   C                      -2.826672            3.168697             7.311766
| 66>   O                      -2.985900            2.187477             8.339613
| 67>   H                      -2.080365            1.979500             8.637292
| 68>   H                      -2.631409            4.182728             7.755383
| 69>   H                      -1.965593            2.904438             6.677685
| 70>   H                      -3.653128            3.269334             6.564215
| 71> *
| 72>
| 73>                          ****END OF INPUT****
 Total Charge           Charge          ....    0
 Multiplicity           Mult            ....    1
 Number of Electrons    NEL             ....   36
Dispersion correction           -0.001418263
FINAL SINGLE POINT ENERGY      -231.465190442901
Dispersion correction           -0.000237640
FINAL SINGLE POINT ENERGY      -115.731892566333

CARTESIAN COORDINATES (ANGSTROEM)
---------------------------------
  C      1.790265    3.458561    8.299905
  O      0.760315    4.348827    7.951540
  H      0.700689    4.320397    6.985783
  H      2.747720    4.048782    8.453165
  H      1.540345    2.807398    9.173545
  H      2.017215    2.823354    7.489023
  C     -2.826672    3.168697    7.311766
  O     -2.985900    2.187477    8.339613
  H     -2.080365    1.979500    8.637292
  H     -2.631409    4.182728    7.755383
  H     -1.965593    2.904438    6.677685
  H     -3.653128    3.269334    6.564215

 Multiplicity           Mult            ....    1
 Number of Electrons    NEL             ....   18
 Basis Dimension        Dim             ....  172

ORBITAL ENERGIES
----------------

  NO   OCC          E(Eh)            E(eV)
   0   2.0000     -19.234376      -523.3940
   1   2.0000     -10.321683      -280.8673
   2   2.0000      -1.131403       -30.7870
   3   2.0000      -0.789900       -21.4943
   4   2.0000      -0.604881       -16.4597
   5   2.0000      -0.538399       -14.6506
   6   2.0000      -0.526516       -14.3272
   7   2.0000      -0.431036       -11.7291
   8   2.0000      -0.374705       -10.1963
   9   0.0000       0.070945         1.9305
  10   0.0000       0.120132         3.2690
  11   0.0000       0.137389         3.7386
  12   0.0000       0.175653         4.7798
  13   0.0000       0.181356         4.9350

MULLIKEN ATOMIC CHARGES
-----------------------
   0 C :    0.000152
   1 O :    0.000212
   2 H :   -0.000767
   3 H :   -0.000004
   4 H :   -0.000063
   5 H :   -0.000098
   6 C :   -0.185478
   7 O :   -0.467625
   8 H :    0.319702
   9 H :    0.103250
  10 H :    0.107094
  11 H :    0.123623
Sum of atomic charges:    0.0000000

LOEWDIN ATOMIC CHARGES
----------------------
   0 C :   -0.000277
   1 O :   -0.000539
   2 H :   -0.001080
   3 H :   -0.000005
   4 H :   -0.000071
   5 H :   -0.000022
   6 C :   -0.389539
   7 O :   -0.095995
   8 H :    0.180373
   9 H :    0.099617
  10 H :    0.096382
  11 H :    0.111156

  Mayer bond orders larger than 0.1
B(  6-C ,  7-O ) :   0.9990 B(  6-C ,  9-H ) :   0.9734 B(  6-C , 10-H ) :   0.9829
B(  6-C , 11-H ) :   0.9680 B(  7-O ,  8-H ) :   0.8961

Dispersion correction           -0.000254286
FINAL SINGLE POINT ENERGY      -115.731935582917

DIPOLE MOMENT
-------------
                                X             Y             Z
Electronic contribution:     -0.46160      -1.31409       1.35622
Nuclear contribution   :      1.09732       1.55363      -1.60072
                        -----------------------------------------
Total Dipole Moment    :      0.63572       0.23954      -0.24450
                        -----------------------------------------
Magnitude (a.u.)       :      0.72201
Magnitude (Debye)      :      1.83521

Rotational constants in cm-1:     4.214055     0.804433     0.780528
Rotational constants in MHz : 126334.205206 24116.302621 23399.642203

                             ****ORCA TERMINATED NORMALLY****
TOTAL RUN TIME: 0 days 0 hours 2 minutes 22 seconds 439 msec
