                         Program Version 4.1.2  - RELEASE  -
|  1> #Run DFT-D3 single point of the dimer
|  2> ! wB97X-D3 def2-TZVP TIGHTSCF CHELPG PMODEL PAL8
|  3>
|  4> %base "12-116_DFT_AB"
|  5>
|  6> %scf
|  7> MaxIter 1000
|  8> end
|  9>
| 10> * xyz 0 1
| 11>   C                      0.458656             -0.930274            -4.011846
| 12>   O                      1.515919             -0.989407            -3.097757
| 13>   H                      2.343066             -1.128490            -3.561394
| 14>   H                      0.659038             -0.054227            -4.714166
| 15>   H                      0.496070             -1.799020            -4.676867
| 16>   H                      -0.554769            -0.926448            -3.628725
| 17>   C                      3.282959             -1.182157            -6.440100
| 18>   O                      3.648288             -1.701234            -5.111247
| 19>   H                      4.038148             -2.570260            -5.268204
| 20>   H                      3.870765             -0.329049            -6.677919
| 21>   H                      3.429946             -1.968021            -7.207339
| 22>   H                      2.192807             -0.973335            -6.479095
| 23> *
| 24>
| 25> #Run DFT-D3 single point of the molecule with dimer basis set
| 26> $new_job
| 27> %base "12-116_DFT_A"
| 28> ! wB97X-D3 def2-TZVP TIGHTSCF CHELPG PMODEL
| 29>
| 30> %scf
| 31> MaxIter 1000
| 32> end
| 33>
| 34> * xyz 0 1
| 35>   C                      0.458656             -0.930274            -4.011846
| 36>   O                      1.515919             -0.989407            -3.097757
| 37>   H                      2.343066             -1.128490            -3.561394
| 38>   H                      0.659038             -0.054227            -4.714166
| 39>   H                      0.496070             -1.799020            -4.676867
| 40>   H                      -0.554769            -0.926448            -3.628725
| 41>   C                    : 3.282959             -1.182157            -6.440100
| 42>   O                    : 3.648288             -1.701234            -5.111247
| 43>   H                    : 4.038148             -2.570260            -5.268204
| 44>   H                    : 3.870765             -0.329049            -6.677919
| 45>   H                    : 3.429946             -1.968021            -7.207339
| 46>   H                    : 2.192807             -0.973335            -6.479095
| 47> *
| 48>
| 49> #Run DFT-D3 single point of the particle with dimer basis set
| 50> $new_job
| 51> %base "12-116_DFT_B"
| 52> ! wB97X-D3 def2-TZVP TIGHTSCF CHELPG PMODEL
| 53>
| 54> %scf
| 55> MaxIter 1000
| 56> end
| 57>
| 58> * xyz 0 1
| 59>   C                    : 0.458656             -0.930274            -4.011846
| 60>   O                    : 1.515919             -0.989407            -3.097757
| 61>   H                    : 2.343066             -1.128490            -3.561394
| 62>   H                    : 0.659038             -0.054227            -4.714166
| 63>   H                    : 0.496070             -1.799020            -4.676867
| 64>   H                    : -0.554769            -0.926448            -3.628725
| 65>   C                      3.282959             -1.182157            -6.440100
| 66>   O                      3.648288             -1.701234            -5.111247
| 67>   H                      4.038148             -2.570260            -5.268204
| 68>   H                      3.870765             -0.329049            -6.677919
| 69>   H                      3.429946             -1.968021            -7.207339
| 70>   H                      2.192807             -0.973335            -6.479095
| 71> *
| 72>
| 73>                          ****END OF INPUT****
 Total Charge           Charge          ....    0
 Multiplicity           Mult            ....    1
 Number of Electrons    NEL             ....   36
Dispersion correction           -0.002211144
FINAL SINGLE POINT ENERGY      -231.472284387215
Dispersion correction           -0.000231921
FINAL SINGLE POINT ENERGY      -115.730710507267

CARTESIAN COORDINATES (ANGSTROEM)
---------------------------------
  C      0.458656   -0.930274   -4.011846
  O      1.515919   -0.989407   -3.097757
  H      2.343066   -1.128490   -3.561394
  H      0.659038   -0.054227   -4.714166
  H      0.496070   -1.799020   -4.676867
  H     -0.554769   -0.926448   -3.628725
  C      3.282959   -1.182157   -6.440100
  O      3.648288   -1.701234   -5.111247
  H      4.038148   -2.570260   -5.268204
  H      3.870765   -0.329049   -6.677919
  H      3.429946   -1.968021   -7.207339
  H      2.192807   -0.973335   -6.479095

 Multiplicity           Mult            ....    1
 Number of Electrons    NEL             ....   18
 Basis Dimension        Dim             ....  172

ORBITAL ENERGIES
----------------

  NO   OCC          E(Eh)            E(eV)
   0   2.0000     -19.230521      -523.2891
   1   2.0000     -10.318621      -280.7840
   2   2.0000      -1.119404       -30.4605
   3   2.0000      -0.796603       -21.6767
   4   2.0000      -0.599341       -16.3089
   5   2.0000      -0.544400       -14.8139
   6   2.0000      -0.516274       -14.0485
   7   2.0000      -0.436143       -11.8681
   8   2.0000      -0.377698       -10.2777
   9   0.0000       0.094664         2.5760
  10   0.0000       0.124076         3.3763
  11   0.0000       0.150634         4.0989
  12   0.0000       0.187774         5.1096
  13   0.0000       0.195388         5.3168

MULLIKEN ATOMIC CHARGES
-----------------------
   0 C :    0.006083
   1 O :   -0.002125
   2 H :   -0.006341
   3 H :   -0.000432
   4 H :   -0.003186
   5 H :    0.000184
   6 C :   -0.179399
   7 O :   -0.477081
   8 H :    0.313816
   9 H :    0.123983
  10 H :    0.108471
  11 H :    0.116027
Sum of atomic charges:    0.0000000

LOEWDIN ATOMIC CHARGES
----------------------
   0 C :   -0.006728
   1 O :   -0.003488
   2 H :   -0.029429
   3 H :   -0.002146
   4 H :   -0.002030
   5 H :   -0.000024
   6 C :   -0.337307
   7 O :   -0.090909
   8 H :    0.167572
   9 H :    0.094373
  10 H :    0.101401
  11 H :    0.108713

  Mayer bond orders larger than 0.1
B(  6-C ,  7-O ) :   0.9956 B(  6-C ,  9-H ) :   0.9744 B(  6-C , 10-H ) :   0.9805
B(  6-C , 11-H ) :   0.9753 B(  7-O ,  8-H ) :   0.9016

Dispersion correction           -0.000263689
FINAL SINGLE POINT ENERGY      -115.732922961672

DIPOLE MOMENT
-------------
                                X             Y             Z
Electronic contribution:      0.45395      -0.39943       1.69454
Nuclear contribution   :     -0.35412       0.05730      -2.37535
                        -----------------------------------------
Total Dipole Moment    :      0.09983      -0.34213      -0.68081
                        -----------------------------------------
Magnitude (a.u.)       :      0.76845
Magnitude (Debye)      :      1.95325

Rotational constants in cm-1:     4.223785     0.779950     0.756091
Rotational constants in MHz : 126625.899094 23382.302876 22667.034583

                             ****ORCA TERMINATED NORMALLY****
TOTAL RUN TIME: 0 days 0 hours 1 minutes 12 seconds 653 msec
