                         Program Version 4.1.2  - RELEASE  -
|  1> #Run DFT-D3 single point of the dimer
|  2> ! wB97X-D3 def2-TZVP TIGHTSCF CHELPG PMODEL PAL8
|  3>
|  4> %base "7-181_DFT_AB"
|  5>
|  6> %scf
|  7> MaxIter 1000
|  8> end
|  9>
| 10> * xyz 0 1
| 11>   C                      -7.912247            -1.685603            -5.852618
| 12>   O                      -7.718113            -0.401322            -6.512190
| 13>   H                      -6.953689            -0.373193            -7.034727
| 14>   H                      -8.049571            -1.675328            -4.783070
| 15>   H                      -8.681711            -2.309248            -6.337922
| 16>   H                      -7.009668            -2.325405            -6.077702
| 17>   C                      -8.073983            1.833345             -9.588540
| 18>   O                      -7.130411            2.584063             -8.864001
| 19>   H                      -6.456292            1.998703             -8.551465
| 20>   H                      -8.235140            0.778497             -9.290424
| 21>   H                      -9.112701            2.244961             -9.539074
| 22>   H                      -7.848559            1.591181             -10.633758
| 23> *
| 24>
| 25> #Run DFT-D3 single point of the molecule with dimer basis set
| 26> $new_job
| 27> %base "7-181_DFT_A"
| 28> ! wB97X-D3 def2-TZVP TIGHTSCF CHELPG PMODEL
| 29>
| 30> %scf
| 31> MaxIter 1000
| 32> end
| 33>
| 34> * xyz 0 1
| 35>   C                      -7.912247            -1.685603            -5.852618
| 36>   O                      -7.718113            -0.401322            -6.512190
| 37>   H                      -6.953689            -0.373193            -7.034727
| 38>   H                      -8.049571            -1.675328            -4.783070
| 39>   H                      -8.681711            -2.309248            -6.337922
| 40>   H                      -7.009668            -2.325405            -6.077702
| 41>   C                    : -8.073983            1.833345             -9.588540
| 42>   O                    : -7.130411            2.584063             -8.864001
| 43>   H                    : -6.456292            1.998703             -8.551465
| 44>   H                    : -8.235140            0.778497             -9.290424
| 45>   H                    : -9.112701            2.244961             -9.539074
| 46>   H                    : -7.848559            1.591181             -10.633758
| 47> *
| 48>
| 49> #Run DFT-D3 single point of the particle with dimer basis set
| 50> $new_job
| 51> %base "7-181_DFT_B"
| 52> ! wB97X-D3 def2-TZVP TIGHTSCF CHELPG PMODEL
| 53>
| 54> %scf
| 55> MaxIter 1000
| 56> end
| 57>
| 58> * xyz 0 1
| 59>   C                    : -7.912247            -1.685603            -5.852618
| 60>   O                    : -7.718113            -0.401322            -6.512190
| 61>   H                    : -6.953689            -0.373193            -7.034727
| 62>   H                    : -8.049571            -1.675328            -4.783070
| 63>   H                    : -8.681711            -2.309248            -6.337922
| 64>   H                    : -7.009668            -2.325405            -6.077702
| 65>   C                      -8.073983            1.833345             -9.588540
| 66>   O                      -7.130411            2.584063             -8.864001
| 67>   H                      -6.456292            1.998703             -8.551465
| 68>   H                      -8.235140            0.778497             -9.290424
| 69>   H                      -9.112701            2.244961             -9.539074
| 70>   H                      -7.848559            1.591181             -10.633758
| 71> *
| 72>
| 73>                          ****END OF INPUT****
 Total Charge           Charge          ....    0
 Multiplicity           Mult            ....    1
 Number of Electrons    NEL             ....   36
Dispersion correction           -0.001454492
FINAL SINGLE POINT ENERGY      -231.455555515405
Dispersion correction           -0.000279051
FINAL SINGLE POINT ENERGY      -115.727525358995

CARTESIAN COORDINATES (ANGSTROEM)
---------------------------------
  C     -7.912247   -1.685603   -5.852618
  O     -7.718113   -0.401322   -6.512190
  H     -6.953689   -0.373193   -7.034727
  H     -8.049571   -1.675328   -4.783070
  H     -8.681711   -2.309248   -6.337922
  H     -7.009668   -2.325405   -6.077702
  C     -8.073983    1.833345   -9.588540
  O     -7.130411    2.584063   -8.864001
  H     -6.456292    1.998703   -8.551465
  H     -8.235140    0.778497   -9.290424
  H     -9.112701    2.244961   -9.539074
  H     -7.848559    1.591181  -10.633758

 Multiplicity           Mult            ....    1
 Number of Electrons    NEL             ....   18
 Basis Dimension        Dim             ....  172

ORBITAL ENERGIES
----------------

  NO   OCC          E(Eh)            E(eV)
   0   2.0000     -19.237592      -523.4815
   1   2.0000     -10.317424      -280.7514
   2   2.0000      -1.144936       -31.1553
   3   2.0000      -0.798893       -21.7390
   4   2.0000      -0.625976       -17.0337
   5   2.0000      -0.534190       -14.5360
   6   2.0000      -0.521606       -14.1936
   7   2.0000      -0.435322       -11.8457
   8   2.0000      -0.375529       -10.2187
   9   0.0000       0.077478         2.1083
  10   0.0000       0.116670         3.1747
  11   0.0000       0.144270         3.9258
  12   0.0000       0.179729         4.8907
  13   0.0000       0.193017         5.2523

MULLIKEN ATOMIC CHARGES
-----------------------
   0 C :   -0.000006
   1 O :    0.000192
   2 H :   -0.000934
   3 H :   -0.000008
   4 H :   -0.000004
   5 H :   -0.000011
   6 C :   -0.183366
   7 O :   -0.458533
   8 H :    0.316612
   9 H :    0.100701
  10 H :    0.122985
  11 H :    0.102373
Sum of atomic charges:    0.0000000

LOEWDIN ATOMIC CHARGES
----------------------
   0 C :   -0.000180
   1 O :   -0.001205
   2 H :   -0.001658
   3 H :   -0.000005
   4 H :   -0.000018
   5 H :   -0.000004
   6 C :   -0.410380
   7 O :   -0.054369
   8 H :    0.163613
   9 H :    0.097145
  10 H :    0.112953
  11 H :    0.094106

  Mayer bond orders larger than 0.1
B(  6-C ,  7-O ) :   1.0122 B(  6-C ,  9-H ) :   0.9730 B(  6-C , 10-H ) :   0.9747
B(  6-C , 11-H ) :   0.9695 B(  7-O ,  8-H ) :   0.9008

Dispersion correction           -0.000277076
FINAL SINGLE POINT ENERGY      -115.728789437481

DIPOLE MOMENT
-------------
                                X             Y             Z
Electronic contribution:      1.31345       1.29526       1.01678
Nuclear contribution   :     -1.23382      -1.99130      -1.07404
                        -----------------------------------------
Total Dipole Moment    :      0.07963      -0.69604      -0.05725
                        -----------------------------------------
Magnitude (a.u.)       :      0.70292
Magnitude (Debye)      :      1.78668

Rotational constants in cm-1:     4.539100     0.815944     0.782167
Rotational constants in MHz : 136078.806625 24461.391101 23448.783749

                             ****ORCA TERMINATED NORMALLY****
TOTAL RUN TIME: 0 days 0 hours 1 minutes 12 seconds 86 msec
