                         Program Version 4.1.2  - RELEASE  -
|  1> #Run DFT-D3 single point of the dimer
|  2> ! wB97X-D3 def2-TZVP TIGHTSCF CHELPG PMODEL PAL8
|  3>
|  4> %base "11-31_DFT_AB"
|  5>
|  6> %scf
|  7> MaxIter 1000
|  8> end
|  9>
| 10> * xyz 0 1
| 11>   C                      -4.262804            -3.298811            4.931557
| 12>   O                      -3.864564            -2.942529            6.210114
| 13>   H                      -2.899731            -2.834253            6.123950
| 14>   H                      -4.286093            -4.428996            4.908977
| 15>   H                      -5.227939            -2.841040            4.620827
| 16>   H                      -3.491225            -3.035285            4.130311
| 17>   C                      -6.310086            -3.926838            1.277740
| 18>   O                      -7.731180            -4.197409            1.454962
| 19>   H                      -7.719201            -4.762087            2.278271
| 20>   H                      -5.742679            -4.812015            0.987931
| 21>   H                      -6.110303            -3.214105            0.491601
| 22>   H                      -5.883718            -3.606113            2.231377
| 23> *
| 24>
| 25> #Run DFT-D3 single point of the molecule with dimer basis set
| 26> $new_job
| 27> %base "11-31_DFT_A"
| 28> ! wB97X-D3 def2-TZVP TIGHTSCF CHELPG PMODEL
| 29>
| 30> %scf
| 31> MaxIter 1000
| 32> end
| 33>
| 34> * xyz 0 1
| 35>   C                      -4.262804            -3.298811            4.931557
| 36>   O                      -3.864564            -2.942529            6.210114
| 37>   H                      -2.899731            -2.834253            6.123950
| 38>   H                      -4.286093            -4.428996            4.908977
| 39>   H                      -5.227939            -2.841040            4.620827
| 40>   H                      -3.491225            -3.035285            4.130311
| 41>   C                    : -6.310086            -3.926838            1.277740
| 42>   O                    : -7.731180            -4.197409            1.454962
| 43>   H                    : -7.719201            -4.762087            2.278271
| 44>   H                    : -5.742679            -4.812015            0.987931
| 45>   H                    : -6.110303            -3.214105            0.491601
| 46>   H                    : -5.883718            -3.606113            2.231377
| 47> *
| 48>
| 49> #Run DFT-D3 single point of the particle with dimer basis set
| 50> $new_job
| 51> %base "11-31_DFT_B"
| 52> ! wB97X-D3 def2-TZVP TIGHTSCF CHELPG PMODEL
| 53>
| 54> %scf
| 55> MaxIter 1000
| 56> end
| 57>
| 58> * xyz 0 1
| 59>   C                    : -4.262804            -3.298811            4.931557
| 60>   O                    : -3.864564            -2.942529            6.210114
| 61>   H                    : -2.899731            -2.834253            6.123950
| 62>   H                    : -4.286093            -4.428996            4.908977
| 63>   H                    : -5.227939            -2.841040            4.620827
| 64>   H                    : -3.491225            -3.035285            4.130311
| 65>   C                      -6.310086            -3.926838            1.277740
| 66>   O                      -7.731180            -4.197409            1.454962
| 67>   H                      -7.719201            -4.762087            2.278271
| 68>   H                      -5.742679            -4.812015            0.987931
| 69>   H                      -6.110303            -3.214105            0.491601
| 70>   H                      -5.883718            -3.606113            2.231377
| 71> *
| 72>
| 73>                          ****END OF INPUT****
 Total Charge           Charge          ....    0
 Multiplicity           Mult            ....    1
 Number of Electrons    NEL             ....   36
Dispersion correction           -0.001228653
FINAL SINGLE POINT ENERGY      -231.462198250682
Dispersion correction           -0.000233823
FINAL SINGLE POINT ENERGY      -115.729812690421

CARTESIAN COORDINATES (ANGSTROEM)
---------------------------------
  C     -4.262804   -3.298811    4.931557
  O     -3.864564   -2.942529    6.210114
  H     -2.899731   -2.834253    6.123950
  H     -4.286093   -4.428996    4.908977
  H     -5.227939   -2.841040    4.620827
  H     -3.491225   -3.035285    4.130311
  C     -6.310086   -3.926838    1.277740
  O     -7.731180   -4.197409    1.454962
  H     -7.719201   -4.762087    2.278271
  H     -5.742679   -4.812015    0.987931
  H     -6.110303   -3.214105    0.491601
  H     -5.883718   -3.606113    2.231377

 Multiplicity           Mult            ....    1
 Number of Electrons    NEL             ....   18
 Basis Dimension        Dim             ....  172

ORBITAL ENERGIES
----------------

  NO   OCC          E(Eh)            E(eV)
   0   2.0000     -19.235978      -523.4376
   1   2.0000     -10.314939      -280.6838
   2   2.0000      -1.120544       -30.4916
   3   2.0000      -0.794680       -21.6243
   4   2.0000      -0.598749       -16.2928
   5   2.0000      -0.536680       -14.6038
   6   2.0000      -0.522462       -14.2169
   7   2.0000      -0.444592       -12.0980
   8   2.0000      -0.373523       -10.1641
   9   0.0000       0.076563         2.0834
  10   0.0000       0.113239         3.0814
  11   0.0000       0.146805         3.9948
  12   0.0000       0.172314         4.6889
  13   0.0000       0.188417         5.1271

MULLIKEN ATOMIC CHARGES
-----------------------
   0 C :   -0.001012
   1 O :    0.000020
   2 H :    0.000002
   3 H :   -0.000153
   4 H :    0.001557
   5 H :   -0.000226
   6 C :   -0.179517
   7 O :   -0.470825
   8 H :    0.314916
   9 H :    0.108995
  10 H :    0.125109
  11 H :    0.101133
Sum of atomic charges:   -0.0000000

LOEWDIN ATOMIC CHARGES
----------------------
   0 C :   -0.004056
   1 O :   -0.000015
   2 H :   -0.000008
   3 H :   -0.000232
   4 H :   -0.001914
   5 H :   -0.000455
   6 C :   -0.360649
   7 O :   -0.122218
   8 H :    0.191252
   9 H :    0.095158
  10 H :    0.105114
  11 H :    0.098023

  Mayer bond orders larger than 0.1
B(  6-C ,  7-O ) :   0.9933 B(  6-C ,  9-H ) :   0.9731 B(  6-C , 10-H ) :   0.9732
B(  6-C , 11-H ) :   0.9840 B(  7-O ,  8-H ) :   0.8993

Dispersion correction           -0.000242000
FINAL SINGLE POINT ENERGY      -115.731834968100

DIPOLE MOMENT
-------------
                                X             Y             Z
Electronic contribution:     -1.88285      -0.16973       0.02424
Nuclear contribution   :      2.47561      -0.05809       0.38908
                        -----------------------------------------
Total Dipole Moment    :      0.59276      -0.22782       0.41332
                        -----------------------------------------
Magnitude (a.u.)       :      0.75770
Magnitude (Debye)      :      1.92591

Rotational constants in cm-1:     4.241668     0.797868     0.761923
Rotational constants in MHz : 127162.016959 23919.478703 22841.875922

                             ****ORCA TERMINATED NORMALLY****
TOTAL RUN TIME: 0 days 0 hours 1 minutes 9 seconds 99 msec
