                         Program Version 4.1.2  - RELEASE  -
|  1> #Run DFT-D3 single point of the dimer
|  2> ! wB97X-D3 def2-TZVP TIGHTSCF CHELPG PMODEL PAL8
|  3>
|  4> %base "14-197_DFT_AB"
|  5>
|  6> %scf
|  7> MaxIter 1000
|  8> end
|  9>
| 10> * xyz 0 1
| 11>   C                      -6.458469            -3.853157            5.668756
| 12>   O                      -5.954118            -2.567601            5.797055
| 13>   H                      -5.596299            -2.542622            6.664527
| 14>   H                      -5.718393            -4.654806            5.507057
| 15>   H                      -7.068729            -4.054793            6.565655
| 16>   H                      -7.142532            -3.924927            4.806965
| 17>   C                      -7.231096            0.734802             6.355933
| 18>   O                      -7.747945            -0.137764            5.435867
| 19>   H                      -7.369196            -1.030215            5.518210
| 20>   H                      -6.828257            0.153118             7.179129
| 21>   H                      -6.361936            1.306457             6.030149
| 22>   H                      -7.932546            1.299147             6.803414
| 23> *
| 24>
| 25> #Run DFT-D3 single point of the molecule with dimer basis set
| 26> $new_job
| 27> %base "14-197_DFT_A"
| 28> ! wB97X-D3 def2-TZVP TIGHTSCF CHELPG PMODEL
| 29>
| 30> %scf
| 31> MaxIter 1000
| 32> end
| 33>
| 34> * xyz 0 1
| 35>   C                      -6.458469            -3.853157            5.668756
| 36>   O                      -5.954118            -2.567601            5.797055
| 37>   H                      -5.596299            -2.542622            6.664527
| 38>   H                      -5.718393            -4.654806            5.507057
| 39>   H                      -7.068729            -4.054793            6.565655
| 40>   H                      -7.142532            -3.924927            4.806965
| 41>   C                    : -7.231096            0.734802             6.355933
| 42>   O                    : -7.747945            -0.137764            5.435867
| 43>   H                    : -7.369196            -1.030215            5.518210
| 44>   H                    : -6.828257            0.153118             7.179129
| 45>   H                    : -6.361936            1.306457             6.030149
| 46>   H                    : -7.932546            1.299147             6.803414
| 47> *
| 48>
| 49> #Run DFT-D3 single point of the particle with dimer basis set
| 50> $new_job
| 51> %base "14-197_DFT_B"
| 52> ! wB97X-D3 def2-TZVP TIGHTSCF CHELPG PMODEL
| 53>
| 54> %scf
| 55> MaxIter 1000
| 56> end
| 57>
| 58> * xyz 0 1
| 59>   C                    : -6.458469            -3.853157            5.668756
| 60>   O                    : -5.954118            -2.567601            5.797055
| 61>   H                    : -5.596299            -2.542622            6.664527
| 62>   H                    : -5.718393            -4.654806            5.507057
| 63>   H                    : -7.068729            -4.054793            6.565655
| 64>   H                    : -7.142532            -3.924927            4.806965
| 65>   C                      -7.231096            0.734802             6.355933
| 66>   O                      -7.747945            -0.137764            5.435867
| 67>   H                      -7.369196            -1.030215            5.518210
| 68>   H                      -6.828257            0.153118             7.179129
| 69>   H                      -6.361936            1.306457             6.030149
| 70>   H                      -7.932546            1.299147             6.803414
| 71> *
| 72>
| 73>                          ****END OF INPUT****
 Total Charge           Charge          ....    0
 Multiplicity           Mult            ....    1
 Number of Electrons    NEL             ....   36
Dispersion correction           -0.001720667
FINAL SINGLE POINT ENERGY      -231.467361204448
Dispersion correction           -0.000224890
FINAL SINGLE POINT ENERGY      -115.734430065268

CARTESIAN COORDINATES (ANGSTROEM)
---------------------------------
  C     -6.458469   -3.853157    5.668756
  O     -5.954118   -2.567601    5.797055
  H     -5.596299   -2.542622    6.664527
  H     -5.718393   -4.654806    5.507057
  H     -7.068729   -4.054793    6.565655
  H     -7.142532   -3.924927    4.806965
  C     -7.231096    0.734802    6.355933
  O     -7.747945   -0.137764    5.435867
  H     -7.369196   -1.030215    5.518210
  H     -6.828257    0.153118    7.179129
  H     -6.361936    1.306457    6.030149
  H     -7.932546    1.299147    6.803414

 Multiplicity           Mult            ....    1
 Number of Electrons    NEL             ....   18
 Basis Dimension        Dim             ....  172

ORBITAL ENERGIES
----------------

  NO   OCC          E(Eh)            E(eV)
   0   2.0000     -19.228607      -523.2370
   1   2.0000     -10.297991      -280.2226
   2   2.0000      -1.145037       -31.1580
   3   2.0000      -0.803817       -21.8730
   4   2.0000      -0.622446       -16.9376
   5   2.0000      -0.557046       -15.1580
   6   2.0000      -0.534151       -14.5350
   7   2.0000      -0.420266       -11.4360
   8   2.0000      -0.373206       -10.1555
   9   0.0000       0.066121         1.7992
  10   0.0000       0.129782         3.5316
  11   0.0000       0.153354         4.1730
  12   0.0000       0.171886         4.6773
  13   0.0000       0.189753         5.1634

MULLIKEN ATOMIC CHARGES
-----------------------
   0 C :   -0.002023
   1 O :   -0.003077
   2 H :   -0.000050
   3 H :    0.000038
   4 H :   -0.000010
   5 H :    0.000168
   6 C :   -0.149021
   7 O :   -0.479031
   8 H :    0.323397
   9 H :    0.092509
  10 H :    0.095395
  11 H :    0.121704
Sum of atomic charges:   -0.0000000

LOEWDIN ATOMIC CHARGES
----------------------
   0 C :   -0.003250
   1 O :   -0.012720
   2 H :   -0.001267
   3 H :   -0.000071
   4 H :   -0.000143
   5 H :   -0.000255
   6 C :   -0.404124
   7 O :   -0.042039
   8 H :    0.186295
   9 H :    0.097576
  10 H :    0.096253
  11 H :    0.083747

  Mayer bond orders larger than 0.1
B(  6-C ,  7-O ) :   0.9980 B(  6-C ,  9-H ) :   0.9955 B(  6-C , 10-H ) :   0.9724
B(  6-C , 11-H ) :   0.9759 B(  7-O ,  8-H ) :   0.8997

Dispersion correction           -0.000224980
FINAL SINGLE POINT ENERGY      -115.725499236435

DIPOLE MOMENT
-------------
                                X             Y             Z
Electronic contribution:     -0.88579      -0.89876      -1.35904
Nuclear contribution   :      1.31909       0.63617       1.80503
                        -----------------------------------------
Total Dipole Moment    :      0.43330      -0.26259       0.44599
                        -----------------------------------------
Magnitude (a.u.)       :      0.67499
Magnitude (Debye)      :      1.71568

Rotational constants in cm-1:     4.620095     0.868972     0.844992
Rotational constants in MHz : 138506.961448 26051.115249 25332.221964

                             ****ORCA TERMINATED NORMALLY****
TOTAL RUN TIME: 0 days 0 hours 1 minutes 7 seconds 830 msec
