                         Program Version 4.1.2  - RELEASE  -
|  1> #Run DFT-D3 single point of the dimer
|  2> ! wB97X-D3 def2-TZVP TIGHTSCF CHELPG PMODEL PAL8
|  3>
|  4> %base "11-123_DFT_AB"
|  5>
|  6> %scf
|  7> MaxIter 1000
|  8> end
|  9>
| 10> * xyz 0 1
| 11>   C                      0.044626             7.336796             -2.000568
| 12>   O                      0.666804             8.379387             -2.767885
| 13>   H                      1.634866             8.354970             -2.635268
| 14>   H                      0.688306             6.433786             -1.904531
| 15>   H                      -0.210121            7.772745             -1.070785
| 16>   H                      -0.934877            7.018362             -2.489453
| 17>   C                      -1.786504            10.032948            -4.965590
| 18>   O                      -1.696752            10.151286            -3.557242
| 19>   H                      -1.480515            9.292305             -3.253888
| 20>   H                      -2.689771            9.443806             -5.288390
| 21>   H                      -1.956705            10.993875            -5.503452
| 22>   H                      -0.930028            9.516940             -5.431423
| 23> *
| 24>
| 25> #Run DFT-D3 single point of the molecule with dimer basis set
| 26> $new_job
| 27> %base "11-123_DFT_A"
| 28> ! wB97X-D3 def2-TZVP TIGHTSCF CHELPG PMODEL
| 29>
| 30> %scf
| 31> MaxIter 1000
| 32> end
| 33>
| 34> * xyz 0 1
| 35>   C                      0.044626             7.336796             -2.000568
| 36>   O                      0.666804             8.379387             -2.767885
| 37>   H                      1.634866             8.354970             -2.635268
| 38>   H                      0.688306             6.433786             -1.904531
| 39>   H                      -0.210121            7.772745             -1.070785
| 40>   H                      -0.934877            7.018362             -2.489453
| 41>   C                    : -1.786504            10.032948            -4.965590
| 42>   O                    : -1.696752            10.151286            -3.557242
| 43>   H                    : -1.480515            9.292305             -3.253888
| 44>   H                    : -2.689771            9.443806             -5.288390
| 45>   H                    : -1.956705            10.993875            -5.503452
| 46>   H                    : -0.930028            9.516940             -5.431423
| 47> *
| 48>
| 49> #Run DFT-D3 single point of the particle with dimer basis set
| 50> $new_job
| 51> %base "11-123_DFT_B"
| 52> ! wB97X-D3 def2-TZVP TIGHTSCF CHELPG PMODEL
| 53>
| 54> %scf
| 55> MaxIter 1000
| 56> end
| 57>
| 58> * xyz 0 1
| 59>   C                    : 0.044626             7.336796             -2.000568
| 60>   O                    : 0.666804             8.379387             -2.767885
| 61>   H                    : 1.634866             8.354970             -2.635268
| 62>   H                    : 0.688306             6.433786             -1.904531
| 63>   H                    : -0.210121            7.772745             -1.070785
| 64>   H                    : -0.934877            7.018362             -2.489453
| 65>   C                      -1.786504            10.032948            -4.965590
| 66>   O                      -1.696752            10.151286            -3.557242
| 67>   H                      -1.480515            9.292305             -3.253888
| 68>   H                      -2.689771            9.443806             -5.288390
| 69>   H                      -1.956705            10.993875            -5.503452
| 70>   H                      -0.930028            9.516940             -5.431423
| 71> *
| 72>
| 73>                          ****END OF INPUT****
 Total Charge           Charge          ....    0
 Multiplicity           Mult            ....    1
 Number of Electrons    NEL             ....   36
Dispersion correction           -0.001803076
FINAL SINGLE POINT ENERGY      -231.467803396373
Dispersion correction           -0.000254087
FINAL SINGLE POINT ENERGY      -115.732377660052

CARTESIAN COORDINATES (ANGSTROEM)
---------------------------------
  C      0.044626    7.336796   -2.000568
  O      0.666804    8.379387   -2.767885
  H      1.634866    8.354970   -2.635268
  H      0.688306    6.433786   -1.904531
  H     -0.210121    7.772745   -1.070785
  H     -0.934877    7.018362   -2.489453
  C     -1.786504   10.032948   -4.965590
  O     -1.696752   10.151286   -3.557242
  H     -1.480515    9.292305   -3.253888
  H     -2.689771    9.443806   -5.288390
  H     -1.956705   10.993875   -5.503452
  H     -0.930028    9.516940   -5.431423

 Multiplicity           Mult            ....    1
 Number of Electrons    NEL             ....   18
 Basis Dimension        Dim             ....  172

ORBITAL ENERGIES
----------------

  NO   OCC          E(Eh)            E(eV)
   0   2.0000     -19.234761      -523.4044
   1   2.0000     -10.320590      -280.8375
   2   2.0000      -1.145341       -31.1663
   3   2.0000      -0.794250       -21.6126
   4   2.0000      -0.615653       -16.7528
   5   2.0000      -0.537426       -14.6241
   6   2.0000      -0.527166       -14.3449
   7   2.0000      -0.438911       -11.9434
   8   2.0000      -0.375136       -10.2080
   9   0.0000       0.070944         1.9305
  10   0.0000       0.132239         3.5984
  11   0.0000       0.149044         4.0557
  12   0.0000       0.160206         4.3594
  13   0.0000       0.190669         5.1884

MULLIKEN ATOMIC CHARGES
-----------------------
   0 C :   -0.001977
   1 O :   -0.003268
   2 H :   -0.000310
   3 H :   -0.000015
   4 H :    0.000129
   5 H :   -0.001316
   6 C :   -0.189568
   7 O :   -0.451414
   8 H :    0.313216
   9 H :    0.102405
  10 H :    0.123595
  11 H :    0.108523
Sum of atomic charges:    0.0000000

LOEWDIN ATOMIC CHARGES
----------------------
   0 C :   -0.005611
   1 O :   -0.007411
   2 H :   -0.000353
   3 H :   -0.000066
   4 H :   -0.000251
   5 H :   -0.001684
   6 C :   -0.397342
   7 O :   -0.052155
   8 H :    0.158011
   9 H :    0.098466
  10 H :    0.112537
  11 H :    0.095857

  Mayer bond orders larger than 0.1
B(  6-C ,  7-O ) :   1.0002 B(  6-C ,  9-H ) :   0.9796 B(  6-C , 10-H ) :   0.9717
B(  6-C , 11-H ) :   0.9695 B(  7-O ,  8-H ) :   0.9085

Dispersion correction           -0.000253071
FINAL SINGLE POINT ENERGY      -115.733530160779

DIPOLE MOMENT
-------------
                                X             Y             Z
Electronic contribution:      0.19039       0.37298       1.95051
Nuclear contribution   :     -0.09456      -0.94615      -2.31276
                        -----------------------------------------
Total Dipole Moment    :      0.09583      -0.57317      -0.36225
                        -----------------------------------------
Magnitude (a.u.)       :      0.68479
Magnitude (Debye)      :      1.74060

Rotational constants in cm-1:     4.326198     0.818508     0.787994
Rotational constants in MHz : 129696.143476 24538.260701 23623.457053

                             ****ORCA TERMINATED NORMALLY****
TOTAL RUN TIME: 0 days 0 hours 1 minutes 6 seconds 323 msec
