                         Program Version 4.1.2  - RELEASE  -
|  1> #Run DFT-D3 single point of the dimer
|  2> ! wB97X-D3 def2-TZVP TIGHTSCF CHELPG PMODEL PAL8
|  3>
|  4> %base "18-178_DFT_AB"
|  5>
|  6> %scf
|  7> MaxIter 1000
|  8> end
|  9>
| 10> * xyz 0 1
| 11>   C                      -2.983319            7.102537             -11.299652
| 12>   O                      -2.250122            7.888422             -10.348994
| 13>   H                      -2.956250            8.479641             -10.004747
| 14>   H                      -2.905947            6.096993             -10.950046
| 15>   H                      -4.085312            7.291755             -11.297916
| 16>   H                      -2.581351            7.153413             -12.315801
| 17>   C                      -3.552639            8.396486             -7.628908
| 18>   O                      -3.940402            9.207933             -8.764024
| 19>   H                      -4.631707            9.834041             -8.526227
| 20>   H                      -3.507210            7.368370             -7.850899
| 21>   H                      -2.618152            8.815532             -7.231517
| 22>   H                      -4.329217            8.366643             -6.816339
| 23> *
| 24>
| 25> #Run DFT-D3 single point of the molecule with dimer basis set
| 26> $new_job
| 27> %base "18-178_DFT_A"
| 28> ! wB97X-D3 def2-TZVP TIGHTSCF CHELPG PMODEL
| 29>
| 30> %scf
| 31> MaxIter 1000
| 32> end
| 33>
| 34> * xyz 0 1
| 35>   C                      -2.983319            7.102537             -11.299652
| 36>   O                      -2.250122            7.888422             -10.348994
| 37>   H                      -2.956250            8.479641             -10.004747
| 38>   H                      -2.905947            6.096993             -10.950046
| 39>   H                      -4.085312            7.291755             -11.297916
| 40>   H                      -2.581351            7.153413             -12.315801
| 41>   C                    : -3.552639            8.396486             -7.628908
| 42>   O                    : -3.940402            9.207933             -8.764024
| 43>   H                    : -4.631707            9.834041             -8.526227
| 44>   H                    : -3.507210            7.368370             -7.850899
| 45>   H                    : -2.618152            8.815532             -7.231517
| 46>   H                    : -4.329217            8.366643             -6.816339
| 47> *
| 48>
| 49> #Run DFT-D3 single point of the particle with dimer basis set
| 50> $new_job
| 51> %base "18-178_DFT_B"
| 52> ! wB97X-D3 def2-TZVP TIGHTSCF CHELPG PMODEL
| 53>
| 54> %scf
| 55> MaxIter 1000
| 56> end
| 57>
| 58> * xyz 0 1
| 59>   C                    : -2.983319            7.102537             -11.299652
| 60>   O                    : -2.250122            7.888422             -10.348994
| 61>   H                    : -2.956250            8.479641             -10.004747
| 62>   H                    : -2.905947            6.096993             -10.950046
| 63>   H                    : -4.085312            7.291755             -11.297916
| 64>   H                    : -2.581351            7.153413             -12.315801
| 65>   C                      -3.552639            8.396486             -7.628908
| 66>   O                      -3.940402            9.207933             -8.764024
| 67>   H                      -4.631707            9.834041             -8.526227
| 68>   H                      -3.507210            7.368370             -7.850899
| 69>   H                      -2.618152            8.815532             -7.231517
| 70>   H                      -4.329217            8.366643             -6.816339
| 71> *
| 72>
| 73>                          ****END OF INPUT****
 Total Charge           Charge          ....    0
 Multiplicity           Mult            ....    1
 Number of Electrons    NEL             ....   36
Dispersion correction           -0.002069631
FINAL SINGLE POINT ENERGY      -231.470110764982
Dispersion correction           -0.000246966
FINAL SINGLE POINT ENERGY      -115.731460094614

CARTESIAN COORDINATES (ANGSTROEM)
---------------------------------
  C     -2.983319    7.102537  -11.299652
  O     -2.250122    7.888422  -10.348994
  H     -2.956250    8.479641  -10.004747
  H     -2.905947    6.096993  -10.950046
  H     -4.085312    7.291755  -11.297916
  H     -2.581351    7.153413  -12.315801
  C     -3.552639    8.396486   -7.628908
  O     -3.940402    9.207933   -8.764024
  H     -4.631707    9.834041   -8.526227
  H     -3.507210    7.368370   -7.850899
  H     -2.618152    8.815532   -7.231517
  H     -4.329217    8.366643   -6.816339

 Multiplicity           Mult            ....    1
 Number of Electrons    NEL             ....   18
 Basis Dimension        Dim             ....  172

ORBITAL ENERGIES
----------------

  NO   OCC          E(Eh)            E(eV)
   0   2.0000     -19.229166      -523.2522
   1   2.0000     -10.316693      -280.7315
   2   2.0000      -1.123259       -30.5654
   3   2.0000      -0.800212       -21.7749
   4   2.0000      -0.604960       -16.4618
   5   2.0000      -0.549337       -14.9482
   6   2.0000      -0.516522       -14.0553
   7   2.0000      -0.426876       -11.6159
   8   2.0000      -0.377121       -10.2620
   9   0.0000       0.098038         2.6678
  10   0.0000       0.124267         3.3815
  11   0.0000       0.149744         4.0747
  12   0.0000       0.189086         5.1453
  13   0.0000       0.194457         5.2914

MULLIKEN ATOMIC CHARGES
-----------------------
   0 C :    0.003348
   1 O :    0.001280
   2 H :   -0.007539
   3 H :   -0.000527
   4 H :   -0.004119
   5 H :   -0.000198
   6 C :   -0.171187
   7 O :   -0.482402
   8 H :    0.313901
   9 H :    0.128787
  10 H :    0.114033
  11 H :    0.104623
Sum of atomic charges:    0.0000000

LOEWDIN ATOMIC CHARGES
----------------------
   0 C :   -0.003729
   1 O :   -0.007914
   2 H :   -0.059084
   3 H :   -0.000132
   4 H :   -0.001824
   5 H :   -0.000024
   6 C :   -0.349078
   7 O :   -0.049312
   8 H :    0.166012
   9 H :    0.097645
  10 H :    0.103153
  11 H :    0.104288

  Mayer bond orders larger than 0.1
B(  6-C ,  7-O ) :   0.9858 B(  6-C ,  9-H ) :   0.9713 B(  6-C , 10-H ) :   0.9811
B(  6-C , 11-H ) :   0.9724 B(  7-O ,  8-H ) :   0.8984

Dispersion correction           -0.000270391
FINAL SINGLE POINT ENERGY      -115.730913990748

DIPOLE MOMENT
-------------
                                X             Y             Z
Electronic contribution:     -0.31776       0.90588      -1.54653
Nuclear contribution   :      0.00591      -0.85985       2.19285
                        -----------------------------------------
Total Dipole Moment    :     -0.31185       0.04603       0.64632
                        -----------------------------------------
Magnitude (a.u.)       :      0.71909
Magnitude (Debye)      :      1.82779

Rotational constants in cm-1:     4.355830     0.788773     0.771846
Rotational constants in MHz : 130584.512609 23646.816377 23139.372377

                             ****ORCA TERMINATED NORMALLY****
TOTAL RUN TIME: 0 days 0 hours 1 minutes 2 seconds 178 msec
