                         Program Version 4.1.2  - RELEASE  -
|  1> #Run DFT-D3 single point of the dimer
|  2> ! wB97X-D3 def2-TZVP TIGHTSCF CHELPG PMODEL PAL8
|  3>
|  4> %base "19-135_DFT_AB"
|  5>
|  6> %scf
|  7> MaxIter 1000
|  8> end
|  9>
| 10> * xyz 0 1
| 11>   C                      -7.106117            -0.711953            -4.295349
| 12>   O                      -7.987258            -0.969623            -5.345620
| 13>   H                      -8.785335            -0.606331            -5.012032
| 14>   H                      -6.036073            -1.036936            -4.411769
| 15>   H                      -7.037151            0.351110             -4.185939
| 16>   H                      -7.469075            -1.155235            -3.374603
| 17>   C                      -7.917867            -3.962105            -2.446839
| 18>   O                      -6.972519            -4.255860            -3.480585
| 19>   H                      -7.341025            -4.091266            -4.371067
| 20>   H                      -8.721103            -4.688471            -2.484096
| 21>   H                      -7.429704            -3.941546            -1.461747
| 22>   H                      -8.336201            -2.925327            -2.625887
| 23> *
| 24>
| 25> #Run DFT-D3 single point of the molecule with dimer basis set
| 26> $new_job
| 27> %base "19-135_DFT_A"
| 28> ! wB97X-D3 def2-TZVP TIGHTSCF CHELPG PMODEL
| 29>
| 30> %scf
| 31> MaxIter 1000
| 32> end
| 33>
| 34> * xyz 0 1
| 35>   C                      -7.106117            -0.711953            -4.295349
| 36>   O                      -7.987258            -0.969623            -5.345620
| 37>   H                      -8.785335            -0.606331            -5.012032
| 38>   H                      -6.036073            -1.036936            -4.411769
| 39>   H                      -7.037151            0.351110             -4.185939
| 40>   H                      -7.469075            -1.155235            -3.374603
| 41>   C                    : -7.917867            -3.962105            -2.446839
| 42>   O                    : -6.972519            -4.255860            -3.480585
| 43>   H                    : -7.341025            -4.091266            -4.371067
| 44>   H                    : -8.721103            -4.688471            -2.484096
| 45>   H                    : -7.429704            -3.941546            -1.461747
| 46>   H                    : -8.336201            -2.925327            -2.625887
| 47> *
| 48>
| 49> #Run DFT-D3 single point of the particle with dimer basis set
| 50> $new_job
| 51> %base "19-135_DFT_B"
| 52> ! wB97X-D3 def2-TZVP TIGHTSCF CHELPG PMODEL
| 53>
| 54> %scf
| 55> MaxIter 1000
| 56> end
| 57>
| 58> * xyz 0 1
| 59>   C                    : -7.106117            -0.711953            -4.295349
| 60>   O                    : -7.987258            -0.969623            -5.345620
| 61>   H                    : -8.785335            -0.606331            -5.012032
| 62>   H                    : -6.036073            -1.036936            -4.411769
| 63>   H                    : -7.037151            0.351110             -4.185939
| 64>   H                    : -7.469075            -1.155235            -3.374603
| 65>   C                      -7.917867            -3.962105            -2.446839
| 66>   O                      -6.972519            -4.255860            -3.480585
| 67>   H                      -7.341025            -4.091266            -4.371067
| 68>   H                      -8.721103            -4.688471            -2.484096
| 69>   H                      -7.429704            -3.941546            -1.461747
| 70>   H                      -8.336201            -2.925327            -2.625887
| 71> *
| 72>
| 73>                          ****END OF INPUT****
 Total Charge           Charge          ....    0
 Multiplicity           Mult            ....    1
 Number of Electrons    NEL             ....   36
Dispersion correction           -0.001978224
FINAL SINGLE POINT ENERGY      -231.467476583105
Dispersion correction           -0.000209132
FINAL SINGLE POINT ENERGY      -115.730375449457

CARTESIAN COORDINATES (ANGSTROEM)
---------------------------------
  C     -7.106117   -0.711953   -4.295349
  O     -7.987258   -0.969623   -5.345620
  H     -8.785335   -0.606331   -5.012032
  H     -6.036073   -1.036936   -4.411769
  H     -7.037151    0.351110   -4.185939
  H     -7.469075   -1.155235   -3.374603
  C     -7.917867   -3.962105   -2.446839
  O     -6.972519   -4.255860   -3.480585
  H     -7.341025   -4.091266   -4.371067
  H     -8.721103   -4.688471   -2.484096
  H     -7.429704   -3.941546   -1.461747
  H     -8.336201   -2.925327   -2.625887

 Multiplicity           Mult            ....    1
 Number of Electrons    NEL             ....   18
 Basis Dimension        Dim             ....  172

ORBITAL ENERGIES
----------------

  NO   OCC          E(Eh)            E(eV)
   0   2.0000     -19.228699      -523.2395
   1   2.0000     -10.319100      -280.7970
   2   2.0000      -1.124651       -30.6033
   3   2.0000      -0.792965       -21.5777
   4   2.0000      -0.602662       -16.3993
   5   2.0000      -0.542542       -14.7633
   6   2.0000      -0.526507       -14.3270
   7   2.0000      -0.426615       -11.6088
   8   2.0000      -0.371830       -10.1180
   9   0.0000       0.079746         2.1700
  10   0.0000       0.129740         3.5304
  11   0.0000       0.150497         4.0952
  12   0.0000       0.163612         4.4521
  13   0.0000       0.197050         5.3620

MULLIKEN ATOMIC CHARGES
-----------------------
   0 C :   -0.010145
   1 O :    0.000588
   2 H :   -0.000056
   3 H :   -0.000226
   4 H :   -0.000018
   5 H :    0.006894
   6 C :   -0.155641
   7 O :   -0.488130
   8 H :    0.319009
   9 H :    0.111751
  10 H :    0.124715
  11 H :    0.091260
Sum of atomic charges:    0.0000000

LOEWDIN ATOMIC CHARGES
----------------------
   0 C :   -0.007789
   1 O :   -0.000290
   2 H :   -0.000120
   3 H :   -0.001162
   4 H :   -0.000103
   5 H :   -0.007106
   6 C :   -0.367772
   7 O :   -0.099660
   8 H :    0.176118
   9 H :    0.092214
  10 H :    0.110852
  11 H :    0.104820

  Mayer bond orders larger than 0.1
B(  6-C ,  7-O ) :   0.9890 B(  6-C ,  9-H ) :   0.9794 B(  6-C , 10-H ) :   0.9699
B(  6-C , 11-H ) :   0.9801 B(  7-O ,  8-H ) :   0.8921

Dispersion correction           -0.000249516
FINAL SINGLE POINT ENERGY      -115.734658941380

DIPOLE MOMENT
-------------
                                X             Y             Z
Electronic contribution:      1.27350      -0.49735      -1.11165
Nuclear contribution   :     -1.89270       0.71367       0.98229
                        -----------------------------------------
Total Dipole Moment    :     -0.61920       0.21632      -0.12936
                        -----------------------------------------
Magnitude (a.u.)       :      0.66853
Magnitude (Debye)      :      1.69927

Rotational constants in cm-1:     4.187334     0.811078     0.784347
Rotational constants in MHz : 125533.103843 24315.495512 23514.125869

                             ****ORCA TERMINATED NORMALLY****
TOTAL RUN TIME: 0 days 0 hours 0 minutes 49 seconds 515 msec
