                         Program Version 4.1.2  - RELEASE  -
|  1> #Run DFT-D3 single point of the dimer
|  2> ! wB97X-D3 def2-TZVP TIGHTSCF CHELPG PMODEL PAL8
|  3>
|  4> %base "10-76_DFT_AB"
|  5>
|  6> %scf
|  7> MaxIter 1000
|  8> end
|  9>
| 10> * xyz 0 1
| 11>   C                      4.546624             -10.081734           -0.355543
| 12>   O                      3.316980             -9.471916            -0.450149
| 13>   H                      3.133284             -8.853097            0.272998
| 14>   H                      5.079215             -10.102797           -1.305874
| 15>   H                      5.187251             -9.604669            0.363695
| 16>   H                      4.466684             -11.200598           -0.094542
| 17>   C                      9.201611             -9.829970            2.007386
| 18>   O                      9.879363             -8.720751            2.709278
| 19>   H                      10.857070            -8.824082            2.558853
| 20>   H                      8.146149             -9.516410            1.733404
| 21>   H                      9.610576             -9.986956            1.011769
| 22>   H                      9.295647             -10.770777           2.461635
| 23> *
| 24>
| 25> #Run DFT-D3 single point of the molecule with dimer basis set
| 26> $new_job
| 27> %base "10-76_DFT_A"
| 28> ! wB97X-D3 def2-TZVP TIGHTSCF CHELPG PMODEL
| 29>
| 30> %scf
| 31> MaxIter 1000
| 32> end
| 33>
| 34> * xyz 0 1
| 35>   C                      4.546624             -10.081734           -0.355543
| 36>   O                      3.316980             -9.471916            -0.450149
| 37>   H                      3.133284             -8.853097            0.272998
| 38>   H                      5.079215             -10.102797           -1.305874
| 39>   H                      5.187251             -9.604669            0.363695
| 40>   H                      4.466684             -11.200598           -0.094542
| 41>   C                    : 9.201611             -9.829970            2.007386
| 42>   O                    : 9.879363             -8.720751            2.709278
| 43>   H                    : 10.857070            -8.824082            2.558853
| 44>   H                    : 8.146149             -9.516410            1.733404
| 45>   H                    : 9.610576             -9.986956            1.011769
| 46>   H                    : 9.295647             -10.770777           2.461635
| 47> *
| 48>
| 49> #Run DFT-D3 single point of the particle with dimer basis set
| 50> $new_job
| 51> %base "10-76_DFT_B"
| 52> ! wB97X-D3 def2-TZVP TIGHTSCF CHELPG PMODEL
| 53>
| 54> %scf
| 55> MaxIter 1000
| 56> end
| 57>
| 58> * xyz 0 1
| 59>   C                    : 4.546624             -10.081734           -0.355543
| 60>   O                    : 3.316980             -9.471916            -0.450149
| 61>   H                    : 3.133284             -8.853097            0.272998
| 62>   H                    : 5.079215             -10.102797           -1.305874
| 63>   H                    : 5.187251             -9.604669            0.363695
| 64>   H                    : 4.466684             -11.200598           -0.094542
| 65>   C                      9.201611             -9.829970            2.007386
| 66>   O                      9.879363             -8.720751            2.709278
| 67>   H                      10.857070            -8.824082            2.558853
| 68>   H                      8.146149             -9.516410            1.733404
| 69>   H                      9.610576             -9.986956            1.011769
| 70>   H                      9.295647             -10.770777           2.461635
| 71> *
| 72>
| 73>                          ****END OF INPUT****
 Total Charge           Charge          ....    0
 Multiplicity           Mult            ....    1
 Number of Electrons    NEL             ....   36
Dispersion correction           -0.000800237
FINAL SINGLE POINT ENERGY      -231.459234155962
Dispersion correction           -0.000254254
FINAL SINGLE POINT ENERGY      -115.732043568781

CARTESIAN COORDINATES (ANGSTROEM)
---------------------------------
  C      4.546624  -10.081734   -0.355543
  O      3.316980   -9.471916   -0.450149
  H      3.133284   -8.853097    0.272998
  H      5.079215  -10.102797   -1.305874
  H      5.187251   -9.604669    0.363695
  H      4.466684  -11.200598   -0.094542
  C      9.201611   -9.829970    2.007386
  O      9.879363   -8.720751    2.709278
  H     10.857070   -8.824082    2.558853
  H      8.146149   -9.516410    1.733404
  H      9.610576   -9.986956    1.011769
  H      9.295647  -10.770777    2.461635

 Multiplicity           Mult            ....    1
 Number of Electrons    NEL             ....   18
 Basis Dimension        Dim             ....  172

ORBITAL ENERGIES
----------------

  NO   OCC          E(Eh)            E(eV)
   0   2.0000     -19.234296      -523.3918
   1   2.0000     -10.317350      -280.7494
   2   2.0000      -1.111640       -30.2493
   3   2.0000      -0.798617       -21.7315
   4   2.0000      -0.599099       -16.3023
   5   2.0000      -0.543133       -14.7794
   6   2.0000      -0.507830       -13.8188
   7   2.0000      -0.434108       -11.8127
   8   2.0000      -0.377590       -10.2748
   9   0.0000       0.084571         2.3013
  10   0.0000       0.111696         3.0394
  11   0.0000       0.139510         3.7963
  12   0.0000       0.166550         4.5321
  13   0.0000       0.180433         4.9098

MULLIKEN ATOMIC CHARGES
-----------------------
   0 C :    0.000026
   1 O :    0.000001
   2 H :   -0.000001
   3 H :   -0.000016
   4 H :   -0.000205
   5 H :   -0.000012
   6 C :   -0.184502
   7 O :   -0.483903
   8 H :    0.315270
   9 H :    0.125220
  10 H :    0.108112
  11 H :    0.120011
Sum of atomic charges:    0.0000000

LOEWDIN ATOMIC CHARGES
----------------------
   0 C :   -0.000164
   1 O :   -0.000003
   2 H :   -0.000000
   3 H :   -0.000005
   4 H :   -0.000478
   5 H :   -0.000004
   6 C :   -0.348898
   7 O :   -0.135448
   8 H :    0.183491
   9 H :    0.119554
  10 H :    0.095702
  11 H :    0.086252

  Mayer bond orders larger than 0.1
B(  6-C ,  7-O ) :   1.0003 B(  6-C ,  9-H ) :   0.9728 B(  6-C , 10-H ) :   0.9787
B(  6-C , 11-H ) :   0.9659 B(  7-O ,  8-H ) :   0.8967

Dispersion correction           -0.000276693
FINAL SINGLE POINT ENERGY      -115.726888020067

DIPOLE MOMENT
-------------
                                X             Y             Z
Electronic contribution:      0.69571       1.34724       1.09456
Nuclear contribution   :     -0.36086      -1.88853      -1.52628
                        -----------------------------------------
Total Dipole Moment    :      0.33485      -0.54130      -0.43172
                        -----------------------------------------
Magnitude (a.u.)       :      0.76910
Magnitude (Debye)      :      1.95489

Rotational constants in cm-1:     4.307425     0.769239     0.739365
Rotational constants in MHz : 129133.338069 23061.217166 22165.592737

                             ****ORCA TERMINATED NORMALLY****
TOTAL RUN TIME: 0 days 0 hours 0 minutes 59 seconds 305 msec
