                         Program Version 4.1.2  - RELEASE  -
|  1> #Run DFT-D3 single point of the dimer
|  2> ! wB97X-D3 def2-TZVP TIGHTSCF CHELPG PMODEL PAL8
|  3>
|  4> %base "18-79_DFT_AB"
|  5>
|  6> %scf
|  7> MaxIter 1000
|  8> end
|  9>
| 10> * xyz 0 1
| 11>   C                      1.357016             -4.144993            -10.981236
| 12>   O                      0.027472             -4.230226            -11.449429
| 13>   H                      -0.609732            -4.116617            -10.744449
| 14>   H                      1.503885             -3.179850            -10.444601
| 15>   H                      1.556631             -4.875398            -10.229939
| 16>   H                      2.132881             -4.103547            -11.830028
| 17>   C                      2.501428             -0.334260            -8.147326
| 18>   O                      2.897472             -0.122026            -9.461872
| 19>   H                      3.256728             -0.985524            -9.721039
| 20>   H                      1.767696             -1.127452            -8.072094
| 21>   H                      3.302481             -0.558953            -7.438602
| 22>   H                      1.963857             0.575949             -7.849546
| 23> *
| 24>
| 25> #Run DFT-D3 single point of the molecule with dimer basis set
| 26> $new_job
| 27> %base "18-79_DFT_A"
| 28> ! wB97X-D3 def2-TZVP TIGHTSCF CHELPG PMODEL
| 29>
| 30> %scf
| 31> MaxIter 1000
| 32> end
| 33>
| 34> * xyz 0 1
| 35>   C                      1.357016             -4.144993            -10.981236
| 36>   O                      0.027472             -4.230226            -11.449429
| 37>   H                      -0.609732            -4.116617            -10.744449
| 38>   H                      1.503885             -3.179850            -10.444601
| 39>   H                      1.556631             -4.875398            -10.229939
| 40>   H                      2.132881             -4.103547            -11.830028
| 41>   C                    : 2.501428             -0.334260            -8.147326
| 42>   O                    : 2.897472             -0.122026            -9.461872
| 43>   H                    : 3.256728             -0.985524            -9.721039
| 44>   H                    : 1.767696             -1.127452            -8.072094
| 45>   H                    : 3.302481             -0.558953            -7.438602
| 46>   H                    : 1.963857             0.575949             -7.849546
| 47> *
| 48>
| 49> #Run DFT-D3 single point of the particle with dimer basis set
| 50> $new_job
| 51> %base "18-79_DFT_B"
| 52> ! wB97X-D3 def2-TZVP TIGHTSCF CHELPG PMODEL
| 53>
| 54> %scf
| 55> MaxIter 1000
| 56> end
| 57>
| 58> * xyz 0 1
| 59>   C                    : 1.357016             -4.144993            -10.981236
| 60>   O                    : 0.027472             -4.230226            -11.449429
| 61>   H                    : -0.609732            -4.116617            -10.744449
| 62>   H                    : 1.503885             -3.179850            -10.444601
| 63>   H                    : 1.556631             -4.875398            -10.229939
| 64>   H                    : 2.132881             -4.103547            -11.830028
| 65>   C                      2.501428             -0.334260            -8.147326
| 66>   O                      2.897472             -0.122026            -9.461872
| 67>   H                      3.256728             -0.985524            -9.721039
| 68>   H                      1.767696             -1.127452            -8.072094
| 69>   H                      3.302481             -0.558953            -7.438602
| 70>   H                      1.963857             0.575949             -7.849546
| 71> *
| 72>
| 73>                          ****END OF INPUT****
 Total Charge           Charge          ....    0
 Multiplicity           Mult            ....    1
 Number of Electrons    NEL             ....   36
Dispersion correction           -0.001090811
FINAL SINGLE POINT ENERGY      -231.466311805479
Dispersion correction           -0.000247279
FINAL SINGLE POINT ENERGY      -115.730872126536

CARTESIAN COORDINATES (ANGSTROEM)
---------------------------------
  C      1.357016   -4.144993  -10.981236
  O      0.027472   -4.230226  -11.449429
  H     -0.609732   -4.116617  -10.744449
  H      1.503885   -3.179850  -10.444601
  H      1.556631   -4.875398  -10.229939
  H      2.132881   -4.103547  -11.830028
  C      2.501428   -0.334260   -8.147326
  O      2.897472   -0.122026   -9.461872
  H      3.256728   -0.985524   -9.721039
  H      1.767696   -1.127452   -8.072094
  H      3.302481   -0.558953   -7.438602
  H      1.963857    0.575949   -7.849546

 Multiplicity           Mult            ....    1
 Number of Electrons    NEL             ....   18
 Basis Dimension        Dim             ....  172

ORBITAL ENERGIES
----------------

  NO   OCC          E(Eh)            E(eV)
   0   2.0000     -19.234613      -523.4004
   1   2.0000     -10.309307      -280.5305
   2   2.0000      -1.147118       -31.2147
   3   2.0000      -0.792080       -21.5536
   4   2.0000      -0.617230       -16.7957
   5   2.0000      -0.546322       -14.8662
   6   2.0000      -0.525255       -14.2929
   7   2.0000      -0.438273       -11.9260
   8   2.0000      -0.375002       -10.2043
   9   0.0000       0.076745         2.0883
  10   0.0000       0.120299         3.2735
  11   0.0000       0.150796         4.1034
  12   0.0000       0.169562         4.6140
  13   0.0000       0.187445         5.1007

MULLIKEN ATOMIC CHARGES
-----------------------
   0 C :    0.001853
   1 O :   -0.000027
   2 H :   -0.000006
   3 H :   -0.004461
   4 H :   -0.000031
   5 H :   -0.000098
   6 C :   -0.167700
   7 O :   -0.457931
   8 H :    0.314509
   9 H :    0.098052
  10 H :    0.100349
  11 H :    0.115491
Sum of atomic charges:   -0.0000000

LOEWDIN ATOMIC CHARGES
----------------------
   0 C :   -0.000448
   1 O :   -0.000011
   2 H :   -0.000003
   3 H :   -0.001455
   4 H :   -0.000007
   5 H :   -0.000019
   6 C :   -0.411106
   7 O :   -0.058522
   8 H :    0.178492
   9 H :    0.089589
  10 H :    0.092261
  11 H :    0.111229

  Mayer bond orders larger than 0.1
B(  6-C ,  7-O ) :   1.0111 B(  6-C ,  9-H ) :   0.9758 B(  6-C , 10-H ) :   0.9734
B(  6-C , 11-H ) :   0.9771 B(  7-O ,  8-H ) :   0.9008

Dispersion correction           -0.000219313
FINAL SINGLE POINT ENERGY      -115.735214197294

DIPOLE MOMENT
-------------
                                X             Y             Z
Electronic contribution:      0.56879       0.41214      -1.72895
Nuclear contribution   :     -0.50552      -1.01818       2.05018
                        -----------------------------------------
Total Dipole Moment    :      0.06327      -0.60603       0.32123
                        -----------------------------------------
Magnitude (a.u.)       :      0.68882
Magnitude (Debye)      :      1.75084

Rotational constants in cm-1:     4.259678     0.863189     0.827454
Rotational constants in MHz : 127701.923092 25877.756787 24806.453494

                             ****ORCA TERMINATED NORMALLY****
TOTAL RUN TIME: 0 days 0 hours 0 minutes 58 seconds 465 msec
