                         Program Version 4.1.2  - RELEASE  -
|  1> #Run DFT-D3 single point of the dimer
|  2> ! wB97X-D3 def2-TZVP TIGHTSCF CHELPG PMODEL PAL8
|  3>
|  4> %base "12-146_DFT_AB"
|  5>
|  6> %scf
|  7> MaxIter 1000
|  8> end
|  9>
| 10> * xyz 0 1
| 11>   C                      6.459684             2.625476             -5.733349
| 12>   O                      5.669296             1.772671             -6.552629
| 13>   H                      4.759688             1.963351             -6.356221
| 14>   H                      6.406761             2.293092             -4.689490
| 15>   H                      7.541756             2.639299             -5.944496
| 16>   H                      6.294017             3.691201             -5.920072
| 17>   C                      8.279179             -0.130708            -6.836985
| 18>   O                      6.940537             -0.687971            -6.867043
| 19>   H                      6.345890             0.019245             -6.580589
| 20>   H                      8.565146             0.242757             -5.816725
| 21>   H                      9.006354             -0.914377            -7.006050
| 22>   H                      8.455786             0.688963             -7.595596
| 23> *
| 24>
| 25> #Run DFT-D3 single point of the molecule with dimer basis set
| 26> $new_job
| 27> %base "12-146_DFT_A"
| 28> ! wB97X-D3 def2-TZVP TIGHTSCF CHELPG PMODEL
| 29>
| 30> %scf
| 31> MaxIter 1000
| 32> end
| 33>
| 34> * xyz 0 1
| 35>   C                      6.459684             2.625476             -5.733349
| 36>   O                      5.669296             1.772671             -6.552629
| 37>   H                      4.759688             1.963351             -6.356221
| 38>   H                      6.406761             2.293092             -4.689490
| 39>   H                      7.541756             2.639299             -5.944496
| 40>   H                      6.294017             3.691201             -5.920072
| 41>   C                    : 8.279179             -0.130708            -6.836985
| 42>   O                    : 6.940537             -0.687971            -6.867043
| 43>   H                    : 6.345890             0.019245             -6.580589
| 44>   H                    : 8.565146             0.242757             -5.816725
| 45>   H                    : 9.006354             -0.914377            -7.006050
| 46>   H                    : 8.455786             0.688963             -7.595596
| 47> *
| 48>
| 49> #Run DFT-D3 single point of the particle with dimer basis set
| 50> $new_job
| 51> %base "12-146_DFT_B"
| 52> ! wB97X-D3 def2-TZVP TIGHTSCF CHELPG PMODEL
| 53>
| 54> %scf
| 55> MaxIter 1000
| 56> end
| 57>
| 58> * xyz 0 1
| 59>   C                    : 6.459684             2.625476             -5.733349
| 60>   O                    : 5.669296             1.772671             -6.552629
| 61>   H                    : 4.759688             1.963351             -6.356221
| 62>   H                    : 6.406761             2.293092             -4.689490
| 63>   H                    : 7.541756             2.639299             -5.944496
| 64>   H                    : 6.294017             3.691201             -5.920072
| 65>   C                      8.279179             -0.130708            -6.836985
| 66>   O                      6.940537             -0.687971            -6.867043
| 67>   H                      6.345890             0.019245             -6.580589
| 68>   H                      8.565146             0.242757             -5.816725
| 69>   H                      9.006354             -0.914377            -7.006050
| 70>   H                      8.455786             0.688963             -7.595596
| 71> *
| 72>
| 73>                          ****END OF INPUT****
 Total Charge           Charge          ....    0
 Multiplicity           Mult            ....    1
 Number of Electrons    NEL             ....   36
Dispersion correction           -0.002356699
FINAL SINGLE POINT ENERGY      -231.471999960498
Dispersion correction           -0.000256012
FINAL SINGLE POINT ENERGY      -115.730584246121

CARTESIAN COORDINATES (ANGSTROEM)
---------------------------------
  C      6.459684    2.625476   -5.733349
  O      5.669296    1.772671   -6.552629
  H      4.759688    1.963351   -6.356221
  H      6.406761    2.293092   -4.689490
  H      7.541756    2.639299   -5.944496
  H      6.294017    3.691201   -5.920072
  C      8.279179   -0.130708   -6.836985
  O      6.940537   -0.687971   -6.867043
  H      6.345890    0.019245   -6.580589
  H      8.565146    0.242757   -5.816725
  H      9.006354   -0.914377   -7.006050
  H      8.455786    0.688963   -7.595596

 Multiplicity           Mult            ....    1
 Number of Electrons    NEL             ....   18
 Basis Dimension        Dim             ....  172

ORBITAL ENERGIES
----------------

  NO   OCC          E(Eh)            E(eV)
   0   2.0000     -19.235481      -523.4241
   1   2.0000     -10.322758      -280.8965
   2   2.0000      -1.126862       -30.6635
   3   2.0000      -0.793690       -21.5974
   4   2.0000      -0.601805       -16.3759
   5   2.0000      -0.535580       -14.5739
   6   2.0000      -0.522105       -14.2072
   7   2.0000      -0.436857       -11.8875
   8   2.0000      -0.377638       -10.2761
   9   0.0000       0.069005         1.8777
  10   0.0000       0.133694         3.6380
  11   0.0000       0.145148         3.9497
  12   0.0000       0.168718         4.5911
  13   0.0000       0.183857         5.0030

MULLIKEN ATOMIC CHARGES
-----------------------
   0 C :    0.000456
   1 O :   -0.006281
   2 H :   -0.000766
   3 H :   -0.000164
   4 H :   -0.002364
   5 H :   -0.000073
   6 C :   -0.186619
   7 O :   -0.467896
   8 H :    0.317434
   9 H :    0.105800
  10 H :    0.131554
  11 H :    0.108917
Sum of atomic charges:   -0.0000000

LOEWDIN ATOMIC CHARGES
----------------------
   0 C :   -0.010381
   1 O :   -0.024065
   2 H :   -0.001479
   3 H :   -0.000461
   4 H :   -0.003795
   5 H :   -0.000120
   6 C :   -0.366153
   7 O :   -0.087834
   8 H :    0.181974
   9 H :    0.102577
  10 H :    0.105623
  11 H :    0.104115

  Mayer bond orders larger than 0.1
B(  6-C ,  7-O ) :   0.9963 B(  6-C ,  9-H ) :   0.9749 B(  6-C , 10-H ) :   0.9732
B(  6-C , 11-H ) :   0.9691 B(  7-O ,  8-H ) :   0.9057

Dispersion correction           -0.000275164
FINAL SINGLE POINT ENERGY      -115.734525585193

DIPOLE MOMENT
-------------
                                X             Y             Z
Electronic contribution:     -1.70198      -0.86748      -0.14479
Nuclear contribution   :      1.88896       1.49859       0.34214
                        -----------------------------------------
Total Dipole Moment    :      0.18697       0.63112       0.19735
                        -----------------------------------------
Magnitude (a.u.)       :      0.68718
Magnitude (Debye)      :      1.74667

Rotational constants in cm-1:     4.211097     0.786077     0.765241
Rotational constants in MHz : 126245.497504 23565.995382 22941.355670

                             ****ORCA TERMINATED NORMALLY****
TOTAL RUN TIME: 0 days 0 hours 1 minutes 16 seconds 762 msec
