                         Program Version 4.1.2  - RELEASE  -
|  1> #Run DFT-D3 single point of the dimer
|  2> ! wB97X-D3 def2-TZVP TIGHTSCF CHELPG PMODEL PAL8
|  3>
|  4> %base "2-108_DFT_AB"
|  5>
|  6> %scf
|  7> MaxIter 1000
|  8> end
|  9>
| 10> * xyz 0 1
| 11>   C                      8.250343             5.705359             -1.178994
| 12>   O                      7.781973             4.399579             -0.935683
| 13>   H                      6.990076             4.528335             -0.441139
| 14>   H                      7.784217             6.542154             -0.621818
| 15>   H                      9.292746             5.743374             -0.911809
| 16>   H                      8.314528             5.887828             -2.257205
| 17>   C                      5.391279             3.294329             -2.170798
| 18>   O                      4.977927             4.575700             -1.761381
| 19>   H                      4.206641             4.885202             -2.279317
| 20>   H                      4.601016             2.735883             -2.674586
| 21>   H                      6.284106             3.480828             -2.840188
| 22>   H                      5.683525             2.699588             -1.319421
| 23> *
| 24>
| 25> #Run DFT-D3 single point of the molecule with dimer basis set
| 26> $new_job
| 27> %base "2-108_DFT_A"
| 28> ! wB97X-D3 def2-TZVP TIGHTSCF CHELPG PMODEL
| 29>
| 30> %scf
| 31> MaxIter 1000
| 32> end
| 33>
| 34> * xyz 0 1
| 35>   C                      8.250343             5.705359             -1.178994
| 36>   O                      7.781973             4.399579             -0.935683
| 37>   H                      6.990076             4.528335             -0.441139
| 38>   H                      7.784217             6.542154             -0.621818
| 39>   H                      9.292746             5.743374             -0.911809
| 40>   H                      8.314528             5.887828             -2.257205
| 41>   C                    : 5.391279             3.294329             -2.170798
| 42>   O                    : 4.977927             4.575700             -1.761381
| 43>   H                    : 4.206641             4.885202             -2.279317
| 44>   H                    : 4.601016             2.735883             -2.674586
| 45>   H                    : 6.284106             3.480828             -2.840188
| 46>   H                    : 5.683525             2.699588             -1.319421
| 47> *
| 48>
| 49> #Run DFT-D3 single point of the particle with dimer basis set
| 50> $new_job
| 51> %base "2-108_DFT_B"
| 52> ! wB97X-D3 def2-TZVP TIGHTSCF CHELPG PMODEL
| 53>
| 54> %scf
| 55> MaxIter 1000
| 56> end
| 57>
| 58> * xyz 0 1
| 59>   C                    : 8.250343             5.705359             -1.178994
| 60>   O                    : 7.781973             4.399579             -0.935683
| 61>   H                    : 6.990076             4.528335             -0.441139
| 62>   H                    : 7.784217             6.542154             -0.621818
| 63>   H                    : 9.292746             5.743374             -0.911809
| 64>   H                    : 8.314528             5.887828             -2.257205
| 65>   C                      5.391279             3.294329             -2.170798
| 66>   O                      4.977927             4.575700             -1.761381
| 67>   H                      4.206641             4.885202             -2.279317
| 68>   H                      4.601016             2.735883             -2.674586
| 69>   H                      6.284106             3.480828             -2.840188
| 70>   H                      5.683525             2.699588             -1.319421
| 71> *
| 72>
| 73>                          ****END OF INPUT****
 Total Charge           Charge          ....    0
 Multiplicity           Mult            ....    1
 Number of Electrons    NEL             ....   36
Dispersion correction           -0.002128164
FINAL SINGLE POINT ENERGY      -231.468060029326
Dispersion correction           -0.000249600
FINAL SINGLE POINT ENERGY      -115.731962129464

CARTESIAN COORDINATES (ANGSTROEM)
---------------------------------
  C      8.250343    5.705359   -1.178994
  O      7.781973    4.399579   -0.935683
  H      6.990076    4.528335   -0.441139
  H      7.784217    6.542154   -0.621818
  H      9.292746    5.743374   -0.911809
  H      8.314528    5.887828   -2.257205
  C      5.391279    3.294329   -2.170798
  O      4.977927    4.575700   -1.761381
  H      4.206641    4.885202   -2.279317
  H      4.601016    2.735883   -2.674586
  H      6.284106    3.480828   -2.840188
  H      5.683525    2.699588   -1.319421

 Multiplicity           Mult            ....    1
 Number of Electrons    NEL             ....   18
 Basis Dimension        Dim             ....  172

ORBITAL ENERGIES
----------------

  NO   OCC          E(Eh)            E(eV)
   0   2.0000     -19.228244      -523.2271
   1   2.0000     -10.313569      -280.6465
   2   2.0000      -1.131791       -30.7976
   3   2.0000      -0.792474       -21.5643
   4   2.0000      -0.609749       -16.5921
   5   2.0000      -0.542417       -14.7599
   6   2.0000      -0.526247       -14.3199
   7   2.0000      -0.429080       -11.6758
   8   2.0000      -0.368813       -10.0359
   9   0.0000       0.095048         2.5864
  10   0.0000       0.123409         3.3581
  11   0.0000       0.153133         4.1670
  12   0.0000       0.181823         4.9477
  13   0.0000       0.189410         5.1541

MULLIKEN ATOMIC CHARGES
-----------------------
   0 C :    0.000071
   1 O :    0.003387
   2 H :   -0.002244
   3 H :   -0.000895
   4 H :   -0.000249
   5 H :   -0.001005
   6 C :   -0.180600
   7 O :   -0.477314
   8 H :    0.317067
   9 H :    0.117375
  10 H :    0.106066
  11 H :    0.118341
Sum of atomic charges:   -0.0000000

LOEWDIN ATOMIC CHARGES
----------------------
   0 C :   -0.005664
   1 O :   -0.008516
   2 H :   -0.010701
   3 H :   -0.000454
   4 H :   -0.000075
   5 H :   -0.000399
   6 C :   -0.386075
   7 O :   -0.074475
   8 H :    0.178804
   9 H :    0.095982
  10 H :    0.108170
  11 H :    0.103404

  Mayer bond orders larger than 0.1
B(  6-C ,  7-O ) :   1.0061 B(  6-C ,  9-H ) :   0.9722 B(  6-C , 10-H ) :   0.9829
B(  6-C , 11-H ) :   0.9730 B(  7-O ,  8-H ) :   0.8931

Dispersion correction           -0.000245864
FINAL SINGLE POINT ENERGY      -115.733395922104

DIPOLE MOMENT
-------------
                                X             Y             Z
Electronic contribution:     -0.49467       1.55402       0.63651
Nuclear contribution   :      0.12408      -1.87990      -1.11684
                        -----------------------------------------
Total Dipole Moment    :     -0.37059      -0.32588      -0.48033
                        -----------------------------------------
Magnitude (a.u.)       :      0.68866
Magnitude (Debye)      :      1.75044

Rotational constants in cm-1:     4.201845     0.834137     0.810503
Rotational constants in MHz : 125968.138095 25006.784612 24298.266580

                             ****ORCA TERMINATED NORMALLY****
TOTAL RUN TIME: 0 days 0 hours 6 minutes 6 seconds 263 msec
