                         Program Version 4.1.2  - RELEASE  -
|  1> #Run DFT-D3 single point of the dimer
|  2> ! wB97X-D3 def2-TZVP TIGHTSCF CHELPG PMODEL PAL8
|  3>
|  4> %base "10-154_DFT_AB"
|  5>
|  6> %scf
|  7> MaxIter 1000
|  8> end
|  9>
| 10> * xyz 0 1
| 11>   C                      -7.696993            4.870722             -5.249088
| 12>   O                      -8.000173            5.738073             -6.280450
| 13>   H                      -7.944936            6.626068             -5.893872
| 14>   H                      -8.323327            5.038972             -4.420288
| 15>   H                      -7.952844            3.779827             -5.439397
| 16>   H                      -6.693924            5.029218             -4.879983
| 17>   C                      -4.577922            7.549913             -6.259814
| 18>   O                      -5.822441            8.040496             -5.765704
| 19>   H                      -6.112907            8.734380             -6.371668
| 20>   H                      -3.982501            6.991980             -5.461943
| 21>   H                      -4.767267            6.902026             -7.134338
| 22>   H                      -3.949636            8.337608             -6.698863
| 23> *
| 24>
| 25> #Run DFT-D3 single point of the molecule with dimer basis set
| 26> $new_job
| 27> %base "10-154_DFT_A"
| 28> ! wB97X-D3 def2-TZVP TIGHTSCF CHELPG PMODEL
| 29>
| 30> %scf
| 31> MaxIter 1000
| 32> end
| 33>
| 34> * xyz 0 1
| 35>   C                      -7.696993            4.870722             -5.249088
| 36>   O                      -8.000173            5.738073             -6.280450
| 37>   H                      -7.944936            6.626068             -5.893872
| 38>   H                      -8.323327            5.038972             -4.420288
| 39>   H                      -7.952844            3.779827             -5.439397
| 40>   H                      -6.693924            5.029218             -4.879983
| 41>   C                    : -4.577922            7.549913             -6.259814
| 42>   O                    : -5.822441            8.040496             -5.765704
| 43>   H                    : -6.112907            8.734380             -6.371668
| 44>   H                    : -3.982501            6.991980             -5.461943
| 45>   H                    : -4.767267            6.902026             -7.134338
| 46>   H                    : -3.949636            8.337608             -6.698863
| 47> *
| 48>
| 49> #Run DFT-D3 single point of the particle with dimer basis set
| 50> $new_job
| 51> %base "10-154_DFT_B"
| 52> ! wB97X-D3 def2-TZVP TIGHTSCF CHELPG PMODEL
| 53>
| 54> %scf
| 55> MaxIter 1000
| 56> end
| 57>
| 58> * xyz 0 1
| 59>   C                    : -7.696993            4.870722             -5.249088
| 60>   O                    : -8.000173            5.738073             -6.280450
| 61>   H                    : -7.944936            6.626068             -5.893872
| 62>   H                    : -8.323327            5.038972             -4.420288
| 63>   H                    : -7.952844            3.779827             -5.439397
| 64>   H                    : -6.693924            5.029218             -4.879983
| 65>   C                      -4.577922            7.549913             -6.259814
| 66>   O                      -5.822441            8.040496             -5.765704
| 67>   H                      -6.112907            8.734380             -6.371668
| 68>   H                      -3.982501            6.991980             -5.461943
| 69>   H                      -4.767267            6.902026             -7.134338
| 70>   H                      -3.949636            8.337608             -6.698863
| 71> *
| 72>
| 73>                          ****END OF INPUT****
 Total Charge           Charge          ....    0
 Multiplicity           Mult            ....    1
 Number of Electrons    NEL             ....   36
Dispersion correction           -0.001843790
FINAL SINGLE POINT ENERGY      -231.467232135034
Dispersion correction           -0.000215992
FINAL SINGLE POINT ENERGY      -115.729160200774

CARTESIAN COORDINATES (ANGSTROEM)
---------------------------------
  C     -7.696993    4.870722   -5.249088
  O     -8.000173    5.738073   -6.280450
  H     -7.944936    6.626068   -5.893872
  H     -8.323327    5.038972   -4.420288
  H     -7.952844    3.779827   -5.439397
  H     -6.693924    5.029218   -4.879983
  C     -4.577922    7.549913   -6.259814
  O     -5.822441    8.040496   -5.765704
  H     -6.112907    8.734380   -6.371668
  H     -3.982501    6.991980   -5.461943
  H     -4.767267    6.902026   -7.134338
  H     -3.949636    8.337608   -6.698863

 Multiplicity           Mult            ....    1
 Number of Electrons    NEL             ....   18
 Basis Dimension        Dim             ....  172

ORBITAL ENERGIES
----------------

  NO   OCC          E(Eh)            E(eV)
   0   2.0000     -19.232875      -523.3531
   1   2.0000     -10.321021      -280.8493
   2   2.0000      -1.133373       -30.8407
   3   2.0000      -0.790687       -21.5157
   4   2.0000      -0.611771       -16.6471
   5   2.0000      -0.534154       -14.5351
   6   2.0000      -0.522414       -14.2156
   7   2.0000      -0.438463       -11.9312
   8   2.0000      -0.371616       -10.1122
   9   0.0000       0.094769         2.5788
  10   0.0000       0.122523         3.3340
  11   0.0000       0.147470         4.0129
  12   0.0000       0.182741         4.9726
  13   0.0000       0.188904         5.1403

MULLIKEN ATOMIC CHARGES
-----------------------
   0 C :    0.001655
   1 O :    0.000408
   2 H :   -0.008476
   3 H :   -0.000153
   4 H :   -0.000006
   5 H :   -0.000889
   6 C :   -0.185456
   7 O :   -0.465545
   8 H :    0.315643
   9 H :    0.125091
  10 H :    0.107044
  11 H :    0.110684
Sum of atomic charges:   -0.0000000

LOEWDIN ATOMIC CHARGES
----------------------
   0 C :   -0.002465
   1 O :   -0.002753
   2 H :   -0.012675
   3 H :   -0.000038
   4 H :   -0.000025
   5 H :   -0.000856
   6 C :   -0.389438
   7 O :   -0.074719
   8 H :    0.173208
   9 H :    0.117977
  10 H :    0.096211
  11 H :    0.095572

  Mayer bond orders larger than 0.1
B(  6-C ,  7-O ) :   0.9895 B(  6-C ,  9-H ) :   0.9697 B(  6-C , 10-H ) :   0.9757
B(  6-C , 11-H ) :   0.9731 B(  7-O ,  8-H ) :   0.8971

Dispersion correction           -0.000248812
FINAL SINGLE POINT ENERGY      -115.733244203961

DIPOLE MOMENT
-------------
                                X             Y             Z
Electronic contribution:     -1.58398       0.55769       0.84618
Nuclear contribution   :      1.91240      -0.28747      -1.43657
                        -----------------------------------------
Total Dipole Moment    :      0.32841       0.27022      -0.59039
                        -----------------------------------------
Magnitude (a.u.)       :      0.72762
Magnitude (Debye)      :      1.84947

Rotational constants in cm-1:     4.175331     0.818803     0.779897
Rotational constants in MHz : 125173.277887 24547.093255 23380.727651

                             ****ORCA TERMINATED NORMALLY****
TOTAL RUN TIME: 0 days 0 hours 1 minutes 5 seconds 589 msec
