                         Program Version 4.1.2  - RELEASE  -
|  1> #Run DFT-D3 single point of the dimer
|  2> ! wB97X-D3 def2-TZVP TIGHTSCF CHELPG PMODEL PAL8
|  3>
|  4> %base "9-207_DFT_AB"
|  5>
|  6> %scf
|  7> MaxIter 1000
|  8> end
|  9>
| 10> * xyz 0 1
| 11>   C                      1.711450             -2.320812            7.646247
| 12>   O                      2.272455             -2.607682            6.372565
| 13>   H                      2.541367             -3.494958            6.384661
| 14>   H                      1.660441             -3.176239            8.294267
| 15>   H                      2.251824             -1.474142            8.110296
| 16>   H                      0.626260             -1.930606            7.640705
| 17>   C                      3.917451             -5.779108            5.175737
| 18>   O                      4.158751             -4.867202            6.229157
| 19>   H                      4.600278             -5.328552            6.984526
| 20>   H                      2.938601             -5.695910            4.797986
| 21>   H                      4.565441             -5.731815            4.340338
| 22>   H                      4.066262             -6.756230            5.657678
| 23> *
| 24>
| 25> #Run DFT-D3 single point of the molecule with dimer basis set
| 26> $new_job
| 27> %base "9-207_DFT_A"
| 28> ! wB97X-D3 def2-TZVP TIGHTSCF CHELPG PMODEL
| 29>
| 30> %scf
| 31> MaxIter 1000
| 32> end
| 33>
| 34> * xyz 0 1
| 35>   C                      1.711450             -2.320812            7.646247
| 36>   O                      2.272455             -2.607682            6.372565
| 37>   H                      2.541367             -3.494958            6.384661
| 38>   H                      1.660441             -3.176239            8.294267
| 39>   H                      2.251824             -1.474142            8.110296
| 40>   H                      0.626260             -1.930606            7.640705
| 41>   C                    : 3.917451             -5.779108            5.175737
| 42>   O                    : 4.158751             -4.867202            6.229157
| 43>   H                    : 4.600278             -5.328552            6.984526
| 44>   H                    : 2.938601             -5.695910            4.797986
| 45>   H                    : 4.565441             -5.731815            4.340338
| 46>   H                    : 4.066262             -6.756230            5.657678
| 47> *
| 48>
| 49> #Run DFT-D3 single point of the particle with dimer basis set
| 50> $new_job
| 51> %base "9-207_DFT_B"
| 52> ! wB97X-D3 def2-TZVP TIGHTSCF CHELPG PMODEL
| 53>
| 54> %scf
| 55> MaxIter 1000
| 56> end
| 57>
| 58> * xyz 0 1
| 59>   C                    : 1.711450             -2.320812            7.646247
| 60>   O                    : 2.272455             -2.607682            6.372565
| 61>   H                    : 2.541367             -3.494958            6.384661
| 62>   H                    : 1.660441             -3.176239            8.294267
| 63>   H                    : 2.251824             -1.474142            8.110296
| 64>   H                    : 0.626260             -1.930606            7.640705
| 65>   C                      3.917451             -5.779108            5.175737
| 66>   O                      4.158751             -4.867202            6.229157
| 67>   H                      4.600278             -5.328552            6.984526
| 68>   H                      2.938601             -5.695910            4.797986
| 69>   H                      4.565441             -5.731815            4.340338
| 70>   H                      4.066262             -6.756230            5.657678
| 71> *
| 72>
| 73>                          ****END OF INPUT****
 Total Charge           Charge          ....    0
 Multiplicity           Mult            ....    1
 Number of Electrons    NEL             ....   36
Dispersion correction           -0.001587279
FINAL SINGLE POINT ENERGY      -231.465131579847
Dispersion correction           -0.000266744
FINAL SINGLE POINT ENERGY      -115.730719480078

CARTESIAN COORDINATES (ANGSTROEM)
---------------------------------
  C      1.711450   -2.320812    7.646247
  O      2.272455   -2.607682    6.372565
  H      2.541367   -3.494958    6.384661
  H      1.660441   -3.176239    8.294267
  H      2.251824   -1.474142    8.110296
  H      0.626260   -1.930606    7.640705
  C      3.917451   -5.779108    5.175737
  O      4.158751   -4.867202    6.229157
  H      4.600278   -5.328552    6.984526
  H      2.938601   -5.695910    4.797986
  H      4.565441   -5.731815    4.340338
  H      4.066262   -6.756230    5.657678

 Multiplicity           Mult            ....    1
 Number of Electrons    NEL             ....   18
 Basis Dimension        Dim             ....  172

ORBITAL ENERGIES
----------------

  NO   OCC          E(Eh)            E(eV)
   0   2.0000     -19.230010      -523.2752
   1   2.0000     -10.306063      -280.4422
   2   2.0000      -1.129436       -30.7335
   3   2.0000      -0.799421       -21.7534
   4   2.0000      -0.607976       -16.5439
   5   2.0000      -0.544214       -14.8088
   6   2.0000      -0.540359       -14.7039
   7   2.0000      -0.423080       -11.5126
   8   2.0000      -0.373731       -10.1697
   9   0.0000       0.095795         2.6067
  10   0.0000       0.116223         3.1626
  11   0.0000       0.154594         4.2067
  12   0.0000       0.186557         5.0765
  13   0.0000       0.205688         5.5971

MULLIKEN ATOMIC CHARGES
-----------------------
   0 C :    0.000185
   1 O :    0.000570
   2 H :   -0.006276
   3 H :   -0.001832
   4 H :   -0.000040
   5 H :   -0.000167
   6 C :   -0.149404
   7 O :   -0.482759
   8 H :    0.322352
   9 H :    0.118487
  10 H :    0.105055
  11 H :    0.093830
Sum of atomic charges:   -0.0000000

LOEWDIN ATOMIC CHARGES
----------------------
   0 C :   -0.001992
   1 O :   -0.004908
   2 H :   -0.026523
   3 H :   -0.000573
   4 H :   -0.000023
   5 H :   -0.000031
   6 C :   -0.370694
   7 O :   -0.067341
   8 H :    0.186643
   9 H :    0.095064
  10 H :    0.088569
  11 H :    0.101809

  Mayer bond orders larger than 0.1
B(  6-C ,  7-O ) :   1.0027 B(  6-C ,  9-H ) :   0.9798 B(  6-C , 10-H ) :   0.9679
B(  6-C , 11-H ) :   0.9993 B(  7-O ,  8-H ) :   0.8918

Dispersion correction           -0.000236229
FINAL SINGLE POINT ENERGY      -115.728952297401

DIPOLE MOMENT
-------------
                                X             Y             Z
Electronic contribution:      0.22380       1.34850       1.13375
Nuclear contribution   :     -0.03989      -2.02660      -1.08283
                        -----------------------------------------
Total Dipole Moment    :      0.18391      -0.67810       0.05092
                        -----------------------------------------
Magnitude (a.u.)       :      0.70444
Magnitude (Debye)      :      1.79056

Rotational constants in cm-1:     4.450718     0.836929     0.799817
Rotational constants in MHz : 133429.181711 25090.488448 23977.901645

                             ****ORCA TERMINATED NORMALLY****
TOTAL RUN TIME: 0 days 0 hours 0 minutes 42 seconds 878 msec
