                         Program Version 4.1.2  - RELEASE  -
|  1> #Run DFT-D3 single point of the dimer
|  2> ! wB97X-D3 def2-TZVP TIGHTSCF CHELPG PMODEL PAL8
|  3>
|  4> %base "2-152_DFT_AB"
|  5>
|  6> %scf
|  7> MaxIter 1000
|  8> end
|  9>
| 10> * xyz 0 1
| 11>   C                      -2.222377            -9.165229            -5.734418
| 12>   O                      -1.041588            -9.092182            -6.516666
| 13>   H                      -0.308865            -9.269490            -5.964832
| 14>   H                      -2.538768            -10.195934           -5.512925
| 15>   H                      -2.087220            -8.802993            -4.707319
| 16>   H                      -3.014672            -8.630073            -6.223898
| 17>   C                      -1.598563            -9.849119            -9.847761
| 18>   O                      -0.639537            -9.069205            -9.064952
| 19>   H                      -0.058667            -8.743097            -9.773553
| 20>   H                      -1.098768            -10.673463           -10.308640
| 21>   H                      -2.440803            -10.122738           -9.114453
| 22>   H                      -2.006305            -9.237265            -10.643936
| 23> *
| 24>
| 25> #Run DFT-D3 single point of the molecule with dimer basis set
| 26> $new_job
| 27> %base "2-152_DFT_A"
| 28> ! wB97X-D3 def2-TZVP TIGHTSCF CHELPG PMODEL
| 29>
| 30> %scf
| 31> MaxIter 1000
| 32> end
| 33>
| 34> * xyz 0 1
| 35>   C                      -2.222377            -9.165229            -5.734418
| 36>   O                      -1.041588            -9.092182            -6.516666
| 37>   H                      -0.308865            -9.269490            -5.964832
| 38>   H                      -2.538768            -10.195934           -5.512925
| 39>   H                      -2.087220            -8.802993            -4.707319
| 40>   H                      -3.014672            -8.630073            -6.223898
| 41>   C                    : -1.598563            -9.849119            -9.847761
| 42>   O                    : -0.639537            -9.069205            -9.064952
| 43>   H                    : -0.058667            -8.743097            -9.773553
| 44>   H                    : -1.098768            -10.673463           -10.308640
| 45>   H                    : -2.440803            -10.122738           -9.114453
| 46>   H                    : -2.006305            -9.237265            -10.643936
| 47> *
| 48>
| 49> #Run DFT-D3 single point of the particle with dimer basis set
| 50> $new_job
| 51> %base "2-152_DFT_B"
| 52> ! wB97X-D3 def2-TZVP TIGHTSCF CHELPG PMODEL
| 53>
| 54> %scf
| 55> MaxIter 1000
| 56> end
| 57>
| 58> * xyz 0 1
| 59>   C                    : -2.222377            -9.165229            -5.734418
| 60>   O                    : -1.041588            -9.092182            -6.516666
| 61>   H                    : -0.308865            -9.269490            -5.964832
| 62>   H                    : -2.538768            -10.195934           -5.512925
| 63>   H                    : -2.087220            -8.802993            -4.707319
| 64>   H                    : -3.014672            -8.630073            -6.223898
| 65>   C                      -1.598563            -9.849119            -9.847761
| 66>   O                      -0.639537            -9.069205            -9.064952
| 67>   H                      -0.058667            -8.743097            -9.773553
| 68>   H                      -1.098768            -10.673463           -10.308640
| 69>   H                      -2.440803            -10.122738           -9.114453
| 70>   H                      -2.006305            -9.237265            -10.643936
| 71> *
| 72>
| 73>                          ****END OF INPUT****
 Total Charge           Charge          ....    0
 Multiplicity           Mult            ....    1
 Number of Electrons    NEL             ....   36
Dispersion correction           -0.001710155
FINAL SINGLE POINT ENERGY      -231.456765347569
Dispersion correction           -0.000245884
FINAL SINGLE POINT ENERGY      -115.734345608733

CARTESIAN COORDINATES (ANGSTROEM)
---------------------------------
  C     -2.222377   -9.165229   -5.734418
  O     -1.041588   -9.092182   -6.516666
  H     -0.308865   -9.269490   -5.964832
  H     -2.538768  -10.195934   -5.512925
  H     -2.087220   -8.802993   -4.707319
  H     -3.014672   -8.630073   -6.223898
  C     -1.598563   -9.849119   -9.847761
  O     -0.639537   -9.069205   -9.064952
  H     -0.058667   -8.743097   -9.773553
  H     -1.098768  -10.673463  -10.308640
  H     -2.440803  -10.122738   -9.114453
  H     -2.006305   -9.237265  -10.643936

 Multiplicity           Mult            ....    1
 Number of Electrons    NEL             ....   18
 Basis Dimension        Dim             ....  172

ORBITAL ENERGIES
----------------

  NO   OCC          E(Eh)            E(eV)
   0   2.0000     -19.231121      -523.3054
   1   2.0000     -10.318985      -280.7939
   2   2.0000      -1.123703       -30.5775
   3   2.0000      -0.790749       -21.5174
   4   2.0000      -0.602763       -16.4020
   5   2.0000      -0.542989       -14.7755
   6   2.0000      -0.508623       -13.8403
   7   2.0000      -0.445950       -12.1349
   8   2.0000      -0.374912       -10.2019
   9   0.0000       0.092484         2.5166
  10   0.0000       0.119359         3.2479
  11   0.0000       0.151504         4.1226
  12   0.0000       0.179072         4.8728
  13   0.0000       0.194107         5.2819

MULLIKEN ATOMIC CHARGES
-----------------------
   0 C :   -0.001422
   1 O :    0.001485
   2 H :   -0.002016
   3 H :   -0.000254
   4 H :   -0.000128
   5 H :   -0.000193
   6 C :   -0.183704
   7 O :   -0.464894
   8 H :    0.304900
   9 H :    0.113369
  10 H :    0.123083
  11 H :    0.109774
Sum of atomic charges:    0.0000000

LOEWDIN ATOMIC CHARGES
----------------------
   0 C :   -0.002692
   1 O :   -0.020420
   2 H :   -0.002400
   3 H :   -0.000089
   4 H :   -0.000040
   5 H :   -0.000278
   6 C :   -0.354220
   7 O :   -0.097262
   8 H :    0.171647
   9 H :    0.090139
  10 H :    0.122425
  11 H :    0.093190

  Mayer bond orders larger than 0.1
B(  6-C ,  7-O ) :   0.9912 B(  6-C ,  9-H ) :   0.9722 B(  6-C , 10-H ) :   0.9731
B(  6-C , 11-H ) :   0.9754 B(  7-O ,  8-H ) :   0.9065

Dispersion correction           -0.000226664
FINAL SINGLE POINT ENERGY      -115.731081806699

DIPOLE MOMENT
-------------
                                X             Y             Z
Electronic contribution:      1.10490       0.83504       1.05608
Nuclear contribution   :     -1.14261      -0.94749      -1.82948
                        -----------------------------------------
Total Dipole Moment    :     -0.03771      -0.11246      -0.77340
                        -----------------------------------------
Magnitude (a.u.)       :      0.78245
Magnitude (Debye)      :      1.98882

Rotational constants in cm-1:     4.051866     0.807471     0.766745
Rotational constants in MHz : 121471.878244 24207.376819 22986.422845

                             ****ORCA TERMINATED NORMALLY****
TOTAL RUN TIME: 0 days 0 hours 6 minutes 22 seconds 361 msec
