                         Program Version 4.1.2  - RELEASE  -
|  1> #Run DFT-D3 single point of the dimer
|  2> ! wB97X-D3 def2-TZVP TIGHTSCF CHELPG PMODEL PAL8
|  3>
|  4> %base "1-58_DFT_AB"
|  5>
|  6> %scf
|  7> MaxIter 1000
|  8> end
|  9>
| 10> * xyz 0 1
| 11>   C                      -2.795325            9.217840             5.555766
| 12>   O                      -3.946272            9.686863             6.213946
| 13>   H                      -3.969267            9.351075             7.120477
| 14>   H                      -2.991524            9.209093             4.464861
| 15>   H                      -1.885058            9.769403             5.855998
| 16>   H                      -2.593840            8.207868             5.831886
| 17>   C                      -5.980613            7.120034             8.240921
| 18>   O                      -6.503045            7.926275             9.288026
| 19>   H                      -5.881209            8.004546             9.989049
| 20>   H                      -6.668404            6.970982             7.350147
| 21>   H                      -5.030610            7.453998             7.889338
| 22>   H                      -5.813076            6.068493             8.513422
| 23> *
| 24>
| 25> #Run DFT-D3 single point of the molecule with dimer basis set
| 26> $new_job
| 27> %base "1-58_DFT_A"
| 28> ! wB97X-D3 def2-TZVP TIGHTSCF CHELPG PMODEL
| 29>
| 30> %scf
| 31> MaxIter 1000
| 32> end
| 33>
| 34> * xyz 0 1
| 35>   C                      -2.795325            9.217840             5.555766
| 36>   O                      -3.946272            9.686863             6.213946
| 37>   H                      -3.969267            9.351075             7.120477
| 38>   H                      -2.991524            9.209093             4.464861
| 39>   H                      -1.885058            9.769403             5.855998
| 40>   H                      -2.593840            8.207868             5.831886
| 41>   C                    : -5.980613            7.120034             8.240921
| 42>   O                    : -6.503045            7.926275             9.288026
| 43>   H                    : -5.881209            8.004546             9.989049
| 44>   H                    : -6.668404            6.970982             7.350147
| 45>   H                    : -5.030610            7.453998             7.889338
| 46>   H                    : -5.813076            6.068493             8.513422
| 47> *
| 48>
| 49> #Run DFT-D3 single point of the particle with dimer basis set
| 50> $new_job
| 51> %base "1-58_DFT_B"
| 52> ! wB97X-D3 def2-TZVP TIGHTSCF CHELPG PMODEL
| 53>
| 54> %scf
| 55> MaxIter 1000
| 56> end
| 57>
| 58> * xyz 0 1
| 59>   C                    : -2.795325            9.217840             5.555766
| 60>   O                    : -3.946272            9.686863             6.213946
| 61>   H                    : -3.969267            9.351075             7.120477
| 62>   H                    : -2.991524            9.209093             4.464861
| 63>   H                    : -1.885058            9.769403             5.855998
| 64>   H                    : -2.593840            8.207868             5.831886
| 65>   C                      -5.980613            7.120034             8.240921
| 66>   O                      -6.503045            7.926275             9.288026
| 67>   H                      -5.881209            8.004546             9.989049
| 68>   H                      -6.668404            6.970982             7.350147
| 69>   H                      -5.030610            7.453998             7.889338
| 70>   H                      -5.813076            6.068493             8.513422
| 71> *
| 72>
| 73>                          ****END OF INPUT****
 Total Charge           Charge          ....    0
 Multiplicity           Mult            ....    1
 Number of Electrons    NEL             ....   36
Dispersion correction           -0.001407822
FINAL SINGLE POINT ENERGY      -231.466010318787
Dispersion correction           -0.000237326
FINAL SINGLE POINT ENERGY      -115.735081367770

CARTESIAN COORDINATES (ANGSTROEM)
---------------------------------
  C     -2.795325    9.217840    5.555766
  O     -3.946272    9.686863    6.213946
  H     -3.969267    9.351075    7.120477
  H     -2.991524    9.209093    4.464861
  H     -1.885058    9.769403    5.855998
  H     -2.593840    8.207868    5.831886
  C     -5.980613    7.120034    8.240921
  O     -6.503045    7.926275    9.288026
  H     -5.881209    8.004546    9.989049
  H     -6.668404    6.970982    7.350147
  H     -5.030610    7.453998    7.889338
  H     -5.813076    6.068493    8.513422

 Multiplicity           Mult            ....    1
 Number of Electrons    NEL             ....   18
 Basis Dimension        Dim             ....  172

ORBITAL ENERGIES
----------------

  NO   OCC          E(Eh)            E(eV)
   0   2.0000     -19.231286      -523.3099
   1   2.0000     -10.316961      -280.7388
   2   2.0000      -1.137800       -30.9611
   3   2.0000      -0.800101       -21.7719
   4   2.0000      -0.617692       -16.8083
   5   2.0000      -0.541317       -14.7300
   6   2.0000      -0.521535       -14.1917
   7   2.0000      -0.431000       -11.7281
   8   2.0000      -0.375238       -10.2107
   9   0.0000       0.085257         2.3200
  10   0.0000       0.120882         3.2894
  11   0.0000       0.148301         4.0355
  12   0.0000       0.174664         4.7528
  13   0.0000       0.187950         5.1144

MULLIKEN ATOMIC CHARGES
-----------------------
   0 C :   -0.001473
   1 O :   -0.000303
   2 H :    0.003371
   3 H :   -0.000028
   4 H :    0.000036
   5 H :    0.000239
   6 C :   -0.160461
   7 O :   -0.476379
   8 H :    0.314574
   9 H :    0.120801
  10 H :    0.096850
  11 H :    0.102773
Sum of atomic charges:    0.0000000

LOEWDIN ATOMIC CHARGES
----------------------
   0 C :   -0.000792
   1 O :   -0.000789
   2 H :   -0.004109
   3 H :   -0.000007
   4 H :   -0.000003
   5 H :   -0.000353
   6 C :   -0.383186
   7 O :   -0.069107
   8 H :    0.156775
   9 H :    0.118994
  10 H :    0.088345
  11 H :    0.094233

  Mayer bond orders larger than 0.1
B(  6-C ,  7-O ) :   0.9964 B(  6-C ,  9-H ) :   0.9726 B(  6-C , 10-H ) :   0.9760
B(  6-C , 11-H ) :   0.9775 B(  7-O ,  8-H ) :   0.8994

Dispersion correction           -0.000265396
FINAL SINGLE POINT ENERGY      -115.731150001148

DIPOLE MOMENT
-------------
                                X             Y             Z
Electronic contribution:     -0.78429       1.20469       1.34848
Nuclear contribution   :      1.40878      -1.49009      -1.31637
                        -----------------------------------------
Total Dipole Moment    :      0.62448      -0.28540       0.03211
                        -----------------------------------------
Magnitude (a.u.)       :      0.68736
Magnitude (Debye)      :      1.74712

Rotational constants in cm-1:     4.517753     0.808193     0.777623
Rotational constants in MHz : 135438.825187 24229.026054 23312.548466

                             ****ORCA TERMINATED NORMALLY****
TOTAL RUN TIME: 0 days 0 hours 5 minutes 46 seconds 444 msec
