                         Program Version 4.1.2  - RELEASE  -
|  1> #Run DFT-D3 single point of the dimer
|  2> ! wB97X-D3 def2-TZVP TIGHTSCF CHELPG PMODEL PAL8
|  3>
|  4> %base "6-173_DFT_AB"
|  5>
|  6> %scf
|  7> MaxIter 1000
|  8> end
|  9>
| 10> * xyz 0 1
| 11>   C                      -2.954584            -6.359247            -7.681066
| 12>   O                      -2.860629            -6.598741            -6.275569
| 13>   H                      -3.711140            -6.456979            -5.913500
| 14>   H                      -2.228339            -6.869746            -8.342924
| 15>   H                      -4.042323            -6.698064            -7.901465
| 16>   H                      -2.942604            -5.298880            -7.839737
| 17>   C                      -6.599554            -6.042447            -7.483774
| 18>   O                      -6.237968            -7.365187            -7.023287
| 19>   H                      -6.486182            -7.464170            -6.141548
| 20>   H                      -5.802286            -5.308373            -7.271396
| 21>   H                      -6.682115            -6.133184            -8.605517
| 22>   H                      -7.524278            -5.712223            -7.081601
| 23> *
| 24>
| 25> #Run DFT-D3 single point of the molecule with dimer basis set
| 26> $new_job
| 27> %base "6-173_DFT_A"
| 28> ! wB97X-D3 def2-TZVP TIGHTSCF CHELPG PMODEL
| 29>
| 30> %scf
| 31> MaxIter 1000
| 32> end
| 33>
| 34> * xyz 0 1
| 35>   C                      -2.954584            -6.359247            -7.681066
| 36>   O                      -2.860629            -6.598741            -6.275569
| 37>   H                      -3.711140            -6.456979            -5.913500
| 38>   H                      -2.228339            -6.869746            -8.342924
| 39>   H                      -4.042323            -6.698064            -7.901465
| 40>   H                      -2.942604            -5.298880            -7.839737
| 41>   C                    : -6.599554            -6.042447            -7.483774
| 42>   O                    : -6.237968            -7.365187            -7.023287
| 43>   H                    : -6.486182            -7.464170            -6.141548
| 44>   H                    : -5.802286            -5.308373            -7.271396
| 45>   H                    : -6.682115            -6.133184            -8.605517
| 46>   H                    : -7.524278            -5.712223            -7.081601
| 47> *
| 48>
| 49> #Run DFT-D3 single point of the particle with dimer basis set
| 50> $new_job
| 51> %base "6-173_DFT_B"
| 52> ! wB97X-D3 def2-TZVP TIGHTSCF CHELPG PMODEL
| 53>
| 54> %scf
| 55> MaxIter 1000
| 56> end
| 57>
| 58> * xyz 0 1
| 59>   C                    : -2.954584            -6.359247            -7.681066
| 60>   O                    : -2.860629            -6.598741            -6.275569
| 61>   H                    : -3.711140            -6.456979            -5.913500
| 62>   H                    : -2.228339            -6.869746            -8.342924
| 63>   H                    : -4.042323            -6.698064            -7.901465
| 64>   H                    : -2.942604            -5.298880            -7.839737
| 65>   C                      -6.599554            -6.042447            -7.483774
| 66>   O                      -6.237968            -7.365187            -7.023287
| 67>   H                      -6.486182            -7.464170            -6.141548
| 68>   H                      -5.802286            -5.308373            -7.271396
| 69>   H                      -6.682115            -6.133184            -8.605517
| 70>   H                      -7.524278            -5.712223            -7.081601
| 71> *
| 72>
| 73>                          ****END OF INPUT****
 Total Charge           Charge          ....    0
 Multiplicity           Mult            ....    1
 Number of Electrons    NEL             ....   36
Dispersion correction           -0.002231041
FINAL SINGLE POINT ENERGY      -231.462395538076
Dispersion correction           -0.000226732
FINAL SINGLE POINT ENERGY      -115.726215753604

CARTESIAN COORDINATES (ANGSTROEM)
---------------------------------
  C     -2.954584   -6.359247   -7.681066
  O     -2.860629   -6.598741   -6.275569
  H     -3.711140   -6.456979   -5.913500
  H     -2.228339   -6.869746   -8.342924
  H     -4.042323   -6.698064   -7.901465
  H     -2.942604   -5.298880   -7.839737
  C     -6.599554   -6.042447   -7.483774
  O     -6.237968   -7.365187   -7.023287
  H     -6.486182   -7.464170   -6.141548
  H     -5.802286   -5.308373   -7.271396
  H     -6.682115   -6.133184   -8.605517
  H     -7.524278   -5.712223   -7.081601

 Multiplicity           Mult            ....    1
 Number of Electrons    NEL             ....   18
 Basis Dimension        Dim             ....  172

ORBITAL ENERGIES
----------------

  NO   OCC          E(Eh)            E(eV)
   0   2.0000     -19.225863      -523.1623
   1   2.0000     -10.317585      -280.7557
   2   2.0000      -1.133709       -30.8498
   3   2.0000      -0.799702       -21.7610
   4   2.0000      -0.612387       -16.6639
   5   2.0000      -0.540084       -14.6964
   6   2.0000      -0.518808       -14.1175
   7   2.0000      -0.437817       -11.9136
   8   2.0000      -0.376130       -10.2350
   9   0.0000       0.094180         2.5628
  10   0.0000       0.130728         3.5573
  11   0.0000       0.152328         4.1451
  12   0.0000       0.174280         4.7424
  13   0.0000       0.192333         5.2337

MULLIKEN ATOMIC CHARGES
-----------------------
   0 C :    0.000174
   1 O :    0.000124
   2 H :   -0.006073
   3 H :    0.000412
   4 H :    0.005273
   5 H :   -0.001061
   6 C :   -0.173814
   7 O :   -0.476327
   8 H :    0.304188
   9 H :    0.107789
  10 H :    0.121509
  11 H :    0.117805
Sum of atomic charges:   -0.0000000

LOEWDIN ATOMIC CHARGES
----------------------
   0 C :   -0.007110
   1 O :   -0.000703
   2 H :   -0.004694
   3 H :   -0.000014
   4 H :   -0.011339
   5 H :   -0.000628
   6 C :   -0.352283
   7 O :   -0.068524
   8 H :    0.137533
   9 H :    0.100835
  10 H :    0.118019
  11 H :    0.088909

  Mayer bond orders larger than 0.1
B(  6-C ,  7-O ) :   0.9876 B(  6-C ,  9-H ) :   0.9725 B(  6-C , 10-H ) :   0.9804
B(  6-C , 11-H ) :   0.9743 B(  7-O ,  8-H ) :   0.9102

Dispersion correction           -0.000255492
FINAL SINGLE POINT ENERGY      -115.733788988926

DIPOLE MOMENT
-------------
                                X             Y             Z
Electronic contribution:      0.40827      -1.61820       0.55979
Nuclear contribution   :     -0.75407       2.10139      -0.17500
                        -----------------------------------------
Total Dipole Moment    :     -0.34580       0.48319       0.38479
                        -----------------------------------------
Magnitude (a.u.)       :      0.70789
Magnitude (Debye)      :      1.79931

Rotational constants in cm-1:     4.302602     0.803309     0.777092
Rotational constants in MHz : 128988.777827 24082.611632 23296.640853

                             ****ORCA TERMINATED NORMALLY****
TOTAL RUN TIME: 0 days 0 hours 1 minutes 7 seconds 20 msec
