                         Program Version 4.1.2  - RELEASE  -
|  1> #Run DFT-D3 single point of the dimer
|  2> ! wB97X-D3 def2-TZVP TIGHTSCF CHELPG PMODEL PAL8
|  3>
|  4> %base "16-92_DFT_AB"
|  5>
|  6> %scf
|  7> MaxIter 1000
|  8> end
|  9>
| 10> * xyz 0 1
| 11>   C                      7.892758             10.821007            -2.226867
| 12>   O                      8.272880             9.742820             -1.404930
| 13>   H                      8.541633             10.062633            -0.501364
| 14>   H                      7.192416             10.442952            -2.924750
| 15>   H                      7.429778             11.576646            -1.600123
| 16>   H                      8.748379             11.363983            -2.592521
| 17>   C                      5.167541             7.774705             -2.448051
| 18>   O                      4.813699             6.581792             -3.159566
| 19>   H                      4.096216             6.844985             -3.772168
| 20>   H                      4.291286             8.217369             -2.025389
| 21>   H                      5.897177             7.526224             -1.631566
| 22>   H                      5.664088             8.484256             -3.108223
| 23> *
| 24>
| 25> #Run DFT-D3 single point of the molecule with dimer basis set
| 26> $new_job
| 27> %base "16-92_DFT_A"
| 28> ! wB97X-D3 def2-TZVP TIGHTSCF CHELPG PMODEL
| 29>
| 30> %scf
| 31> MaxIter 1000
| 32> end
| 33>
| 34> * xyz 0 1
| 35>   C                      7.892758             10.821007            -2.226867
| 36>   O                      8.272880             9.742820             -1.404930
| 37>   H                      8.541633             10.062633            -0.501364
| 38>   H                      7.192416             10.442952            -2.924750
| 39>   H                      7.429778             11.576646            -1.600123
| 40>   H                      8.748379             11.363983            -2.592521
| 41>   C                    : 5.167541             7.774705             -2.448051
| 42>   O                    : 4.813699             6.581792             -3.159566
| 43>   H                    : 4.096216             6.844985             -3.772168
| 44>   H                    : 4.291286             8.217369             -2.025389
| 45>   H                    : 5.897177             7.526224             -1.631566
| 46>   H                    : 5.664088             8.484256             -3.108223
| 47> *
| 48>
| 49> #Run DFT-D3 single point of the particle with dimer basis set
| 50> $new_job
| 51> %base "16-92_DFT_B"
| 52> ! wB97X-D3 def2-TZVP TIGHTSCF CHELPG PMODEL
| 53>
| 54> %scf
| 55> MaxIter 1000
| 56> end
| 57>
| 58> * xyz 0 1
| 59>   C                    : 7.892758             10.821007            -2.226867
| 60>   O                    : 8.272880             9.742820             -1.404930
| 61>   H                    : 8.541633             10.062633            -0.501364
| 62>   H                    : 7.192416             10.442952            -2.924750
| 63>   H                    : 7.429778             11.576646            -1.600123
| 64>   H                    : 8.748379             11.363983            -2.592521
| 65>   C                      5.167541             7.774705             -2.448051
| 66>   O                      4.813699             6.581792             -3.159566
| 67>   H                      4.096216             6.844985             -3.772168
| 68>   H                      4.291286             8.217369             -2.025389
| 69>   H                      5.897177             7.526224             -1.631566
| 70>   H                      5.664088             8.484256             -3.108223
| 71> *
| 72>
| 73>                          ****END OF INPUT****
 Total Charge           Charge          ....    0
 Multiplicity           Mult            ....    1
 Number of Electrons    NEL             ....   36
Dispersion correction           -0.001441875
FINAL SINGLE POINT ENERGY      -231.466835796537
Dispersion correction           -0.000224679
FINAL SINGLE POINT ENERGY      -115.730628418030

CARTESIAN COORDINATES (ANGSTROEM)
---------------------------------
  C      7.892758   10.821007   -2.226867
  O      8.272880    9.742820   -1.404930
  H      8.541633   10.062633   -0.501364
  H      7.192416   10.442952   -2.924750
  H      7.429778   11.576646   -1.600123
  H      8.748379   11.363983   -2.592521
  C      5.167541    7.774705   -2.448051
  O      4.813699    6.581792   -3.159566
  H      4.096216    6.844985   -3.772168
  H      4.291286    8.217369   -2.025389
  H      5.897177    7.526224   -1.631566
  H      5.664088    8.484256   -3.108223

 Multiplicity           Mult            ....    1
 Number of Electrons    NEL             ....   18
 Basis Dimension        Dim             ....  172

ORBITAL ENERGIES
----------------

  NO   OCC          E(Eh)            E(eV)
   0   2.0000     -19.230644      -523.2924
   1   2.0000     -10.314040      -280.6593
   2   2.0000      -1.127348       -30.6767
   3   2.0000      -0.792621       -21.5683
   4   2.0000      -0.603967       -16.4348
   5   2.0000      -0.544628       -14.8201
   6   2.0000      -0.520944       -14.1756
   7   2.0000      -0.435426       -11.8485
   8   2.0000      -0.373579       -10.1656
   9   0.0000       0.083407         2.2696
  10   0.0000       0.113894         3.0992
  11   0.0000       0.153584         4.1792
  12   0.0000       0.159586         4.3426
  13   0.0000       0.192017         5.2251

MULLIKEN ATOMIC CHARGES
-----------------------
   0 C :    0.000716
   1 O :   -0.000073
   2 H :   -0.000045
   3 H :   -0.002472
   4 H :   -0.000006
   5 H :   -0.000071
   6 C :   -0.166509
   7 O :   -0.477168
   8 H :    0.313406
   9 H :    0.106956
  10 H :    0.119034
  11 H :    0.106232
Sum of atomic charges:    0.0000000

LOEWDIN ATOMIC CHARGES
----------------------
   0 C :   -0.002269
   1 O :   -0.000495
   2 H :   -0.000055
   3 H :   -0.003889
   4 H :   -0.000018
   5 H :   -0.000017
   6 C :   -0.372114
   7 O :   -0.101272
   8 H :    0.178672
   9 H :    0.090019
  10 H :    0.115717
  11 H :    0.095722

  Mayer bond orders larger than 0.1
B(  6-C ,  7-O ) :   0.9897 B(  6-C ,  9-H ) :   0.9783 B(  6-C , 10-H ) :   0.9697
B(  6-C , 11-H ) :   0.9776 B(  7-O ,  8-H ) :   0.8991

Dispersion correction           -0.000234363
FINAL SINGLE POINT ENERGY      -115.735272148331

DIPOLE MOMENT
-------------
                                X             Y             Z
Electronic contribution:     -0.37676      -1.55801      -0.80298
Nuclear contribution   :      0.06910       2.20512       0.71719
                        -----------------------------------------
Total Dipole Moment    :     -0.30766       0.64711      -0.08579
                        -----------------------------------------
Magnitude (a.u.)       :      0.72164
Magnitude (Debye)      :      1.83427

Rotational constants in cm-1:     4.210677     0.818985     0.786179
Rotational constants in MHz : 126232.929438 24552.538410 23569.043049

                             ****ORCA TERMINATED NORMALLY****
TOTAL RUN TIME: 0 days 0 hours 0 minutes 53 seconds 77 msec
