                         Program Version 4.1.2  - RELEASE  -
|  1> #Run DFT-D3 single point of the dimer
|  2> ! wB97X-D3 def2-TZVP TIGHTSCF CHELPG PMODEL PAL8
|  3>
|  4> %base "13-0_DFT_AB"
|  5>
|  6> %scf
|  7> MaxIter 1000
|  8> end
|  9>
| 10> * xyz 0 1
| 11>   C                      -2.257604            -6.993449            -0.918277
| 12>   O                      -2.080523            -8.395982            -0.827367
| 13>   H                      -2.059170            -8.743386            0.111713
| 14>   H                      -1.423130            -6.407729            -0.539471
| 15>   H                      -2.370768            -6.724110            -2.003700
| 16>   H                      -3.147931            -6.621619            -0.383193
| 17>   C                      -2.615448            -10.755304           2.628873
| 18>   O                      -2.908532            -9.997534            1.453146
| 19>   H                      -3.393054            -10.558160           0.797230
| 20>   H                      -3.465573            -11.407798           2.994486
| 21>   H                      -1.643496            -11.228046           2.392343
| 22>   H                      -2.479222            -10.048655           3.452952
| 23> *
| 24>
| 25> #Run DFT-D3 single point of the molecule with dimer basis set
| 26> $new_job
| 27> %base "13-0_DFT_A"
| 28> ! wB97X-D3 def2-TZVP TIGHTSCF CHELPG PMODEL
| 29>
| 30> %scf
| 31> MaxIter 1000
| 32> end
| 33>
| 34> * xyz 0 1
| 35>   C                      -2.257604            -6.993449            -0.918277
| 36>   O                      -2.080523            -8.395982            -0.827367
| 37>   H                      -2.059170            -8.743386            0.111713
| 38>   H                      -1.423130            -6.407729            -0.539471
| 39>   H                      -2.370768            -6.724110            -2.003700
| 40>   H                      -3.147931            -6.621619            -0.383193
| 41>   C                    : -2.615448            -10.755304           2.628873
| 42>   O                    : -2.908532            -9.997534            1.453146
| 43>   H                    : -3.393054            -10.558160           0.797230
| 44>   H                    : -3.465573            -11.407798           2.994486
| 45>   H                    : -1.643496            -11.228046           2.392343
| 46>   H                    : -2.479222            -10.048655           3.452952
| 47> *
| 48>
| 49> #Run DFT-D3 single point of the particle with dimer basis set
| 50> $new_job
| 51> %base "13-0_DFT_B"
| 52> ! wB97X-D3 def2-TZVP TIGHTSCF CHELPG PMODEL
| 53>
| 54> %scf
| 55> MaxIter 1000
| 56> end
| 57>
| 58> * xyz 0 1
| 59>   C                    : -2.257604            -6.993449            -0.918277
| 60>   O                    : -2.080523            -8.395982            -0.827367
| 61>   H                    : -2.059170            -8.743386            0.111713
| 62>   H                    : -1.423130            -6.407729            -0.539471
| 63>   H                    : -2.370768            -6.724110            -2.003700
| 64>   H                    : -3.147931            -6.621619            -0.383193
| 65>   C                      -2.615448            -10.755304           2.628873
| 66>   O                      -2.908532            -9.997534            1.453146
| 67>   H                      -3.393054            -10.558160           0.797230
| 68>   H                      -3.465573            -11.407798           2.994486
| 69>   H                      -1.643496            -11.228046           2.392343
| 70>   H                      -2.479222            -10.048655           3.452952
| 71> *
| 72>
| 73>                          ****END OF INPUT****
 Total Charge           Charge          ....    0
 Multiplicity           Mult            ....    1
 Number of Electrons    NEL             ....   36
Dispersion correction           -0.001426489
FINAL SINGLE POINT ENERGY      -231.473578521050
Dispersion correction           -0.000274567
FINAL SINGLE POINT ENERGY      -115.734206797162

CARTESIAN COORDINATES (ANGSTROEM)
---------------------------------
  C     -2.257604   -6.993449   -0.918277
  O     -2.080523   -8.395982   -0.827367
  H     -2.059170   -8.743386    0.111713
  H     -1.423130   -6.407729   -0.539471
  H     -2.370768   -6.724110   -2.003700
  H     -3.147931   -6.621619   -0.383193
  C     -2.615448  -10.755304    2.628873
  O     -2.908532   -9.997534    1.453146
  H     -3.393054  -10.558160    0.797230
  H     -3.465573  -11.407798    2.994486
  H     -1.643496  -11.228046    2.392343
  H     -2.479222  -10.048655    3.452952

 Multiplicity           Mult            ....    1
 Number of Electrons    NEL             ....   18
 Basis Dimension        Dim             ....  172

ORBITAL ENERGIES
----------------

  NO   OCC          E(Eh)            E(eV)
   0   2.0000     -19.229806      -523.2696
   1   2.0000     -10.319267      -280.8015
   2   2.0000      -1.124206       -30.5912
   3   2.0000      -0.790018       -21.4975
   4   2.0000      -0.598015       -16.2728
   5   2.0000      -0.548865       -14.9354
   6   2.0000      -0.519011       -14.1230
   7   2.0000      -0.425993       -11.5919
   8   2.0000      -0.371931       -10.1208
   9   0.0000       0.097307         2.6479
  10   0.0000       0.118662         3.2290
  11   0.0000       0.151542         4.1237
  12   0.0000       0.186485         5.0745
  13   0.0000       0.201459         5.4820

MULLIKEN ATOMIC CHARGES
-----------------------
   0 C :    0.000635
   1 O :   -0.000066
   2 H :   -0.011573
   3 H :   -0.000093
   4 H :   -0.000032
   5 H :   -0.000621
   6 C :   -0.162230
   7 O :   -0.481684
   8 H :    0.317645
   9 H :    0.107913
  10 H :    0.111455
  11 H :    0.118652
Sum of atomic charges:    0.0000000

LOEWDIN ATOMIC CHARGES
----------------------
   0 C :   -0.001044
   1 O :   -0.005090
   2 H :   -0.036406
   3 H :   -0.000011
   4 H :   -0.000013
   5 H :   -0.000229
   6 C :   -0.381956
   7 O :   -0.074052
   8 H :    0.184384
   9 H :    0.105008
  10 H :    0.102833
  11 H :    0.106575

  Mayer bond orders larger than 0.1
B(  6-C ,  7-O ) :   0.9829 B(  6-C ,  9-H ) :   0.9646 B(  6-C , 10-H ) :   0.9837
B(  6-C , 11-H ) :   0.9733 B(  7-O ,  8-H ) :   0.8917

Dispersion correction           -0.000258058
FINAL SINGLE POINT ENERGY      -115.730855024688

DIPOLE MOMENT
-------------
                                X             Y             Z
Electronic contribution:     -0.32269       0.95368      -1.38570
Nuclear contribution   :      0.12115      -1.59579       1.47429
                        -----------------------------------------
Total Dipole Moment    :     -0.20154      -0.64211       0.08859
                        -----------------------------------------
Magnitude (a.u.)       :      0.67880
Magnitude (Debye)      :      1.72538

Rotational constants in cm-1:     4.097339     0.812048     0.793014
Rotational constants in MHz : 122835.134256 24344.596450 23773.964422

                             ****ORCA TERMINATED NORMALLY****
TOTAL RUN TIME: 0 days 0 hours 1 minutes 2 seconds 909 msec
