                         Program Version 4.1.2  - RELEASE  -
|  1> #Run DFT-D3 single point of the dimer
|  2> ! wB97X-D3 def2-TZVP TIGHTSCF CHELPG PMODEL PAL8
|  3>
|  4> %base "22-126_DFT_AB"
|  5>
|  6> %scf
|  7> MaxIter 1000
|  8> end
|  9>
| 10> * xyz 0 1
| 11>   C                      -0.749633            2.416253             -3.313901
| 12>   O                      -0.861180            1.452458             -2.250456
| 13>   H                      0.018248             1.215378             -2.084135
| 14>   H                      -1.723585            2.657808             -3.810069
| 15>   H                      -0.325219            3.272619             -2.879507
| 16>   H                      -0.054227            2.091398             -4.053934
| 17>   C                      -4.746335            2.880887             -0.234083
| 18>   O                      -3.568935            2.925148             0.647374
| 19>   H                      -2.796051            2.897875             0.080328
| 20>   H                      -5.155526            3.875728             -0.398932
| 21>   H                      -4.485468            2.291806             -1.159059
| 22>   H                      -5.556382            2.300064             0.263460
| 23> *
| 24>
| 25> #Run DFT-D3 single point of the molecule with dimer basis set
| 26> $new_job
| 27> %base "22-126_DFT_A"
| 28> ! wB97X-D3 def2-TZVP TIGHTSCF CHELPG PMODEL
| 29>
| 30> %scf
| 31> MaxIter 1000
| 32> end
| 33>
| 34> * xyz 0 1
| 35>   C                      -0.749633            2.416253             -3.313901
| 36>   O                      -0.861180            1.452458             -2.250456
| 37>   H                      0.018248             1.215378             -2.084135
| 38>   H                      -1.723585            2.657808             -3.810069
| 39>   H                      -0.325219            3.272619             -2.879507
| 40>   H                      -0.054227            2.091398             -4.053934
| 41>   C                    : -4.746335            2.880887             -0.234083
| 42>   O                    : -3.568935            2.925148             0.647374
| 43>   H                    : -2.796051            2.897875             0.080328
| 44>   H                    : -5.155526            3.875728             -0.398932
| 45>   H                    : -4.485468            2.291806             -1.159059
| 46>   H                    : -5.556382            2.300064             0.263460
| 47> *
| 48>
| 49> #Run DFT-D3 single point of the particle with dimer basis set
| 50> $new_job
| 51> %base "22-126_DFT_B"
| 52> ! wB97X-D3 def2-TZVP TIGHTSCF CHELPG PMODEL
| 53>
| 54> %scf
| 55> MaxIter 1000
| 56> end
| 57>
| 58> * xyz 0 1
| 59>   C                    : -0.749633            2.416253             -3.313901
| 60>   O                    : -0.861180            1.452458             -2.250456
| 61>   H                    : 0.018248             1.215378             -2.084135
| 62>   H                    : -1.723585            2.657808             -3.810069
| 63>   H                    : -0.325219            3.272619             -2.879507
| 64>   H                    : -0.054227            2.091398             -4.053934
| 65>   C                      -4.746335            2.880887             -0.234083
| 66>   O                      -3.568935            2.925148             0.647374
| 67>   H                      -2.796051            2.897875             0.080328
| 68>   H                      -5.155526            3.875728             -0.398932
| 69>   H                      -4.485468            2.291806             -1.159059
| 70>   H                      -5.556382            2.300064             0.263460
| 71> *
| 72>
| 73>                          ****END OF INPUT****
 Total Charge           Charge          ....    0
 Multiplicity           Mult            ....    1
 Number of Electrons    NEL             ....   36
Dispersion correction           -0.001069996
FINAL SINGLE POINT ENERGY      -231.465066187749
Dispersion correction           -0.000216039
FINAL SINGLE POINT ENERGY      -115.730306337114

CARTESIAN COORDINATES (ANGSTROEM)
---------------------------------
  C     -0.749633    2.416253   -3.313901
  O     -0.861180    1.452458   -2.250456
  H      0.018248    1.215378   -2.084135
  H     -1.723585    2.657808   -3.810069
  H     -0.325219    3.272619   -2.879507
  H     -0.054227    2.091398   -4.053934
  C     -4.746335    2.880887   -0.234083
  O     -3.568935    2.925148    0.647374
  H     -2.796051    2.897875    0.080328
  H     -5.155526    3.875728   -0.398932
  H     -4.485468    2.291806   -1.159059
  H     -5.556382    2.300064    0.263460

 Multiplicity           Mult            ....    1
 Number of Electrons    NEL             ....   18
 Basis Dimension        Dim             ....  172

ORBITAL ENERGIES
----------------

  NO   OCC          E(Eh)            E(eV)
   0   2.0000     -19.228658      -523.2384
   1   2.0000     -10.323429      -280.9148
   2   2.0000      -1.119593       -30.4657
   3   2.0000      -0.793441       -21.5906
   4   2.0000      -0.595721       -16.2104
   5   2.0000      -0.541815       -14.7435
   6   2.0000      -0.518079       -14.0976
   7   2.0000      -0.432104       -11.7582
   8   2.0000      -0.376054       -10.2330
   9   0.0000       0.068699         1.8694
  10   0.0000       0.120521         3.2795
  11   0.0000       0.144362         3.9283
  12   0.0000       0.164263         4.4698
  13   0.0000       0.180161         4.9024

MULLIKEN ATOMIC CHARGES
-----------------------
   0 C :   -0.000301
   1 O :   -0.000062
   2 H :   -0.000012
   3 H :   -0.000067
   4 H :    0.000029
   5 H :   -0.000006
   6 C :   -0.177539
   7 O :   -0.480826
   8 H :    0.313247
   9 H :    0.114428
  10 H :    0.110858
  11 H :    0.120253
Sum of atomic charges:   -0.0000000

LOEWDIN ATOMIC CHARGES
----------------------
   0 C :   -0.000336
   1 O :   -0.000308
   2 H :   -0.000031
   3 H :   -0.000063
   4 H :   -0.000031
   5 H :   -0.000012
   6 C :   -0.351200
   7 O :   -0.120194
   8 H :    0.161859
   9 H :    0.096151
  10 H :    0.105099
  11 H :    0.109067

  Mayer bond orders larger than 0.1
B(  6-C ,  7-O ) :   0.9970 B(  6-C ,  9-H ) :   0.9703 B(  6-C , 10-H ) :   0.9797
B(  6-C , 11-H ) :   0.9746 B(  7-O ,  8-H ) :   0.9047

Dispersion correction           -0.000270240
FINAL SINGLE POINT ENERGY      -115.732239281722

DIPOLE MOMENT
-------------
                                X             Y             Z
Electronic contribution:      1.36565       0.16104       1.14391
Nuclear contribution   :     -1.38444      -0.21217      -1.87288
                        -----------------------------------------
Total Dipole Moment    :     -0.01879      -0.05113      -0.72898
                        -----------------------------------------
Magnitude (a.u.)       :      0.73101
Magnitude (Debye)      :      1.85808

Rotational constants in cm-1:     4.148902     0.779197     0.752673
Rotational constants in MHz : 124380.959009 23359.741347 22564.574022

                             ****ORCA TERMINATED NORMALLY****
TOTAL RUN TIME: 0 days 0 hours 1 minutes 3 seconds 907 msec
