                         Program Version 4.1.2  - RELEASE  -
|  1> #Run DFT-D3 single point of the dimer
|  2> ! wB97X-D3 def2-TZVP TIGHTSCF CHELPG PMODEL PAL8
|  3>
|  4> %base "1-116_DFT_AB"
|  5>
|  6> %scf
|  7> MaxIter 1000
|  8> end
|  9>
| 10> * xyz 0 1
| 11>   C                      4.888409             3.253564             1.564337
| 12>   O                      3.677006             2.583596             1.661210
| 13>   H                      3.206091             3.184549             2.313653
| 14>   H                      4.815171             4.370015             1.276239
| 15>   H                      5.420325             3.232220             2.517922
| 16>   H                      5.548820             2.761538             0.826897
| 17>   C                      5.481256             -1.407273            4.218464
| 18>   O                      6.513716             -0.468598            3.930970
| 19>   H                      6.753856             -0.454493            2.972972
| 20>   H                      4.562116             -1.173719            3.595068
| 21>   H                      5.845819             -2.467576            4.115695
| 22>   H                      5.098624             -1.292194            5.239379
| 23> *
| 24>
| 25> #Run DFT-D3 single point of the molecule with dimer basis set
| 26> $new_job
| 27> %base "1-116_DFT_A"
| 28> ! wB97X-D3 def2-TZVP TIGHTSCF CHELPG PMODEL
| 29>
| 30> %scf
| 31> MaxIter 1000
| 32> end
| 33>
| 34> * xyz 0 1
| 35>   C                      4.888409             3.253564             1.564337
| 36>   O                      3.677006             2.583596             1.661210
| 37>   H                      3.206091             3.184549             2.313653
| 38>   H                      4.815171             4.370015             1.276239
| 39>   H                      5.420325             3.232220             2.517922
| 40>   H                      5.548820             2.761538             0.826897
| 41>   C                    : 5.481256             -1.407273            4.218464
| 42>   O                    : 6.513716             -0.468598            3.930970
| 43>   H                    : 6.753856             -0.454493            2.972972
| 44>   H                    : 4.562116             -1.173719            3.595068
| 45>   H                    : 5.845819             -2.467576            4.115695
| 46>   H                    : 5.098624             -1.292194            5.239379
| 47> *
| 48>
| 49> #Run DFT-D3 single point of the particle with dimer basis set
| 50> $new_job
| 51> %base "1-116_DFT_B"
| 52> ! wB97X-D3 def2-TZVP TIGHTSCF CHELPG PMODEL
| 53>
| 54> %scf
| 55> MaxIter 1000
| 56> end
| 57>
| 58> * xyz 0 1
| 59>   C                    : 4.888409             3.253564             1.564337
| 60>   O                    : 3.677006             2.583596             1.661210
| 61>   H                    : 3.206091             3.184549             2.313653
| 62>   H                    : 4.815171             4.370015             1.276239
| 63>   H                    : 5.420325             3.232220             2.517922
| 64>   H                    : 5.548820             2.761538             0.826897
| 65>   C                      5.481256             -1.407273            4.218464
| 66>   O                      6.513716             -0.468598            3.930970
| 67>   H                      6.753856             -0.454493            2.972972
| 68>   H                      4.562116             -1.173719            3.595068
| 69>   H                      5.845819             -2.467576            4.115695
| 70>   H                      5.098624             -1.292194            5.239379
| 71> *
| 72>
| 73>                          ****END OF INPUT****
 Total Charge           Charge          ....    0
 Multiplicity           Mult            ....    1
 Number of Electrons    NEL             ....   36
Dispersion correction           -0.000867779
FINAL SINGLE POINT ENERGY      -231.463770072152
Dispersion correction           -0.000226900
FINAL SINGLE POINT ENERGY      -115.730316590018

CARTESIAN COORDINATES (ANGSTROEM)
---------------------------------
  C      4.888409    3.253564    1.564337
  O      3.677006    2.583596    1.661210
  H      3.206091    3.184549    2.313653
  H      4.815171    4.370015    1.276239
  H      5.420325    3.232220    2.517922
  H      5.548820    2.761538    0.826897
  C      5.481256   -1.407273    4.218464
  O      6.513716   -0.468598    3.930970
  H      6.753856   -0.454493    2.972972
  H      4.562116   -1.173719    3.595068
  H      5.845819   -2.467576    4.115695
  H      5.098624   -1.292194    5.239379

 Multiplicity           Mult            ....    1
 Number of Electrons    NEL             ....   18
 Basis Dimension        Dim             ....  172

ORBITAL ENERGIES
----------------

  NO   OCC          E(Eh)            E(eV)
   0   2.0000     -19.231567      -523.3175
   1   2.0000     -10.322338      -280.8851
   2   2.0000      -1.125179       -30.6177
   3   2.0000      -0.790525       -21.5113
   4   2.0000      -0.600701       -16.3459
   5   2.0000      -0.541422       -14.7328
   6   2.0000      -0.525348       -14.2954
   7   2.0000      -0.421164       -11.4605
   8   2.0000      -0.373871       -10.1735
   9   0.0000       0.083154         2.2627
  10   0.0000       0.117165         3.1882
  11   0.0000       0.145477         3.9586
  12   0.0000       0.169567         4.6142
  13   0.0000       0.189998         5.1701

MULLIKEN ATOMIC CHARGES
-----------------------
   0 C :   -0.000800
   1 O :    0.000130
   2 H :    0.000005
   3 H :   -0.000076
   4 H :   -0.000757
   5 H :    0.000117
   6 C :   -0.164671
   7 O :   -0.486714
   8 H :    0.321533
   9 H :    0.102741
  10 H :    0.105199
  11 H :    0.123292
Sum of atomic charges:   -0.0000000

LOEWDIN ATOMIC CHARGES
----------------------
   0 C :   -0.000562
   1 O :   -0.000019
   2 H :   -0.000004
   3 H :   -0.000024
   4 H :   -0.000432
   5 H :   -0.000039
   6 C :   -0.390195
   7 O :   -0.102230
   8 H :    0.183328
   9 H :    0.102045
  10 H :    0.100230
  11 H :    0.107901

  Mayer bond orders larger than 0.1
B(  6-C ,  7-O ) :   0.9963 B(  6-C ,  9-H ) :   0.9769 B(  6-C , 10-H ) :   0.9724
B(  6-C , 11-H ) :   0.9695 B(  7-O ,  8-H ) :   0.8889

Dispersion correction           -0.000272350
FINAL SINGLE POINT ENERGY      -115.732570990770

DIPOLE MOMENT
-------------
                                X             Y             Z
Electronic contribution:      1.37859       1.19603      -0.22347
Nuclear contribution   :     -1.65205      -1.55429      -0.24271
                        -----------------------------------------
Total Dipole Moment    :     -0.27346      -0.35826      -0.46618
                        -----------------------------------------
Magnitude (a.u.)       :      0.64843
Magnitude (Debye)      :      1.64817

Rotational constants in cm-1:     4.166238     0.800919     0.785877
Rotational constants in MHz : 124900.678462 24010.946205 23560.010183

                             ****ORCA TERMINATED NORMALLY****
TOTAL RUN TIME: 0 days 0 hours 5 minutes 35 seconds 182 msec
