                         Program Version 4.1.2  - RELEASE  -
|  1> #Run DFT-D3 single point of the dimer
|  2> ! wB97X-D3 def2-TZVP TIGHTSCF CHELPG PMODEL PAL8
|  3>
|  4> %base "7-15_DFT_AB"
|  5>
|  6> %scf
|  7> MaxIter 1000
|  8> end
|  9>
| 10> * xyz 0 1
| 11>   C                      -1.043704            -4.234054            3.067058
| 12>   O                      -0.967894            -4.898226            4.364749
| 13>   H                      -1.811567            -5.220936            4.592340
| 14>   H                      -1.580061            -3.307889            3.073810
| 15>   H                      -0.006759            -3.989458            2.723288
| 16>   H                      -1.542091            -4.895781            2.312860
| 17>   C                      -4.531715            -3.327488            3.855180
| 18>   O                      -5.285925            -4.508734            4.030222
| 19>   H                      -4.623814            -5.225967            3.998889
| 20>   H                      -4.056107            -3.085744            4.805620
| 21>   H                      -3.844368            -3.437728            3.013197
| 22>   H                      -5.163979            -2.483007            3.642173
| 23> *
| 24>
| 25> #Run DFT-D3 single point of the molecule with dimer basis set
| 26> $new_job
| 27> %base "7-15_DFT_A"
| 28> ! wB97X-D3 def2-TZVP TIGHTSCF CHELPG PMODEL
| 29>
| 30> %scf
| 31> MaxIter 1000
| 32> end
| 33>
| 34> * xyz 0 1
| 35>   C                      -1.043704            -4.234054            3.067058
| 36>   O                      -0.967894            -4.898226            4.364749
| 37>   H                      -1.811567            -5.220936            4.592340
| 38>   H                      -1.580061            -3.307889            3.073810
| 39>   H                      -0.006759            -3.989458            2.723288
| 40>   H                      -1.542091            -4.895781            2.312860
| 41>   C                    : -4.531715            -3.327488            3.855180
| 42>   O                    : -5.285925            -4.508734            4.030222
| 43>   H                    : -4.623814            -5.225967            3.998889
| 44>   H                    : -4.056107            -3.085744            4.805620
| 45>   H                    : -3.844368            -3.437728            3.013197
| 46>   H                    : -5.163979            -2.483007            3.642173
| 47> *
| 48>
| 49> #Run DFT-D3 single point of the particle with dimer basis set
| 50> $new_job
| 51> %base "7-15_DFT_B"
| 52> ! wB97X-D3 def2-TZVP TIGHTSCF CHELPG PMODEL
| 53>
| 54> %scf
| 55> MaxIter 1000
| 56> end
| 57>
| 58> * xyz 0 1
| 59>   C                    : -1.043704            -4.234054            3.067058
| 60>   O                    : -0.967894            -4.898226            4.364749
| 61>   H                    : -1.811567            -5.220936            4.592340
| 62>   H                    : -1.580061            -3.307889            3.073810
| 63>   H                    : -0.006759            -3.989458            2.723288
| 64>   H                    : -1.542091            -4.895781            2.312860
| 65>   C                      -4.531715            -3.327488            3.855180
| 66>   O                      -5.285925            -4.508734            4.030222
| 67>   H                      -4.623814            -5.225967            3.998889
| 68>   H                      -4.056107            -3.085744            4.805620
| 69>   H                      -3.844368            -3.437728            3.013197
| 70>   H                      -5.163979            -2.483007            3.642173
| 71> *
| 72>
| 73>                          ****END OF INPUT****
 Total Charge           Charge          ....    0
 Multiplicity           Mult            ....    1
 Number of Electrons    NEL             ....   36
Dispersion correction           -0.002065057
FINAL SINGLE POINT ENERGY      -231.467693468087
Dispersion correction           -0.000268682
FINAL SINGLE POINT ENERGY      -115.733679365054

CARTESIAN COORDINATES (ANGSTROEM)
---------------------------------
  C     -1.043704   -4.234054    3.067058
  O     -0.967894   -4.898226    4.364749
  H     -1.811567   -5.220936    4.592340
  H     -1.580061   -3.307889    3.073810
  H     -0.006759   -3.989458    2.723288
  H     -1.542091   -4.895781    2.312860
  C     -4.531715   -3.327488    3.855180
  O     -5.285925   -4.508734    4.030222
  H     -4.623814   -5.225967    3.998889
  H     -4.056107   -3.085744    4.805620
  H     -3.844368   -3.437728    3.013197
  H     -5.163979   -2.483007    3.642173

 Multiplicity           Mult            ....    1
 Number of Electrons    NEL             ....   18
 Basis Dimension        Dim             ....  172

ORBITAL ENERGIES
----------------

  NO   OCC          E(Eh)            E(eV)
   0   2.0000     -19.230013      -523.2753
   1   2.0000     -10.309781      -280.5434
   2   2.0000      -1.134906       -30.8823
   3   2.0000      -0.793610       -21.5952
   4   2.0000      -0.604172       -16.4403
   5   2.0000      -0.549505       -14.9528
   6   2.0000      -0.529452       -14.4071
   7   2.0000      -0.432717       -11.7748
   8   2.0000      -0.372683       -10.1412
   9   0.0000       0.073480         1.9995
  10   0.0000       0.123829         3.3695
  11   0.0000       0.155609         4.2343
  12   0.0000       0.160680         4.3723
  13   0.0000       0.194606         5.2955

MULLIKEN ATOMIC CHARGES
-----------------------
   0 C :    0.002678
   1 O :    0.000133
   2 H :   -0.000305
   3 H :   -0.004646
   4 H :   -0.000026
   5 H :   -0.000301
   6 C :   -0.165748
   7 O :   -0.472277
   8 H :    0.315011
   9 H :    0.100845
  10 H :    0.105467
  11 H :    0.119168
Sum of atomic charges:   -0.0000000

LOEWDIN ATOMIC CHARGES
----------------------
   0 C :   -0.007729
   1 O :   -0.000134
   2 H :   -0.001202
   3 H :   -0.006298
   4 H :   -0.000030
   5 H :   -0.000740
   6 C :   -0.381468
   7 O :   -0.084635
   8 H :    0.179846
   9 H :    0.096801
  10 H :    0.101717
  11 H :    0.103873

  Mayer bond orders larger than 0.1
B(  6-C ,  7-O ) :   0.9981 B(  6-C ,  9-H ) :   0.9807 B(  6-C , 10-H ) :   0.9818
B(  6-C , 11-H ) :   0.9706 B(  7-O ,  8-H ) :   0.9011

Dispersion correction           -0.000221102
FINAL SINGLE POINT ENERGY      -115.734638585687

DIPOLE MOMENT
-------------
                                X             Y             Z
Electronic contribution:     -1.08091      -1.41435       0.19723
Nuclear contribution   :      1.76713       1.44852      -0.29460
                        -----------------------------------------
Total Dipole Moment    :      0.68622       0.03416      -0.09737
                        -----------------------------------------
Magnitude (a.u.)       :      0.69394
Magnitude (Debye)      :      1.76385

Rotational constants in cm-1:     4.250123     0.838790     0.812493
Rotational constants in MHz : 127415.491783 25146.292106 24357.922226

                             ****ORCA TERMINATED NORMALLY****
TOTAL RUN TIME: 0 days 0 hours 1 minutes 5 seconds 183 msec
