                         Program Version 4.1.2  - RELEASE  -
|  1> #Run DFT-D3 single point of the dimer
|  2> ! wB97X-D3 def2-TZVP TIGHTSCF CHELPG PMODEL PAL8
|  3>
|  4> %base "16-120_DFT_AB"
|  5>
|  6> %scf
|  7> MaxIter 1000
|  8> end
|  9>
| 10> * xyz 0 1
| 11>   C                      9.332024             -7.825781            -3.804788
| 12>   O                      8.953421             -7.722838            -5.139420
| 13>   H                      8.371526             -8.481379            -5.322820
| 14>   H                      10.157458            -8.605935            -3.657025
| 15>   H                      9.700460             -6.873416            -3.434979
| 16>   H                      8.503247             -8.036935            -3.181149
| 17>   C                      5.695162             -8.591498            -4.377994
| 18>   O                      6.655269             -9.376518            -5.019318
| 19>   H                      6.129340             -9.955348            -5.594773
| 20>   H                      5.650426             -7.587364            -4.835923
| 21>   H                      4.722369             -9.035779            -4.375964
| 22>   H                      6.001273             -8.376452            -3.316426
| 23> *
| 24>
| 25> #Run DFT-D3 single point of the molecule with dimer basis set
| 26> $new_job
| 27> %base "16-120_DFT_A"
| 28> ! wB97X-D3 def2-TZVP TIGHTSCF CHELPG PMODEL
| 29>
| 30> %scf
| 31> MaxIter 1000
| 32> end
| 33>
| 34> * xyz 0 1
| 35>   C                      9.332024             -7.825781            -3.804788
| 36>   O                      8.953421             -7.722838            -5.139420
| 37>   H                      8.371526             -8.481379            -5.322820
| 38>   H                      10.157458            -8.605935            -3.657025
| 39>   H                      9.700460             -6.873416            -3.434979
| 40>   H                      8.503247             -8.036935            -3.181149
| 41>   C                    : 5.695162             -8.591498            -4.377994
| 42>   O                    : 6.655269             -9.376518            -5.019318
| 43>   H                    : 6.129340             -9.955348            -5.594773
| 44>   H                    : 5.650426             -7.587364            -4.835923
| 45>   H                    : 4.722369             -9.035779            -4.375964
| 46>   H                    : 6.001273             -8.376452            -3.316426
| 47> *
| 48>
| 49> #Run DFT-D3 single point of the particle with dimer basis set
| 50> $new_job
| 51> %base "16-120_DFT_B"
| 52> ! wB97X-D3 def2-TZVP TIGHTSCF CHELPG PMODEL
| 53>
| 54> %scf
| 55> MaxIter 1000
| 56> end
| 57>
| 58> * xyz 0 1
| 59>   C                    : 9.332024             -7.825781            -3.804788
| 60>   O                    : 8.953421             -7.722838            -5.139420
| 61>   H                    : 8.371526             -8.481379            -5.322820
| 62>   H                    : 10.157458            -8.605935            -3.657025
| 63>   H                    : 9.700460             -6.873416            -3.434979
| 64>   H                    : 8.503247             -8.036935            -3.181149
| 65>   C                      5.695162             -8.591498            -4.377994
| 66>   O                      6.655269             -9.376518            -5.019318
| 67>   H                      6.129340             -9.955348            -5.594773
| 68>   H                      5.650426             -7.587364            -4.835923
| 69>   H                      4.722369             -9.035779            -4.375964
| 70>   H                      6.001273             -8.376452            -3.316426
| 71> *
| 72>
| 73>                          ****END OF INPUT****
 Total Charge           Charge          ....    0
 Multiplicity           Mult            ....    1
 Number of Electrons    NEL             ....   36
Dispersion correction           -0.002161942
FINAL SINGLE POINT ENERGY      -231.476488093574
Dispersion correction           -0.000232792
FINAL SINGLE POINT ENERGY      -115.734439622658

CARTESIAN COORDINATES (ANGSTROEM)
---------------------------------
  C      9.332024   -7.825781   -3.804788
  O      8.953421   -7.722838   -5.139420
  H      8.371526   -8.481379   -5.322820
  H     10.157458   -8.605935   -3.657025
  H      9.700460   -6.873416   -3.434979
  H      8.503247   -8.036935   -3.181149
  C      5.695162   -8.591498   -4.377994
  O      6.655269   -9.376518   -5.019318
  H      6.129340   -9.955348   -5.594773
  H      5.650426   -7.587364   -4.835923
  H      4.722369   -9.035779   -4.375964
  H      6.001273   -8.376452   -3.316426

 Multiplicity           Mult            ....    1
 Number of Electrons    NEL             ....   18
 Basis Dimension        Dim             ....  172

ORBITAL ENERGIES
----------------

  NO   OCC          E(Eh)            E(eV)
   0   2.0000     -19.233768      -523.3774
   1   2.0000     -10.312786      -280.6252
   2   2.0000      -1.143990       -31.1296
   3   2.0000      -0.790559       -21.5122
   4   2.0000      -0.616853       -16.7854
   5   2.0000      -0.539437       -14.6788
   6   2.0000      -0.528321       -14.3763
   7   2.0000      -0.440637       -11.9903
   8   2.0000      -0.370321       -10.0769
   9   0.0000       0.097827         2.6620
  10   0.0000       0.124564         3.3896
  11   0.0000       0.153145         4.1673
  12   0.0000       0.184782         5.0282
  13   0.0000       0.192309         5.2330

MULLIKEN ATOMIC CHARGES
-----------------------
   0 C :    0.001356
   1 O :    0.000102
   2 H :   -0.010077
   3 H :   -0.000051
   4 H :   -0.000157
   5 H :    0.000165
   6 C :   -0.176161
   7 O :   -0.452151
   8 H :    0.313716
   9 H :    0.101689
  10 H :    0.114111
  11 H :    0.107459
Sum of atomic charges:   -0.0000000

LOEWDIN ATOMIC CHARGES
----------------------
   0 C :   -0.005196
   1 O :   -0.005035
   2 H :   -0.039327
   3 H :   -0.000079
   4 H :   -0.000046
   5 H :   -0.002564
   6 C :   -0.402232
   7 O :   -0.026832
   8 H :    0.180028
   9 H :    0.098511
  10 H :    0.092238
  11 H :    0.110534

  Mayer bond orders larger than 0.1
B(  6-C ,  7-O ) :   0.9983 B(  6-C ,  9-H ) :   0.9792 B(  6-C , 10-H ) :   0.9765
B(  6-C , 11-H ) :   0.9771 B(  7-O ,  8-H ) :   0.8996

Dispersion correction           -0.000234822
FINAL SINGLE POINT ENERGY      -115.733809204999

DIPOLE MOMENT
-------------
                                X             Y             Z
Electronic contribution:      1.31010      -1.07121      -0.81390
Nuclear contribution   :     -2.01916       0.98240       0.69605
                        -----------------------------------------
Total Dipole Moment    :     -0.70906      -0.08880      -0.11785
                        -----------------------------------------
Magnitude (a.u.)       :      0.72425
Magnitude (Debye)      :      1.84090

Rotational constants in cm-1:     4.230887     0.852416     0.815585
Rotational constants in MHz : 126838.786694 25554.782581 24450.633940

                             ****ORCA TERMINATED NORMALLY****
TOTAL RUN TIME: 0 days 0 hours 0 minutes 56 seconds 161 msec
