                         Program Version 4.1.2  - RELEASE  -
|  1> #Run DFT-D3 single point of the dimer
|  2> ! wB97X-D3 def2-TZVP TIGHTSCF  CHELPG PAL8
|  3>
|  4> %base "188_charges"
|  5>
|  6> %scf
|  7> MaxIter 1000
|  8> end
|  9> %output
| 10>   Print[ P_Mayer ] 1
| 11>   Print[ P_NatPop ] 1
| 12>   Print[ P_Hirshfeld ] 1
| 13>   Print[ P_Mulliken ] 1
| 14>   Print [ P_Loewdin ] 1
| 15> end
| 16>
| 17> * xyz 0 1
| 18>   C                      -9.180252            12.200435            -5.215382
| 19>   O                      -9.204684            11.712781            -6.540541
| 20>   H                      -9.935506            11.114427            -6.537218
| 21>   H                      -8.642337            13.118669            -5.191544
| 22>   H                      -10.198021           12.486722            -4.775463
| 23>   H                      -8.639112            11.564816            -4.516923
| 24> *
| 25>
| 26>                          ****END OF INPUT****

CARTESIAN COORDINATES (ANGSTROEM)
---------------------------------
  C     -9.180252   12.200435   -5.215382
  O     -9.204684   11.712781   -6.540541
  H     -9.935506   11.114427   -6.537218
  H     -8.642337   13.118669   -5.191544
  H    -10.198021   12.486722   -4.775463
  H     -8.639112   11.564816   -4.516923

 Total Charge           Charge          ....    0
 Multiplicity           Mult            ....    1
 Number of Electrons    NEL             ....   18
 Basis Dimension        Dim             ....   86

ORBITAL ENERGIES
----------------

  NO   OCC          E(Eh)            E(eV)
   0   2.0000     -19.233935      -523.3820
   1   2.0000     -10.314254      -280.6651
   2   2.0000      -1.144710       -31.1491
   3   2.0000      -0.796622       -21.6772
   4   2.0000      -0.610829       -16.6215
   5   2.0000      -0.541872       -14.7451
   6   2.0000      -0.528335       -14.3767
   7   2.0000      -0.437044       -11.8926
   8   2.0000      -0.377972       -10.2851
   9   0.0000       0.117319         3.1924
  10   0.0000       0.152918         4.1611
  11   0.0000       0.197347         5.3701
  12   0.0000       0.210658         5.7323
  13   0.0000       0.227731         6.1969

MULLIKEN ATOMIC CHARGES
-----------------------
   0 C :   -0.172322
   1 O :   -0.459191
   2 H :    0.313825
   3 H :    0.119258
   4 H :    0.096314
   5 H :    0.102117
Sum of atomic charges:   -0.0000000

LOEWDIN ATOMIC CHARGES
----------------------
   0 C :   -0.396434
   1 O :   -0.063034
   2 H :    0.162234
   3 H :    0.100699
   4 H :    0.103827
   5 H :    0.092708

  Mayer bond orders larger than 0.1
B(  0-C ,  1-O ) :   1.0107 B(  0-C ,  3-H ) :   0.9774 B(  0-C ,  4-H ) :   0.9760
B(  0-C ,  5-H ) :   0.9718 B(  1-O ,  2-H ) :   0.9053

Dispersion correction           -0.000250201
FINAL SINGLE POINT ENERGY      -115.732739281907

DIPOLE MOMENT
-------------
                                X             Y             Z
Electronic contribution:      0.09146      -0.65012      -1.84312
Nuclear contribution   :     -0.52322       0.48629       2.34241
                        -----------------------------------------
Total Dipole Moment    :     -0.43176      -0.16383       0.49928
                        -----------------------------------------
Magnitude (a.u.)       :      0.68010
Magnitude (Debye)      :      1.72868

Rotational constants in cm-1:     4.348329     0.826988     0.801164
Rotational constants in MHz : 130359.620838 24792.478565 24018.305843

                             ****ORCA TERMINATED NORMALLY****
TOTAL RUN TIME: 0 days 0 hours 0 minutes 41 seconds 510 msec
