                         Program Version 4.1.2  - RELEASE  -
|  1> #Run DFT-D3 single point of the dimer
|  2> ! wB97X-D3 def2-TZVP TIGHTSCF  CHELPG PAL8
|  3>
|  4> %base "7_charges"
|  5>
|  6> %scf
|  7> MaxIter 1000
|  8> end
|  9> %output
| 10>   Print[ P_Mayer ] 1
| 11>   Print[ P_NatPop ] 1
| 12>   Print[ P_Hirshfeld ] 1
| 13>   Print[ P_Mulliken ] 1
| 14>   Print [ P_Loewdin ] 1
| 15> end
| 16>
| 17> * xyz 0 1
| 18>   C                      -3.728019            6.509154             7.813817
| 19>   O                      -2.781509            5.907698             6.923639
| 20>   H                      -2.932746            4.986791             7.058936
| 21>   H                      -4.716102            6.091412             7.527722
| 22>   H                      -3.488489            6.303997             8.862452
| 23>   H                      -3.680288            7.632725             7.729026
| 24> *
| 25>
| 26>                          ****END OF INPUT****

CARTESIAN COORDINATES (ANGSTROEM)
---------------------------------
  C     -3.728019    6.509154    7.813817
  O     -2.781509    5.907698    6.923639
  H     -2.932746    4.986791    7.058936
  H     -4.716102    6.091412    7.527722
  H     -3.488489    6.303997    8.862452
  H     -3.680288    7.632725    7.729026

 Total Charge           Charge          ....    0
 Multiplicity           Mult            ....    1
 Number of Electrons    NEL             ....   18
 Basis Dimension        Dim             ....   86

ORBITAL ENERGIES
----------------

  NO   OCC          E(Eh)            E(eV)
   0   2.0000     -19.227792      -523.2148
   1   2.0000     -10.320791      -280.8430
   2   2.0000      -1.137653       -30.9571
   3   2.0000      -0.789901       -21.4943
   4   2.0000      -0.605171       -16.4675
   5   2.0000      -0.547645       -14.9022
   6   2.0000      -0.519986       -14.1495
   7   2.0000      -0.437601       -11.9077
   8   2.0000      -0.373746       -10.1701
   9   0.0000       0.115141         3.1331
  10   0.0000       0.156698         4.2640
  11   0.0000       0.197845         5.3836
  12   0.0000       0.200407         5.4534
  13   0.0000       0.219505         5.9730

MULLIKEN ATOMIC CHARGES
-----------------------
   0 C :   -0.176056
   1 O :   -0.464868
   2 H :    0.309216
   3 H :    0.104045
   4 H :    0.106133
   5 H :    0.121530
Sum of atomic charges:   -0.0000000

LOEWDIN ATOMIC CHARGES
----------------------
   0 C :   -0.379093
   1 O :   -0.085619
   2 H :    0.157315
   3 H :    0.099179
   4 H :    0.093267
   5 H :    0.114951

  Mayer bond orders larger than 0.1
B(  0-C ,  1-O ) :   0.9913 B(  0-C ,  3-H ) :   0.9840 B(  0-C ,  4-H ) :   0.9707
B(  0-C ,  5-H ) :   0.9720 B(  1-O ,  2-H ) :   0.9076

Dispersion correction           -0.000225348
FINAL SINGLE POINT ENERGY      -115.733076529001

DIPOLE MOMENT
-------------
                                X             Y             Z
Electronic contribution:      1.23084      -0.61445      -1.15694
Nuclear contribution   :     -1.68912       0.28511       1.59818
                        -----------------------------------------
Total Dipole Moment    :     -0.45828      -0.32935       0.44124
                        -----------------------------------------
Magnitude (a.u.)       :      0.71637
Magnitude (Debye)      :      1.82087

Rotational constants in cm-1:     4.111584     0.824986     0.793300
Rotational constants in MHz : 123262.187230 24732.470958 23782.531542

                             ****ORCA TERMINATED NORMALLY****
TOTAL RUN TIME: 0 days 0 hours 0 minutes 42 seconds 145 msec
