                         Program Version 4.1.2  - RELEASE  -
|  1> #Run DFT-D3 single point of the dimer
|  2> ! wB97X-D3 def2-TZVP TIGHTSCF CHELPG PMODEL PAL8
|  3>
|  4> %base "12-0_DFT_AB"
|  5>
|  6> %scf
|  7> MaxIter 1000
|  8> end
|  9>
| 10> * xyz 0 1
| 11>   C                      -3.318311            -0.619609            -4.975786
| 12>   O                      -2.848868            -0.188945            -3.711665
| 13>   H                      -2.709265            0.711760             -3.772373
| 14>   H                      -2.662649            -0.195860            -5.703031
| 15>   H                      -3.228268            -1.702189            -5.124246
| 16>   H                      -4.392851            -0.308560            -5.145854
| 17>   C                      0.458656             -0.930274            -4.011846
| 18>   O                      1.515919             -0.989407            -3.097757
| 19>   H                      2.343066             -1.128490            -3.561394
| 20>   H                      0.659038             -0.054227            -4.714166
| 21>   H                      0.496070             -1.799020            -4.676867
| 22>   H                      -0.554769            -0.926448            -3.628725
| 23> *
| 24>
| 25> #Run DFT-D3 single point of the molecule with dimer basis set
| 26> $new_job
| 27> %base "12-0_DFT_A"
| 28> ! wB97X-D3 def2-TZVP TIGHTSCF CHELPG PMODEL
| 29>
| 30> %scf
| 31> MaxIter 1000
| 32> end
| 33>
| 34> * xyz 0 1
| 35>   C                      -3.318311            -0.619609            -4.975786
| 36>   O                      -2.848868            -0.188945            -3.711665
| 37>   H                      -2.709265            0.711760             -3.772373
| 38>   H                      -2.662649            -0.195860            -5.703031
| 39>   H                      -3.228268            -1.702189            -5.124246
| 40>   H                      -4.392851            -0.308560            -5.145854
| 41>   C                    : 0.458656             -0.930274            -4.011846
| 42>   O                    : 1.515919             -0.989407            -3.097757
| 43>   H                    : 2.343066             -1.128490            -3.561394
| 44>   H                    : 0.659038             -0.054227            -4.714166
| 45>   H                    : 0.496070             -1.799020            -4.676867
| 46>   H                    : -0.554769            -0.926448            -3.628725
| 47> *
| 48>
| 49> #Run DFT-D3 single point of the particle with dimer basis set
| 50> $new_job
| 51> %base "12-0_DFT_B"
| 52> ! wB97X-D3 def2-TZVP TIGHTSCF CHELPG PMODEL
| 53>
| 54> %scf
| 55> MaxIter 1000
| 56> end
| 57>
| 58> * xyz 0 1
| 59>   C                    : -3.318311            -0.619609            -4.975786
| 60>   O                    : -2.848868            -0.188945            -3.711665
| 61>   H                    : -2.709265            0.711760             -3.772373
| 62>   H                    : -2.662649            -0.195860            -5.703031
| 63>   H                    : -3.228268            -1.702189            -5.124246
| 64>   H                    : -4.392851            -0.308560            -5.145854
| 65>   C                      0.458656             -0.930274            -4.011846
| 66>   O                      1.515919             -0.989407            -3.097757
| 67>   H                      2.343066             -1.128490            -3.561394
| 68>   H                      0.659038             -0.054227            -4.714166
| 69>   H                      0.496070             -1.799020            -4.676867
| 70>   H                      -0.554769            -0.926448            -3.628725
| 71> *
| 72>
| 73>                          ****END OF INPUT****
 Total Charge           Charge          ....    0
 Multiplicity           Mult            ....    1
 Number of Electrons    NEL             ....   36
Dispersion correction           -0.001708703
FINAL SINGLE POINT ENERGY      -231.464313959602
Dispersion correction           -0.000229502
FINAL SINGLE POINT ENERGY      -115.731967490196

CARTESIAN COORDINATES (ANGSTROEM)
---------------------------------
  C     -3.318311   -0.619609   -4.975786
  O     -2.848868   -0.188945   -3.711665
  H     -2.709265    0.711760   -3.772373
  H     -2.662649   -0.195860   -5.703031
  H     -3.228268   -1.702189   -5.124246
  H     -4.392851   -0.308560   -5.145854
  C      0.458656   -0.930274   -4.011846
  O      1.515919   -0.989407   -3.097757
  H      2.343066   -1.128490   -3.561394
  H      0.659038   -0.054227   -4.714166
  H      0.496070   -1.799020   -4.676867
  H     -0.554769   -0.926448   -3.628725

 Multiplicity           Mult            ....    1
 Number of Electrons    NEL             ....   18
 Basis Dimension        Dim             ....  172

ORBITAL ENERGIES
----------------

  NO   OCC          E(Eh)            E(eV)
   0   2.0000     -19.229094      -523.2502
   1   2.0000     -10.316673      -280.7309
   2   2.0000      -1.140379       -31.0313
   3   2.0000      -0.794101       -21.6086
   4   2.0000      -0.614550       -16.7227
   5   2.0000      -0.543831       -14.7984
   6   2.0000      -0.530310       -14.4305
   7   2.0000      -0.429461       -11.6862
   8   2.0000      -0.367276        -9.9941
   9   0.0000       0.081952         2.2300
  10   0.0000       0.113681         3.0934
  11   0.0000       0.158565         4.3148
  12   0.0000       0.161839         4.4039
  13   0.0000       0.182109         4.9555

MULLIKEN ATOMIC CHARGES
-----------------------
   0 C :   -0.000123
   1 O :    0.000493
   2 H :   -0.000410
   3 H :   -0.000067
   4 H :   -0.000143
   5 H :    0.000037
   6 C :   -0.170184
   7 O :   -0.471094
   8 H :    0.319586
   9 H :    0.094721
  10 H :    0.098386
  11 H :    0.128797
Sum of atomic charges:    0.0000000

LOEWDIN ATOMIC CHARGES
----------------------
   0 C :   -0.003183
   1 O :   -0.006194
   2 H :   -0.001364
   3 H :   -0.000407
   4 H :   -0.000262
   5 H :   -0.000033
   6 C :   -0.398136
   7 O :   -0.068306
   8 H :    0.171002
   9 H :    0.102697
  10 H :    0.093381
  11 H :    0.110804

  Mayer bond orders larger than 0.1
B(  6-C ,  7-O ) :   1.0052 B(  6-C ,  9-H ) :   0.9839 B(  6-C , 10-H ) :   0.9790
B(  6-C , 11-H ) :   0.9675 B(  7-O ,  8-H ) :   0.8937

Dispersion correction           -0.000231921
FINAL SINGLE POINT ENERGY      -115.730472512682

DIPOLE MOMENT
-------------
                                X             Y             Z
Electronic contribution:      1.17451      -0.05633       1.49433
Nuclear contribution   :     -1.06443      -0.04298      -2.14354
                        -----------------------------------------
Total Dipole Moment    :      0.11008      -0.09931      -0.64920
                        -----------------------------------------
Magnitude (a.u.)       :      0.66592
Magnitude (Debye)      :      1.69263

Rotational constants in cm-1:     4.308795     0.838951     0.806649
Rotational constants in MHz : 129174.426080 25151.113044 24182.718803

                             ****ORCA TERMINATED NORMALLY****
TOTAL RUN TIME: 0 days 0 hours 1 minutes 5 seconds 609 msec
