                         Program Version 4.1.2  - RELEASE  -
|  1> #Run DFT-D3 single point of the dimer
|  2> ! wB97X-D3 def2-TZVP TIGHTSCF CHELPG PMODEL PAL8
|  3>
|  4> %base "9-114_DFT_AB"
|  5>
|  6> %scf
|  7> MaxIter 1000
|  8> end
|  9>
| 10> * xyz 0 1
| 11>   C                      5.356239             0.575091             7.861730
| 12>   O                      5.092971             1.322461             6.696982
| 13>   H                      4.968646             0.716571             5.949532
| 14>   H                      5.774221             1.189268             8.691426
| 15>   H                      4.499093             0.072589             8.225889
| 16>   H                      6.158912             -0.140826            7.547524
| 17>   C                      1.711450             -2.320812            7.646247
| 18>   O                      2.272455             -2.607682            6.372565
| 19>   H                      2.541367             -3.494958            6.384661
| 20>   H                      1.660441             -3.176239            8.294267
| 21>   H                      2.251824             -1.474142            8.110296
| 22>   H                      0.626260             -1.930606            7.640705
| 23> *
| 24>
| 25> #Run DFT-D3 single point of the molecule with dimer basis set
| 26> $new_job
| 27> %base "9-114_DFT_A"
| 28> ! wB97X-D3 def2-TZVP TIGHTSCF CHELPG PMODEL
| 29>
| 30> %scf
| 31> MaxIter 1000
| 32> end
| 33>
| 34> * xyz 0 1
| 35>   C                      5.356239             0.575091             7.861730
| 36>   O                      5.092971             1.322461             6.696982
| 37>   H                      4.968646             0.716571             5.949532
| 38>   H                      5.774221             1.189268             8.691426
| 39>   H                      4.499093             0.072589             8.225889
| 40>   H                      6.158912             -0.140826            7.547524
| 41>   C                    : 1.711450             -2.320812            7.646247
| 42>   O                    : 2.272455             -2.607682            6.372565
| 43>   H                    : 2.541367             -3.494958            6.384661
| 44>   H                    : 1.660441             -3.176239            8.294267
| 45>   H                    : 2.251824             -1.474142            8.110296
| 46>   H                    : 0.626260             -1.930606            7.640705
| 47> *
| 48>
| 49> #Run DFT-D3 single point of the particle with dimer basis set
| 50> $new_job
| 51> %base "9-114_DFT_B"
| 52> ! wB97X-D3 def2-TZVP TIGHTSCF CHELPG PMODEL
| 53>
| 54> %scf
| 55> MaxIter 1000
| 56> end
| 57>
| 58> * xyz 0 1
| 59>   C                    : 5.356239             0.575091             7.861730
| 60>   O                    : 5.092971             1.322461             6.696982
| 61>   H                    : 4.968646             0.716571             5.949532
| 62>   H                    : 5.774221             1.189268             8.691426
| 63>   H                    : 4.499093             0.072589             8.225889
| 64>   H                    : 6.158912             -0.140826            7.547524
| 65>   C                      1.711450             -2.320812            7.646247
| 66>   O                      2.272455             -2.607682            6.372565
| 67>   H                      2.541367             -3.494958            6.384661
| 68>   H                      1.660441             -3.176239            8.294267
| 69>   H                      2.251824             -1.474142            8.110296
| 70>   H                      0.626260             -1.930606            7.640705
| 71> *
| 72>
| 73>                          ****END OF INPUT****
 Total Charge           Charge          ....    0
 Multiplicity           Mult            ....    1
 Number of Electrons    NEL             ....   36
Dispersion correction           -0.001088827
FINAL SINGLE POINT ENERGY      -231.463930993208
Dispersion correction           -0.000228374
FINAL SINGLE POINT ENERGY      -115.732267012405

CARTESIAN COORDINATES (ANGSTROEM)
---------------------------------
  C      5.356239    0.575091    7.861730
  O      5.092971    1.322461    6.696982
  H      4.968646    0.716571    5.949532
  H      5.774221    1.189268    8.691426
  H      4.499093    0.072589    8.225889
  H      6.158912   -0.140826    7.547524
  C      1.711450   -2.320812    7.646247
  O      2.272455   -2.607682    6.372565
  H      2.541367   -3.494958    6.384661
  H      1.660441   -3.176239    8.294267
  H      2.251824   -1.474142    8.110296
  H      0.626260   -1.930606    7.640705

 Multiplicity           Mult            ....    1
 Number of Electrons    NEL             ....   18
 Basis Dimension        Dim             ....  172

ORBITAL ENERGIES
----------------

  NO   OCC          E(Eh)            E(eV)
   0   2.0000     -19.231221      -523.3081
   1   2.0000     -10.319680      -280.8128
   2   2.0000      -1.143569       -31.1181
   3   2.0000      -0.796145       -21.6642
   4   2.0000      -0.619381       -16.8542
   5   2.0000      -0.535010       -14.5584
   6   2.0000      -0.523598       -14.2478
   7   2.0000      -0.440605       -11.9895
   8   2.0000      -0.372426       -10.1342
   9   0.0000       0.091128         2.4797
  10   0.0000       0.120565         3.2807
  11   0.0000       0.148944         4.0530
  12   0.0000       0.172442         4.6924
  13   0.0000       0.184447         5.0191

MULLIKEN ATOMIC CHARGES
-----------------------
   0 C :   -0.000981
   1 O :    0.000028
   2 H :   -0.000228
   3 H :    0.000132
   4 H :    0.001959
   5 H :   -0.000027
   6 C :   -0.183481
   7 O :   -0.457581
   8 H :    0.311064
   9 H :    0.114046
  10 H :    0.111547
  11 H :    0.103520
Sum of atomic charges:    0.0000000

LOEWDIN ATOMIC CHARGES
----------------------
   0 C :   -0.000549
   1 O :   -0.000009
   2 H :   -0.000147
   3 H :   -0.000012
   4 H :   -0.001513
   5 H :   -0.000013
   6 C :   -0.388556
   7 O :   -0.061602
   8 H :    0.148636
   9 H :    0.092291
  10 H :    0.102938
  11 H :    0.108537

  Mayer bond orders larger than 0.1
B(  6-C ,  7-O ) :   1.0202 B(  6-C ,  9-H ) :   0.9818 B(  6-C , 10-H ) :   0.9759
B(  6-C , 11-H ) :   0.9739 B(  7-O ,  8-H ) :   0.9076

Dispersion correction           -0.000266744
FINAL SINGLE POINT ENERGY      -115.730428994269

DIPOLE MOMENT
-------------
                                X             Y             Z
Electronic contribution:      0.81885      -0.38032      -1.73407
Nuclear contribution   :     -0.85517      -0.11433       2.25007
                        -----------------------------------------
Total Dipole Moment    :     -0.03632      -0.49465       0.51600
                        -----------------------------------------
Magnitude (a.u.)       :      0.71571
Magnitude (Debye)      :      1.81920

Rotational constants in cm-1:     4.362533     0.814775     0.784631
Rotational constants in MHz : 130785.439318 24426.348267 23522.633397

                             ****ORCA TERMINATED NORMALLY****
TOTAL RUN TIME: 0 days 0 hours 0 minutes 39 seconds 936 msec
