                         Program Version 4.1.2  - RELEASE  -
|  1> #Run DFT-D3 single point of the dimer
|  2> ! wB97X-D3 def2-TZVP TIGHTSCF CHELPG PMODEL PAL8
|  3>
|  4> %base "22-48_DFT_AB"
|  5>
|  6> %scf
|  7> MaxIter 1000
|  8> end
|  9>
| 10> * xyz 0 1
| 11>   C                      3.346385             5.166609             -0.324777
| 12>   O                      4.605433             4.856927             -0.851271
| 13>   H                      4.735588             5.658297             -1.389277
| 14>   H                      2.939554             4.225934             -0.016089
| 15>   H                      3.411675             5.727115             0.579502
| 16>   H                      2.613158             5.716876             -1.000328
| 17>   C                      5.179402             1.829219             0.769974
| 18>   O                      5.706321             3.108111             1.151135
| 19>   H                      5.356784             3.742103             0.485420
| 20>   H                      5.428723             1.588624             -0.321401
| 21>   H                      5.631359             1.073392             1.428774
| 22>   H                      4.102966             1.863234             0.891557
| 23> *
| 24>
| 25> #Run DFT-D3 single point of the molecule with dimer basis set
| 26> $new_job
| 27> %base "22-48_DFT_A"
| 28> ! wB97X-D3 def2-TZVP TIGHTSCF CHELPG PMODEL
| 29>
| 30> %scf
| 31> MaxIter 1000
| 32> end
| 33>
| 34> * xyz 0 1
| 35>   C                      3.346385             5.166609             -0.324777
| 36>   O                      4.605433             4.856927             -0.851271
| 37>   H                      4.735588             5.658297             -1.389277
| 38>   H                      2.939554             4.225934             -0.016089
| 39>   H                      3.411675             5.727115             0.579502
| 40>   H                      2.613158             5.716876             -1.000328
| 41>   C                    : 5.179402             1.829219             0.769974
| 42>   O                    : 5.706321             3.108111             1.151135
| 43>   H                    : 5.356784             3.742103             0.485420
| 44>   H                    : 5.428723             1.588624             -0.321401
| 45>   H                    : 5.631359             1.073392             1.428774
| 46>   H                    : 4.102966             1.863234             0.891557
| 47> *
| 48>
| 49> #Run DFT-D3 single point of the particle with dimer basis set
| 50> $new_job
| 51> %base "22-48_DFT_B"
| 52> ! wB97X-D3 def2-TZVP TIGHTSCF CHELPG PMODEL
| 53>
| 54> %scf
| 55> MaxIter 1000
| 56> end
| 57>
| 58> * xyz 0 1
| 59>   C                    : 3.346385             5.166609             -0.324777
| 60>   O                    : 4.605433             4.856927             -0.851271
| 61>   H                    : 4.735588             5.658297             -1.389277
| 62>   H                    : 2.939554             4.225934             -0.016089
| 63>   H                    : 3.411675             5.727115             0.579502
| 64>   H                    : 2.613158             5.716876             -1.000328
| 65>   C                      5.179402             1.829219             0.769974
| 66>   O                      5.706321             3.108111             1.151135
| 67>   H                      5.356784             3.742103             0.485420
| 68>   H                      5.428723             1.588624             -0.321401
| 69>   H                      5.631359             1.073392             1.428774
| 70>   H                      4.102966             1.863234             0.891557
| 71> *
| 72>
| 73>                          ****END OF INPUT****
 Total Charge           Charge          ....    0
 Multiplicity           Mult            ....    1
 Number of Electrons    NEL             ....   36
Dispersion correction           -0.002016548
FINAL SINGLE POINT ENERGY      -231.471782696671
Dispersion correction           -0.000224358
FINAL SINGLE POINT ENERGY      -115.729581425245

CARTESIAN COORDINATES (ANGSTROEM)
---------------------------------
  C      3.346385    5.166609   -0.324777
  O      4.605433    4.856927   -0.851271
  H      4.735588    5.658297   -1.389277
  H      2.939554    4.225934   -0.016089
  H      3.411675    5.727115    0.579502
  H      2.613158    5.716876   -1.000328
  C      5.179402    1.829219    0.769974
  O      5.706321    3.108111    1.151135
  H      5.356784    3.742103    0.485420
  H      5.428723    1.588624   -0.321401
  H      5.631359    1.073392    1.428774
  H      4.102966    1.863234    0.891557

 Multiplicity           Mult            ....    1
 Number of Electrons    NEL             ....   18
 Basis Dimension        Dim             ....  172

ORBITAL ENERGIES
----------------

  NO   OCC          E(Eh)            E(eV)
   0   2.0000     -19.232432      -523.3411
   1   2.0000     -10.319841      -280.8171
   2   2.0000      -1.127487       -30.6805
   3   2.0000      -0.788703       -21.4617
   4   2.0000      -0.602440       -16.3932
   5   2.0000      -0.540106       -14.6970
   6   2.0000      -0.522158       -14.2086
   7   2.0000      -0.437758       -11.9120
   8   2.0000      -0.372729       -10.1425
   9   0.0000       0.069181         1.8825
  10   0.0000       0.134687         3.6650
  11   0.0000       0.146953         3.9988
  12   0.0000       0.164097         4.4653
  13   0.0000       0.194681         5.2975

MULLIKEN ATOMIC CHARGES
-----------------------
   0 C :   -0.009676
   1 O :   -0.003483
   2 H :   -0.000425
   3 H :    0.001209
   4 H :    0.001113
   5 H :   -0.000369
   6 C :   -0.175305
   7 O :   -0.468219
   8 H :    0.315962
   9 H :    0.100206
  10 H :    0.126596
  11 H :    0.112390
Sum of atomic charges:   -0.0000000

LOEWDIN ATOMIC CHARGES
----------------------
   0 C :   -0.010003
   1 O :   -0.021721
   2 H :   -0.000917
   3 H :   -0.001817
   4 H :   -0.000768
   5 H :   -0.000194
   6 C :   -0.374604
   7 O :   -0.090035
   8 H :    0.193128
   9 H :    0.103398
  10 H :    0.110241
  11 H :    0.093291

  Mayer bond orders larger than 0.1
B(  6-C ,  7-O ) :   0.9875 B(  6-C ,  9-H ) :   0.9749 B(  6-C , 10-H ) :   0.9735
B(  6-C , 11-H ) :   0.9738 B(  7-O ,  8-H ) :   0.9061

Dispersion correction           -0.000236977
FINAL SINGLE POINT ENERGY      -115.734974302402

DIPOLE MOMENT
-------------
                                X             Y             Z
Electronic contribution:      0.72419       1.47743       0.66405
Nuclear contribution   :     -1.14553      -1.60782      -1.19953
                        -----------------------------------------
Total Dipole Moment    :     -0.42135      -0.13040      -0.53549
                        -----------------------------------------
Magnitude (a.u.)       :      0.69374
Magnitude (Debye)      :      1.76336

Rotational constants in cm-1:     4.050011     0.819284     0.786593
Rotational constants in MHz : 121416.274343 24561.502021 23581.450168

                             ****ORCA TERMINATED NORMALLY****
TOTAL RUN TIME: 0 days 0 hours 1 minutes 3 seconds 251 msec
