                         Program Version 4.1.2  - RELEASE  -
|  1> #Run DFT-D3 single point of the dimer
|  2> ! wB97X-D3 def2-TZVP TIGHTSCF CHELPG PMODEL PAL8
|  3>
|  4> %base "8-30_DFT_AB"
|  5>
|  6> %scf
|  7> MaxIter 1000
|  8> end
|  9>
| 10> * xyz 0 1
| 11>   C                      1.242681             -1.490844            -1.242399
| 12>   O                      2.017750             -2.223303            -0.392427
| 13>   H                      2.854270             -2.385998            -0.915143
| 14>   H                      0.235646             -1.382705            -0.890573
| 15>   H                      1.563453             -0.460555            -1.422829
| 16>   H                      1.015853             -1.921014            -2.215583
| 17>   C                      -2.240861            0.064806             -1.018543
| 18>   O                      -2.993806            -0.543305            -0.032468
| 19>   H                      -2.582195            -1.426782            0.155260
| 20>   H                      -2.285940            -0.606545            -1.937746
| 21>   H                      -2.732843            1.063400             -1.222094
| 22>   H                      -1.160744            0.081916             -0.887985
| 23> *
| 24>
| 25> #Run DFT-D3 single point of the molecule with dimer basis set
| 26> $new_job
| 27> %base "8-30_DFT_A"
| 28> ! wB97X-D3 def2-TZVP TIGHTSCF CHELPG PMODEL
| 29>
| 30> %scf
| 31> MaxIter 1000
| 32> end
| 33>
| 34> * xyz 0 1
| 35>   C                      1.242681             -1.490844            -1.242399
| 36>   O                      2.017750             -2.223303            -0.392427
| 37>   H                      2.854270             -2.385998            -0.915143
| 38>   H                      0.235646             -1.382705            -0.890573
| 39>   H                      1.563453             -0.460555            -1.422829
| 40>   H                      1.015853             -1.921014            -2.215583
| 41>   C                    : -2.240861            0.064806             -1.018543
| 42>   O                    : -2.993806            -0.543305            -0.032468
| 43>   H                    : -2.582195            -1.426782            0.155260
| 44>   H                    : -2.285940            -0.606545            -1.937746
| 45>   H                    : -2.732843            1.063400             -1.222094
| 46>   H                    : -1.160744            0.081916             -0.887985
| 47> *
| 48>
| 49> #Run DFT-D3 single point of the particle with dimer basis set
| 50> $new_job
| 51> %base "8-30_DFT_B"
| 52> ! wB97X-D3 def2-TZVP TIGHTSCF CHELPG PMODEL
| 53>
| 54> %scf
| 55> MaxIter 1000
| 56> end
| 57>
| 58> * xyz 0 1
| 59>   C                    : 1.242681             -1.490844            -1.242399
| 60>   O                    : 2.017750             -2.223303            -0.392427
| 61>   H                    : 2.854270             -2.385998            -0.915143
| 62>   H                    : 0.235646             -1.382705            -0.890573
| 63>   H                    : 1.563453             -0.460555            -1.422829
| 64>   H                    : 1.015853             -1.921014            -2.215583
| 65>   C                      -2.240861            0.064806             -1.018543
| 66>   O                      -2.993806            -0.543305            -0.032468
| 67>   H                      -2.582195            -1.426782            0.155260
| 68>   H                      -2.285940            -0.606545            -1.937746
| 69>   H                      -2.732843            1.063400             -1.222094
| 70>   H                      -1.160744            0.081916             -0.887985
| 71> *
| 72>
| 73>                          ****END OF INPUT****
 Total Charge           Charge          ....    0
 Multiplicity           Mult            ....    1
 Number of Electrons    NEL             ....   36
Dispersion correction           -0.001562116
FINAL SINGLE POINT ENERGY      -231.458056891797
Dispersion correction           -0.000235095
FINAL SINGLE POINT ENERGY      -115.729747818443

CARTESIAN COORDINATES (ANGSTROEM)
---------------------------------
  C      1.242681   -1.490844   -1.242399
  O      2.017750   -2.223303   -0.392427
  H      2.854270   -2.385998   -0.915143
  H      0.235646   -1.382705   -0.890573
  H      1.563453   -0.460555   -1.422829
  H      1.015853   -1.921014   -2.215583
  C     -2.240861    0.064806   -1.018543
  O     -2.993806   -0.543305   -0.032468
  H     -2.582195   -1.426782    0.155260
  H     -2.285940   -0.606545   -1.937746
  H     -2.732843    1.063400   -1.222094
  H     -1.160744    0.081916   -0.887985

 Multiplicity           Mult            ....    1
 Number of Electrons    NEL             ....   18
 Basis Dimension        Dim             ....  172

ORBITAL ENERGIES
----------------

  NO   OCC          E(Eh)            E(eV)
   0   2.0000     -19.234339      -523.3930
   1   2.0000     -10.318476      -280.7800
   2   2.0000      -1.142796       -31.0971
   3   2.0000      -0.785109       -21.3639
   4   2.0000      -0.621766       -16.9191
   5   2.0000      -0.530744       -14.4423
   6   2.0000      -0.526468       -14.3259
   7   2.0000      -0.439376       -11.9560
   8   2.0000      -0.363893        -9.9020
   9   0.0000       0.075721         2.0605
  10   0.0000       0.114042         3.1032
  11   0.0000       0.148970         4.0537
  12   0.0000       0.176540         4.8039
  13   0.0000       0.182021         4.9531

MULLIKEN ATOMIC CHARGES
-----------------------
   0 C :   -0.005674
   1 O :    0.000013
   2 H :   -0.000012
   3 H :    0.006297
   4 H :   -0.000089
   5 H :    0.000344
   6 C :   -0.171651
   7 O :   -0.463047
   8 H :    0.316462
   9 H :    0.087406
  10 H :    0.125749
  11 H :    0.104202
Sum of atomic charges:    0.0000000

LOEWDIN ATOMIC CHARGES
----------------------
   0 C :   -0.006540
   1 O :   -0.000024
   2 H :   -0.000012
   3 H :   -0.007863
   4 H :   -0.000887
   5 H :   -0.000166
   6 C :   -0.420511
   7 O :   -0.066834
   8 H :    0.189952
   9 H :    0.098788
  10 H :    0.118810
  11 H :    0.095285

  Mayer bond orders larger than 0.1
B(  6-C ,  7-O ) :   1.0008 B(  6-C ,  9-H ) :   0.9852 B(  6-C , 10-H ) :   0.9700
B(  6-C , 11-H ) :   0.9652 B(  7-O ,  8-H ) :   0.8933

Dispersion correction           -0.000228903
FINAL SINGLE POINT ENERGY      -115.728349643250

DIPOLE MOMENT
-------------
                                X             Y             Z
Electronic contribution:     -1.03607      -0.52788       1.46482
Nuclear contribution   :      1.57062       0.19462      -1.69153
                        -----------------------------------------
Total Dipole Moment    :      0.53455      -0.33326      -0.22671
                        -----------------------------------------
Magnitude (a.u.)       :      0.66948
Magnitude (Debye)      :      1.70168

Rotational constants in cm-1:     4.056318     0.871675     0.817334
Rotational constants in MHz : 121605.348444 26132.171112 24503.054608

                             ****ORCA TERMINATED NORMALLY****
TOTAL RUN TIME: 0 days 0 hours 0 minutes 43 seconds 443 msec
