                         Program Version 4.1.2  - RELEASE  -
|  1> #Run DFT-D3 single point of the dimer
|  2> ! wB97X-D3 def2-TZVP TIGHTSCF CHELPG PMODEL PAL8
|  3>
|  4> %base "3-28_DFT_AB"
|  5>
|  6> %scf
|  7> MaxIter 1000
|  8> end
|  9>
| 10> * xyz 0 1
| 11>   C                      -4.983724            -1.861540            -7.037725
| 12>   O                      -5.308556            -0.500746            -6.993364
| 13>   H                      -5.230599            -0.272961            -7.890385
| 14>   H                      -4.141318            -2.148880            -7.659056
| 15>   H                      -4.764248            -2.337265            -6.067641
| 16>   H                      -5.873911            -2.396272            -7.501663
| 17>   C                      -3.289817            3.839313             -6.482746
| 18>   O                      -4.185576            4.250906             -7.462851
| 19>   H                      -4.707539            3.455339             -7.545012
| 20>   H                      -3.645948            3.191517             -5.758856
| 21>   H                      -2.405513            3.242529             -6.901142
| 22>   H                      -2.662676            4.632680             -6.020365
| 23> *
| 24>
| 25> #Run DFT-D3 single point of the molecule with dimer basis set
| 26> $new_job
| 27> %base "3-28_DFT_A"
| 28> ! wB97X-D3 def2-TZVP TIGHTSCF CHELPG PMODEL
| 29>
| 30> %scf
| 31> MaxIter 1000
| 32> end
| 33>
| 34> * xyz 0 1
| 35>   C                      -4.983724            -1.861540            -7.037725
| 36>   O                      -5.308556            -0.500746            -6.993364
| 37>   H                      -5.230599            -0.272961            -7.890385
| 38>   H                      -4.141318            -2.148880            -7.659056
| 39>   H                      -4.764248            -2.337265            -6.067641
| 40>   H                      -5.873911            -2.396272            -7.501663
| 41>   C                    : -3.289817            3.839313             -6.482746
| 42>   O                    : -4.185576            4.250906             -7.462851
| 43>   H                    : -4.707539            3.455339             -7.545012
| 44>   H                    : -3.645948            3.191517             -5.758856
| 45>   H                    : -2.405513            3.242529             -6.901142
| 46>   H                    : -2.662676            4.632680             -6.020365
| 47> *
| 48>
| 49> #Run DFT-D3 single point of the particle with dimer basis set
| 50> $new_job
| 51> %base "3-28_DFT_B"
| 52> ! wB97X-D3 def2-TZVP TIGHTSCF CHELPG PMODEL
| 53>
| 54> %scf
| 55> MaxIter 1000
| 56> end
| 57>
| 58> * xyz 0 1
| 59>   C                    : -4.983724            -1.861540            -7.037725
| 60>   O                    : -5.308556            -0.500746            -6.993364
| 61>   H                    : -5.230599            -0.272961            -7.890385
| 62>   H                    : -4.141318            -2.148880            -7.659056
| 63>   H                    : -4.764248            -2.337265            -6.067641
| 64>   H                    : -5.873911            -2.396272            -7.501663
| 65>   C                      -3.289817            3.839313             -6.482746
| 66>   O                      -4.185576            4.250906             -7.462851
| 67>   H                      -4.707539            3.455339             -7.545012
| 68>   H                      -3.645948            3.191517             -5.758856
| 69>   H                      -2.405513            3.242529             -6.901142
| 70>   H                      -2.662676            4.632680             -6.020365
| 71> *
| 72>
| 73>                          ****END OF INPUT****
 Total Charge           Charge          ....    0
 Multiplicity           Mult            ....    1
 Number of Electrons    NEL             ....   36
Dispersion correction           -0.000736359
FINAL SINGLE POINT ENERGY      -231.454317939788
Dispersion correction           -0.000226256
FINAL SINGLE POINT ENERGY      -115.729676859256

CARTESIAN COORDINATES (ANGSTROEM)
---------------------------------
  C     -4.983724   -1.861540   -7.037725
  O     -5.308556   -0.500746   -6.993364
  H     -5.230599   -0.272961   -7.890385
  H     -4.141318   -2.148880   -7.659056
  H     -4.764248   -2.337265   -6.067641
  H     -5.873911   -2.396272   -7.501663
  C     -3.289817    3.839313   -6.482746
  O     -4.185576    4.250906   -7.462851
  H     -4.707539    3.455339   -7.545012
  H     -3.645948    3.191517   -5.758856
  H     -2.405513    3.242529   -6.901142
  H     -2.662676    4.632680   -6.020365

 Multiplicity           Mult            ....    1
 Number of Electrons    NEL             ....   18
 Basis Dimension        Dim             ....  172

ORBITAL ENERGIES
----------------

  NO   OCC          E(Eh)            E(eV)
   0   2.0000     -19.239204      -523.5254
   1   2.0000     -10.312584      -280.6197
   2   2.0000      -1.154648       -31.4196
   3   2.0000      -0.795792       -21.6546
   4   2.0000      -0.625244       -17.0138
   5   2.0000      -0.542282       -14.7562
   6   2.0000      -0.524107       -14.2617
   7   2.0000      -0.448962       -12.2169
   8   2.0000      -0.368577       -10.0295
   9   0.0000       0.075942         2.0665
  10   0.0000       0.109397         2.9769
  11   0.0000       0.148994         4.0543
  12   0.0000       0.172967         4.7067
  13   0.0000       0.188153         5.1199

MULLIKEN ATOMIC CHARGES
-----------------------
   0 C :   -0.000002
   1 O :    0.000002
   2 H :   -0.000081
   3 H :    0.000001
   4 H :   -0.000000
   5 H :   -0.000001
   6 C :   -0.197053
   7 O :   -0.443048
   8 H :    0.317134
   9 H :    0.120204
  10 H :    0.084761
  11 H :    0.118082
Sum of atomic charges:    0.0000000

LOEWDIN ATOMIC CHARGES
----------------------
   0 C :   -0.000007
   1 O :   -0.000029
   2 H :   -0.000089
   3 H :   -0.000000
   4 H :   -0.000000
   5 H :   -0.000000
   6 C :   -0.423105
   7 O :   -0.046817
   8 H :    0.176602
   9 H :    0.081333
  10 H :    0.099716
  11 H :    0.112397

  Mayer bond orders larger than 0.1
B(  6-C ,  7-O ) :   1.0119 B(  6-C ,  9-H ) :   0.9752 B(  6-C , 10-H ) :   0.9740
B(  6-C , 11-H ) :   0.9758 B(  7-O ,  8-H ) :   0.9019

Dispersion correction           -0.000235394
FINAL SINGLE POINT ENERGY      -115.723661148624

DIPOLE MOMENT
-------------
                                X             Y             Z
Electronic contribution:     -1.46970       0.81021      -1.26522
Nuclear contribution   :      1.45673      -1.45275       1.58794
                        -----------------------------------------
Total Dipole Moment    :     -0.01296      -0.64254       0.32272
                        -----------------------------------------
Magnitude (a.u.)       :      0.71915
Magnitude (Debye)      :      1.82793

Rotational constants in cm-1:     4.463757     0.848999     0.809188
Rotational constants in MHz : 133820.054334 25452.339469 24258.860206

                             ****ORCA TERMINATED NORMALLY****
TOTAL RUN TIME: 0 days 0 hours 6 minutes 14 seconds 477 msec
