                         Program Version 4.1.2  - RELEASE  -
|  1> #Run DFT-D3 single point of the dimer
|  2> ! wB97X-D3 def2-TZVP TIGHTSCF CHELPG PMODEL PAL8
|  3>
|  4> %base "2-127_DFT_AB"
|  5>
|  6> %scf
|  7> MaxIter 1000
|  8> end
|  9>
| 10> * xyz 0 1
| 11>   C                      0.388477             4.100360             7.695616
| 12>   O                      -0.947411            4.692757             7.944071
| 13>   H                      -1.091817            5.388982             7.292805
| 14>   H                      1.164795             4.910124             7.802517
| 15>   H                      0.723529             3.246645             8.329768
| 16>   H                      0.383064             3.620852             6.668489
| 17>   C                      -0.158356            9.506197             3.981543
| 18>   O                      -0.410471            8.158518             3.815830
| 19>   H                      0.393744             7.667537             4.016496
| 20>   H                      0.655024             9.876577             3.386324
| 21>   H                      -1.039333            10.052744            3.675761
| 22>   H                      0.122370             9.895403             4.954957
| 23> *
| 24>
| 25> #Run DFT-D3 single point of the molecule with dimer basis set
| 26> $new_job
| 27> %base "2-127_DFT_A"
| 28> ! wB97X-D3 def2-TZVP TIGHTSCF CHELPG PMODEL
| 29>
| 30> %scf
| 31> MaxIter 1000
| 32> end
| 33>
| 34> * xyz 0 1
| 35>   C                      0.388477             4.100360             7.695616
| 36>   O                      -0.947411            4.692757             7.944071
| 37>   H                      -1.091817            5.388982             7.292805
| 38>   H                      1.164795             4.910124             7.802517
| 39>   H                      0.723529             3.246645             8.329768
| 40>   H                      0.383064             3.620852             6.668489
| 41>   C                    : -0.158356            9.506197             3.981543
| 42>   O                    : -0.410471            8.158518             3.815830
| 43>   H                    : 0.393744             7.667537             4.016496
| 44>   H                    : 0.655024             9.876577             3.386324
| 45>   H                    : -1.039333            10.052744            3.675761
| 46>   H                    : 0.122370             9.895403             4.954957
| 47> *
| 48>
| 49> #Run DFT-D3 single point of the particle with dimer basis set
| 50> $new_job
| 51> %base "2-127_DFT_B"
| 52> ! wB97X-D3 def2-TZVP TIGHTSCF CHELPG PMODEL
| 53>
| 54> %scf
| 55> MaxIter 1000
| 56> end
| 57>
| 58> * xyz 0 1
| 59>   C                    : 0.388477             4.100360             7.695616
| 60>   O                    : -0.947411            4.692757             7.944071
| 61>   H                    : -1.091817            5.388982             7.292805
| 62>   H                    : 1.164795             4.910124             7.802517
| 63>   H                    : 0.723529             3.246645             8.329768
| 64>   H                    : 0.383064             3.620852             6.668489
| 65>   C                      -0.158356            9.506197             3.981543
| 66>   O                      -0.410471            8.158518             3.815830
| 67>   H                      0.393744             7.667537             4.016496
| 68>   H                      0.655024             9.876577             3.386324
| 69>   H                      -1.039333            10.052744            3.675761
| 70>   H                      0.122370             9.895403             4.954957
| 71> *
| 72>
| 73>                          ****END OF INPUT****
 Total Charge           Charge          ....    0
 Multiplicity           Mult            ....    1
 Number of Electrons    NEL             ....   36
Dispersion correction           -0.000676792
FINAL SINGLE POINT ENERGY      -231.460422529281
Dispersion correction           -0.000286752
FINAL SINGLE POINT ENERGY      -115.726635551669

CARTESIAN COORDINATES (ANGSTROEM)
---------------------------------
  C      0.388477    4.100360    7.695616
  O     -0.947411    4.692757    7.944071
  H     -1.091817    5.388982    7.292805
  H      1.164795    4.910124    7.802517
  H      0.723529    3.246645    8.329768
  H      0.383064    3.620852    6.668489
  C     -0.158356    9.506197    3.981543
  O     -0.410471    8.158518    3.815830
  H      0.393744    7.667537    4.016496
  H      0.655024    9.876577    3.386324
  H     -1.039333   10.052744    3.675761
  H      0.122370    9.895403    4.954957

 Multiplicity           Mult            ....    1
 Number of Electrons    NEL             ....   18
 Basis Dimension        Dim             ....  172

ORBITAL ENERGIES
----------------

  NO   OCC          E(Eh)            E(eV)
   0   2.0000     -19.234581      -523.3996
   1   2.0000     -10.304996      -280.4132
   2   2.0000      -1.147464       -31.2241
   3   2.0000      -0.800173       -21.7738
   4   2.0000      -0.626024       -17.0350
   5   2.0000      -0.536999       -14.6125
   6   2.0000      -0.530928       -14.4473
   7   2.0000      -0.437342       -11.9007
   8   2.0000      -0.372664       -10.1407
   9   0.0000       0.083970         2.2849
  10   0.0000       0.117471         3.1966
  11   0.0000       0.153427         4.1750
  12   0.0000       0.167847         4.5673
  13   0.0000       0.197067         5.3625

MULLIKEN ATOMIC CHARGES
-----------------------
   0 C :    0.000044
   1 O :    0.000051
   2 H :   -0.000422
   3 H :   -0.000012
   4 H :   -0.000002
   5 H :   -0.000007
   6 C :   -0.157016
   7 O :   -0.463131
   8 H :    0.315666
   9 H :    0.096683
  10 H :    0.117981
  11 H :    0.090164
Sum of atomic charges:   -0.0000000

LOEWDIN ATOMIC CHARGES
----------------------
   0 C :   -0.000016
   1 O :   -0.000006
   2 H :   -0.000214
   3 H :   -0.000004
   4 H :   -0.000000
   5 H :   -0.000001
   6 C :   -0.414733
   7 O :   -0.046622
   8 H :    0.174414
   9 H :    0.089086
  10 H :    0.108617
  11 H :    0.089481

  Mayer bond orders larger than 0.1
B(  6-C ,  7-O ) :   1.0126 B(  6-C ,  9-H ) :   0.9797 B(  6-C , 10-H ) :   0.9776
B(  6-C , 11-H ) :   0.9687 B(  7-O ,  8-H ) :   0.8968

Dispersion correction           -0.000242739
FINAL SINGLE POINT ENERGY      -115.733476027569

DIPOLE MOMENT
-------------
                                X             Y             Z
Electronic contribution:     -0.48609      -1.88170      -0.21981
Nuclear contribution   :      1.09776       2.07878       0.39729
                        -----------------------------------------
Total Dipole Moment    :      0.61167       0.19708       0.17747
                        -----------------------------------------
Magnitude (a.u.)       :      0.66669
Magnitude (Debye)      :      1.69460

Rotational constants in cm-1:     4.566545     0.856987     0.818168
Rotational constants in MHz : 136901.575849 25691.812061 24528.072577

                             ****ORCA TERMINATED NORMALLY****
TOTAL RUN TIME: 0 days 0 hours 6 minutes 22 seconds 484 msec
