                         Program Version 4.1.2  - RELEASE  -
|  1> #Run DFT-D3 single point of the dimer
|  2> ! wB97X-D3 def2-TZVP TIGHTSCF CHELPG PMODEL PAL8
|  3>
|  4> %base "7-17_DFT_AB"
|  5>
|  6> %scf
|  7> MaxIter 1000
|  8> end
|  9>
| 10> * xyz 0 1
| 11>   C                      -1.043704            -4.234054            3.067058
| 12>   O                      -0.967894            -4.898226            4.364749
| 13>   H                      -1.811567            -5.220936            4.592340
| 14>   H                      -1.580061            -3.307889            3.073810
| 15>   H                      -0.006759            -3.989458            2.723288
| 16>   H                      -1.542091            -4.895781            2.312860
| 17>   C                      -3.822088            -6.871713            6.537314
| 18>   O                      -3.235717            -6.344426            5.348432
| 19>   H                      -3.302190            -7.080030            4.760538
| 20>   H                      -3.472356            -6.333496            7.412923
| 21>   H                      -4.918826            -6.796098            6.402369
| 22>   H                      -3.543735            -7.890104            6.788116
| 23> *
| 24>
| 25> #Run DFT-D3 single point of the molecule with dimer basis set
| 26> $new_job
| 27> %base "7-17_DFT_A"
| 28> ! wB97X-D3 def2-TZVP TIGHTSCF CHELPG PMODEL
| 29>
| 30> %scf
| 31> MaxIter 1000
| 32> end
| 33>
| 34> * xyz 0 1
| 35>   C                      -1.043704            -4.234054            3.067058
| 36>   O                      -0.967894            -4.898226            4.364749
| 37>   H                      -1.811567            -5.220936            4.592340
| 38>   H                      -1.580061            -3.307889            3.073810
| 39>   H                      -0.006759            -3.989458            2.723288
| 40>   H                      -1.542091            -4.895781            2.312860
| 41>   C                    : -3.822088            -6.871713            6.537314
| 42>   O                    : -3.235717            -6.344426            5.348432
| 43>   H                    : -3.302190            -7.080030            4.760538
| 44>   H                    : -3.472356            -6.333496            7.412923
| 45>   H                    : -4.918826            -6.796098            6.402369
| 46>   H                    : -3.543735            -7.890104            6.788116
| 47> *
| 48>
| 49> #Run DFT-D3 single point of the particle with dimer basis set
| 50> $new_job
| 51> %base "7-17_DFT_B"
| 52> ! wB97X-D3 def2-TZVP TIGHTSCF CHELPG PMODEL
| 53>
| 54> %scf
| 55> MaxIter 1000
| 56> end
| 57>
| 58> * xyz 0 1
| 59>   C                    : -1.043704            -4.234054            3.067058
| 60>   O                    : -0.967894            -4.898226            4.364749
| 61>   H                    : -1.811567            -5.220936            4.592340
| 62>   H                    : -1.580061            -3.307889            3.073810
| 63>   H                    : -0.006759            -3.989458            2.723288
| 64>   H                    : -1.542091            -4.895781            2.312860
| 65>   C                      -3.822088            -6.871713            6.537314
| 66>   O                      -3.235717            -6.344426            5.348432
| 67>   H                      -3.302190            -7.080030            4.760538
| 68>   H                      -3.472356            -6.333496            7.412923
| 69>   H                      -4.918826            -6.796098            6.402369
| 70>   H                      -3.543735            -7.890104            6.788116
| 71> *
| 72>
| 73>                          ****END OF INPUT****
 Total Charge           Charge          ....    0
 Multiplicity           Mult            ....    1
 Number of Electrons    NEL             ....   36
Dispersion correction           -0.001413672
FINAL SINGLE POINT ENERGY      -231.473018856234
Dispersion correction           -0.000268682
FINAL SINGLE POINT ENERGY      -115.733705137560

CARTESIAN COORDINATES (ANGSTROEM)
---------------------------------
  C     -1.043704   -4.234054    3.067058
  O     -0.967894   -4.898226    4.364749
  H     -1.811567   -5.220936    4.592340
  H     -1.580061   -3.307889    3.073810
  H     -0.006759   -3.989458    2.723288
  H     -1.542091   -4.895781    2.312860
  C     -3.822088   -6.871713    6.537314
  O     -3.235717   -6.344426    5.348432
  H     -3.302190   -7.080030    4.760538
  H     -3.472356   -6.333496    7.412923
  H     -4.918826   -6.796098    6.402369
  H     -3.543735   -7.890104    6.788116

 Multiplicity           Mult            ....    1
 Number of Electrons    NEL             ....   18
 Basis Dimension        Dim             ....  172

ORBITAL ENERGIES
----------------

  NO   OCC          E(Eh)            E(eV)
   0   2.0000     -19.231556      -523.3172
   1   2.0000     -10.313838      -280.6538
   2   2.0000      -1.140732       -31.0409
   3   2.0000      -0.795772       -21.6541
   4   2.0000      -0.609517       -16.5858
   5   2.0000      -0.550600       -14.9826
   6   2.0000      -0.519276       -14.1302
   7   2.0000      -0.440924       -11.9981
   8   2.0000      -0.376352       -10.2410
   9   0.0000       0.097796         2.6612
  10   0.0000       0.122106         3.3227
  11   0.0000       0.155497         4.2313
  12   0.0000       0.188871         5.1394
  13   0.0000       0.200469         5.4551

MULLIKEN ATOMIC CHARGES
-----------------------
   0 C :    0.001431
   1 O :    0.000148
   2 H :   -0.013728
   3 H :   -0.000174
   4 H :   -0.000014
   5 H :   -0.000389
   6 C :   -0.178016
   7 O :   -0.452446
   8 H :    0.311794
   9 H :    0.120045
  10 H :    0.107152
  11 H :    0.104197
Sum of atomic charges:    0.0000000

LOEWDIN ATOMIC CHARGES
----------------------
   0 C :   -0.001128
   1 O :   -0.006521
   2 H :   -0.040204
   3 H :   -0.000030
   4 H :   -0.000016
   5 H :   -0.000102
   6 C :   -0.377968
   7 O :   -0.038070
   8 H :    0.162482
   9 H :    0.106269
  10 H :    0.101781
  11 H :    0.093506

  Mayer bond orders larger than 0.1
B(  6-C ,  7-O ) :   0.9919 B(  6-C ,  9-H ) :   0.9761 B(  6-C , 10-H ) :   0.9781
B(  6-C , 11-H ) :   0.9716 B(  7-O ,  8-H ) :   0.9033

Dispersion correction           -0.000228393
FINAL SINGLE POINT ENERGY      -115.733063976525

DIPOLE MOMENT
-------------
                                X             Y             Z
Electronic contribution:      0.79990       0.80372      -1.45629
Nuclear contribution   :     -1.05238      -1.48646       1.57521
                        -----------------------------------------
Total Dipole Moment    :     -0.25248      -0.68274       0.11892
                        -----------------------------------------
Magnitude (a.u.)       :      0.73758
Magnitude (Debye)      :      1.87479

Rotational constants in cm-1:     4.284620     0.822448     0.801085
Rotational constants in MHz : 128449.666912 24656.374461 24015.915254

                             ****ORCA TERMINATED NORMALLY****
TOTAL RUN TIME: 0 days 0 hours 1 minutes 8 seconds 204 msec
