                         Program Version 4.1.2  - RELEASE  -
|  1> #Run DFT-D3 single point of the dimer
|  2> ! wB97X-D3 def2-TZVP TIGHTSCF CHELPG PMODEL PAL8
|  3>
|  4> %base "14-3_DFT_AB"
|  5>
|  6> %scf
|  7> MaxIter 1000
|  8> end
|  9>
| 10> * xyz 0 1
| 11>   C                      2.263257             -4.148155            5.412082
| 12>   O                      2.954997             -4.750595            6.535683
| 13>   H                      3.854224             -4.751128            6.203519
| 14>   H                      2.189910             -3.055356            5.686844
| 15>   H                      2.686634             -4.323060            4.395248
| 16>   H                      1.297417             -4.690642            5.387383
| 17>   C                      4.066986             -8.339112            6.248650
| 18>   O                      4.629297             -9.524087            5.705682
| 19>   H                      4.602639             -10.203734           6.382518
| 20>   H                      4.664604             -7.882240            6.979995
| 21>   H                      3.936144             -7.518399            5.467593
| 22>   H                      3.111295             -8.558080            6.600876
| 23> *
| 24>
| 25> #Run DFT-D3 single point of the molecule with dimer basis set
| 26> $new_job
| 27> %base "14-3_DFT_A"
| 28> ! wB97X-D3 def2-TZVP TIGHTSCF CHELPG PMODEL
| 29>
| 30> %scf
| 31> MaxIter 1000
| 32> end
| 33>
| 34> * xyz 0 1
| 35>   C                      2.263257             -4.148155            5.412082
| 36>   O                      2.954997             -4.750595            6.535683
| 37>   H                      3.854224             -4.751128            6.203519
| 38>   H                      2.189910             -3.055356            5.686844
| 39>   H                      2.686634             -4.323060            4.395248
| 40>   H                      1.297417             -4.690642            5.387383
| 41>   C                    : 4.066986             -8.339112            6.248650
| 42>   O                    : 4.629297             -9.524087            5.705682
| 43>   H                    : 4.602639             -10.203734           6.382518
| 44>   H                    : 4.664604             -7.882240            6.979995
| 45>   H                    : 3.936144             -7.518399            5.467593
| 46>   H                    : 3.111295             -8.558080            6.600876
| 47> *
| 48>
| 49> #Run DFT-D3 single point of the particle with dimer basis set
| 50> $new_job
| 51> %base "14-3_DFT_B"
| 52> ! wB97X-D3 def2-TZVP TIGHTSCF CHELPG PMODEL
| 53>
| 54> %scf
| 55> MaxIter 1000
| 56> end
| 57>
| 58> * xyz 0 1
| 59>   C                    : 2.263257             -4.148155            5.412082
| 60>   O                    : 2.954997             -4.750595            6.535683
| 61>   H                    : 3.854224             -4.751128            6.203519
| 62>   H                    : 2.189910             -3.055356            5.686844
| 63>   H                    : 2.686634             -4.323060            4.395248
| 64>   H                    : 1.297417             -4.690642            5.387383
| 65>   C                      4.066986             -8.339112            6.248650
| 66>   O                      4.629297             -9.524087            5.705682
| 67>   H                      4.602639             -10.203734           6.382518
| 68>   H                      4.664604             -7.882240            6.979995
| 69>   H                      3.936144             -7.518399            5.467593
| 70>   H                      3.111295             -8.558080            6.600876
| 71> *
| 72>
| 73>                          ****END OF INPUT****
 Total Charge           Charge          ....    0
 Multiplicity           Mult            ....    1
 Number of Electrons    NEL             ....   36
Dispersion correction           -0.001351021
FINAL SINGLE POINT ENERGY      -231.461192035959
Dispersion correction           -0.000245725
FINAL SINGLE POINT ENERGY      -115.728837975999

CARTESIAN COORDINATES (ANGSTROEM)
---------------------------------
  C      2.263257   -4.148155    5.412082
  O      2.954997   -4.750595    6.535683
  H      3.854224   -4.751128    6.203519
  H      2.189910   -3.055356    5.686844
  H      2.686634   -4.323060    4.395248
  H      1.297417   -4.690642    5.387383
  C      4.066986   -8.339112    6.248650
  O      4.629297   -9.524087    5.705682
  H      4.602639  -10.203734    6.382518
  H      4.664604   -7.882240    6.979995
  H      3.936144   -7.518399    5.467593
  H      3.111295   -8.558080    6.600876

 Multiplicity           Mult            ....    1
 Number of Electrons    NEL             ....   18
 Basis Dimension        Dim             ....  172

ORBITAL ENERGIES
----------------

  NO   OCC          E(Eh)            E(eV)
   0   2.0000     -19.228822      -523.2429
   1   2.0000     -10.307507      -280.4815
   2   2.0000      -1.133781       -30.8518
   3   2.0000      -0.800266       -21.7763
   4   2.0000      -0.609430       -16.5834
   5   2.0000      -0.555482       -15.1154
   6   2.0000      -0.522007       -14.2045
   7   2.0000      -0.427777       -11.6404
   8   2.0000      -0.376404       -10.2425
   9   0.0000       0.081642         2.2216
  10   0.0000       0.118169         3.2155
  11   0.0000       0.146342         3.9822
  12   0.0000       0.175474         4.7749
  13   0.0000       0.183189         4.9848

MULLIKEN ATOMIC CHARGES
-----------------------
   0 C :    0.000146
   1 O :    0.000058
   2 H :   -0.000478
   3 H :   -0.000012
   4 H :   -0.000143
   5 H :   -0.000047
   6 C :   -0.156413
   7 O :   -0.480185
   8 H :    0.314320
   9 H :    0.106334
  10 H :    0.111693
  11 H :    0.104726
Sum of atomic charges:   -0.0000000

LOEWDIN ATOMIC CHARGES
----------------------
   0 C :   -0.000646
   1 O :   -0.000572
   2 H :   -0.001082
   3 H :   -0.000008
   4 H :   -0.000121
   5 H :   -0.000039
   6 C :   -0.374168
   7 O :   -0.081403
   8 H :    0.168095
   9 H :    0.085569
  10 H :    0.119201
  11 H :    0.085174

  Mayer bond orders larger than 0.1
B(  6-C ,  7-O ) :   0.9984 B(  6-C ,  9-H ) :   0.9737 B(  6-C , 10-H ) :   0.9732
B(  6-C , 11-H ) :   0.9857 B(  7-O ,  8-H ) :   0.8987

Dispersion correction           -0.000234261
FINAL SINGLE POINT ENERGY      -115.730892713272

DIPOLE MOMENT
-------------
                                X             Y             Z
Electronic contribution:      0.75594      -1.49603      -0.70740
Nuclear contribution   :     -1.01117       1.55096       1.37106
                        -----------------------------------------
Total Dipole Moment    :     -0.25524       0.05493       0.66366
                        -----------------------------------------
Magnitude (a.u.)       :      0.71317
Magnitude (Debye)      :      1.81273

Rotational constants in cm-1:     4.473579     0.825028     0.795731
Rotational constants in MHz : 134114.523348 24733.715373 23855.411184

                             ****ORCA TERMINATED NORMALLY****
TOTAL RUN TIME: 0 days 0 hours 1 minutes 9 seconds 953 msec
