                         Program Version 4.1.2  - RELEASE  -
|  1> #Run DFT-D3 single point of the dimer
|  2> ! wB97X-D3 def2-TZVP TIGHTSCF CHELPG PMODEL PAL8
|  3>
|  4> %base "17-55_DFT_AB"
|  5>
|  6> %scf
|  7> MaxIter 1000
|  8> end
|  9>
| 10> * xyz 0 1
| 11>   C                      -8.719428            -0.806688            2.256153
| 12>   O                      -10.041191           -1.234781            2.494380
| 13>   H                      -10.144787           -1.521010            3.361301
| 14>   H                      -8.220031            -0.383521            3.209562
| 15>   H                      -8.128405            -1.587988            1.732554
| 16>   H                      -8.726105            0.059084             1.528395
| 17>   C                      -7.625825            -2.118438            6.216507
| 18>   O                      -6.382549            -1.543956            6.599083
| 19>   H                      -6.301052            -0.573742            6.507122
| 20>   H                      -7.759299            -3.193026            6.659678
| 21>   H                      -8.447343            -1.473519            6.457667
| 22>   H                      -7.672048            -2.337438            5.139044
| 23> *
| 24>
| 25> #Run DFT-D3 single point of the molecule with dimer basis set
| 26> $new_job
| 27> %base "17-55_DFT_A"
| 28> ! wB97X-D3 def2-TZVP TIGHTSCF CHELPG PMODEL
| 29>
| 30> %scf
| 31> MaxIter 1000
| 32> end
| 33>
| 34> * xyz 0 1
| 35>   C                      -8.719428            -0.806688            2.256153
| 36>   O                      -10.041191           -1.234781            2.494380
| 37>   H                      -10.144787           -1.521010            3.361301
| 38>   H                      -8.220031            -0.383521            3.209562
| 39>   H                      -8.128405            -1.587988            1.732554
| 40>   H                      -8.726105            0.059084             1.528395
| 41>   C                    : -7.625825            -2.118438            6.216507
| 42>   O                    : -6.382549            -1.543956            6.599083
| 43>   H                    : -6.301052            -0.573742            6.507122
| 44>   H                    : -7.759299            -3.193026            6.659678
| 45>   H                    : -8.447343            -1.473519            6.457667
| 46>   H                    : -7.672048            -2.337438            5.139044
| 47> *
| 48>
| 49> #Run DFT-D3 single point of the particle with dimer basis set
| 50> $new_job
| 51> %base "17-55_DFT_B"
| 52> ! wB97X-D3 def2-TZVP TIGHTSCF CHELPG PMODEL
| 53>
| 54> %scf
| 55> MaxIter 1000
| 56> end
| 57>
| 58> * xyz 0 1
| 59>   C                    : -8.719428            -0.806688            2.256153
| 60>   O                    : -10.041191           -1.234781            2.494380
| 61>   H                    : -10.144787           -1.521010            3.361301
| 62>   H                    : -8.220031            -0.383521            3.209562
| 63>   H                    : -8.128405            -1.587988            1.732554
| 64>   H                    : -8.726105            0.059084             1.528395
| 65>   C                      -7.625825            -2.118438            6.216507
| 66>   O                      -6.382549            -1.543956            6.599083
| 67>   H                      -6.301052            -0.573742            6.507122
| 68>   H                      -7.759299            -3.193026            6.659678
| 69>   H                      -8.447343            -1.473519            6.457667
| 70>   H                      -7.672048            -2.337438            5.139044
| 71> *
| 72>
| 73>                          ****END OF INPUT****
 Total Charge           Charge          ....    0
 Multiplicity           Mult            ....    1
 Number of Electrons    NEL             ....   36
Dispersion correction           -0.001444549
FINAL SINGLE POINT ENERGY      -231.459876057838
Dispersion correction           -0.000267392
FINAL SINGLE POINT ENERGY      -115.730499773871

CARTESIAN COORDINATES (ANGSTROEM)
---------------------------------
  C     -8.719428   -0.806688    2.256153
  O    -10.041191   -1.234781    2.494380
  H    -10.144787   -1.521010    3.361301
  H     -8.220031   -0.383521    3.209562
  H     -8.128405   -1.587988    1.732554
  H     -8.726105    0.059084    1.528395
  C     -7.625825   -2.118438    6.216507
  O     -6.382549   -1.543956    6.599083
  H     -6.301052   -0.573742    6.507122
  H     -7.759299   -3.193026    6.659678
  H     -8.447343   -1.473519    6.457667
  H     -7.672048   -2.337438    5.139044

 Multiplicity           Mult            ....    1
 Number of Electrons    NEL             ....   18
 Basis Dimension        Dim             ....  172

ORBITAL ENERGIES
----------------

  NO   OCC          E(Eh)            E(eV)
   0   2.0000     -19.229006      -523.2479
   1   2.0000     -10.320825      -280.8439
   2   2.0000      -1.125085       -30.6151
   3   2.0000      -0.793858       -21.6020
   4   2.0000      -0.611215       -16.6320
   5   2.0000      -0.541065       -14.7231
   6   2.0000      -0.517052       -14.0697
   7   2.0000      -0.423350       -11.5199
   8   2.0000      -0.369672       -10.0593
   9   0.0000       0.080904         2.2015
  10   0.0000       0.115121         3.1326
  11   0.0000       0.143787         3.9126
  12   0.0000       0.166420         4.5285
  13   0.0000       0.183366         4.9896

MULLIKEN ATOMIC CHARGES
-----------------------
   0 C :   -0.001833
   1 O :    0.000221
   2 H :   -0.000646
   3 H :    0.001957
   4 H :   -0.000138
   5 H :    0.000035
   6 C :   -0.157326
   7 O :   -0.495544
   8 H :    0.321689
   9 H :    0.116258
  10 H :    0.110538
  11 H :    0.104789
Sum of atomic charges:    0.0000000

LOEWDIN ATOMIC CHARGES
----------------------
   0 C :   -0.002471
   1 O :   -0.000042
   2 H :   -0.000710
   3 H :   -0.001124
   4 H :   -0.000164
   5 H :   -0.000024
   6 C :   -0.385147
   7 O :   -0.095802
   8 H :    0.177067
   9 H :    0.122385
  10 H :    0.090709
  11 H :    0.095321

  Mayer bond orders larger than 0.1
B(  6-C ,  7-O ) :   0.9973 B(  6-C ,  9-H ) :   0.9672 B(  6-C , 10-H ) :   0.9784
B(  6-C , 11-H ) :   0.9742 B(  7-O ,  8-H ) :   0.8875

Dispersion correction           -0.000276638
FINAL SINGLE POINT ENERGY      -115.728856893395

DIPOLE MOMENT
-------------
                                X             Y             Z
Electronic contribution:      1.58554       0.74920       0.57303
Nuclear contribution   :     -2.05521      -0.33776      -0.79806
                        -----------------------------------------
Total Dipole Moment    :     -0.46967       0.41144      -0.22502
                        -----------------------------------------
Magnitude (a.u.)       :      0.66371
Magnitude (Debye)      :      1.68701

Rotational constants in cm-1:     4.316570     0.807168     0.772681
Rotational constants in MHz : 129407.503542 24198.298243 23164.397578

                             ****ORCA TERMINATED NORMALLY****
TOTAL RUN TIME: 0 days 0 hours 1 minutes 10 seconds 291 msec
