                         Program Version 4.1.2  - RELEASE  -
|  1> #Run DFT-D3 single point of the dimer
|  2> ! wB97X-D3 def2-TZVP TIGHTSCF CHELPG PMODEL PAL8
|  3>
|  4> %base "8-92_DFT_AB"
|  5>
|  6> %scf
|  7> MaxIter 1000
|  8> end
|  9>
| 10> * xyz 0 1
| 11>   C                      -4.288569            -3.454093            4.046615
| 12>   O                      -4.072984            -3.445141            5.450072
| 13>   H                      -3.608082            -2.611545            5.566733
| 14>   H                      -3.328369            -3.735090            3.527382
| 15>   H                      -4.996269            -4.232074            3.685555
| 16>   H                      -4.566862            -2.490800            3.649591
| 17>   C                      -0.290439            -5.175821            5.549866
| 18>   O                      0.225482             -4.442483            4.481468
| 19>   H                      0.245512             -4.926578            3.653445
| 20>   H                      0.327945             -6.084188            5.706868
| 21>   H                      -0.064656            -4.679792            6.488860
| 22>   H                      -1.417944            -5.373007            5.521078
| 23> *
| 24>
| 25> #Run DFT-D3 single point of the molecule with dimer basis set
| 26> $new_job
| 27> %base "8-92_DFT_A"
| 28> ! wB97X-D3 def2-TZVP TIGHTSCF CHELPG PMODEL
| 29>
| 30> %scf
| 31> MaxIter 1000
| 32> end
| 33>
| 34> * xyz 0 1
| 35>   C                      -4.288569            -3.454093            4.046615
| 36>   O                      -4.072984            -3.445141            5.450072
| 37>   H                      -3.608082            -2.611545            5.566733
| 38>   H                      -3.328369            -3.735090            3.527382
| 39>   H                      -4.996269            -4.232074            3.685555
| 40>   H                      -4.566862            -2.490800            3.649591
| 41>   C                    : -0.290439            -5.175821            5.549866
| 42>   O                    : 0.225482             -4.442483            4.481468
| 43>   H                    : 0.245512             -4.926578            3.653445
| 44>   H                    : 0.327945             -6.084188            5.706868
| 45>   H                    : -0.064656            -4.679792            6.488860
| 46>   H                    : -1.417944            -5.373007            5.521078
| 47> *
| 48>
| 49> #Run DFT-D3 single point of the particle with dimer basis set
| 50> $new_job
| 51> %base "8-92_DFT_B"
| 52> ! wB97X-D3 def2-TZVP TIGHTSCF CHELPG PMODEL
| 53>
| 54> %scf
| 55> MaxIter 1000
| 56> end
| 57>
| 58> * xyz 0 1
| 59>   C                    : -4.288569            -3.454093            4.046615
| 60>   O                    : -4.072984            -3.445141            5.450072
| 61>   H                    : -3.608082            -2.611545            5.566733
| 62>   H                    : -3.328369            -3.735090            3.527382
| 63>   H                    : -4.996269            -4.232074            3.685555
| 64>   H                    : -4.566862            -2.490800            3.649591
| 65>   C                      -0.290439            -5.175821            5.549866
| 66>   O                      0.225482             -4.442483            4.481468
| 67>   H                      0.245512             -4.926578            3.653445
| 68>   H                      0.327945             -6.084188            5.706868
| 69>   H                      -0.064656            -4.679792            6.488860
| 70>   H                      -1.417944            -5.373007            5.521078
| 71> *
| 72>
| 73>                          ****END OF INPUT****
 Total Charge           Charge          ....    0
 Multiplicity           Mult            ....    1
 Number of Electrons    NEL             ....   36
Dispersion correction           -0.001307928
FINAL SINGLE POINT ENERGY      -231.465975926860
Dispersion correction           -0.000235322
FINAL SINGLE POINT ENERGY      -115.732641459797

CARTESIAN COORDINATES (ANGSTROEM)
---------------------------------
  C     -4.288569   -3.454093    4.046615
  O     -4.072984   -3.445141    5.450072
  H     -3.608082   -2.611545    5.566733
  H     -3.328369   -3.735090    3.527382
  H     -4.996269   -4.232074    3.685555
  H     -4.566862   -2.490800    3.649591
  C     -0.290439   -5.175821    5.549866
  O      0.225482   -4.442483    4.481468
  H      0.245512   -4.926578    3.653445
  H      0.327945   -6.084188    5.706868
  H     -0.064656   -4.679792    6.488860
  H     -1.417944   -5.373007    5.521078

 Multiplicity           Mult            ....    1
 Number of Electrons    NEL             ....   18
 Basis Dimension        Dim             ....  172

ORBITAL ENERGIES
----------------

  NO   OCC          E(Eh)            E(eV)
   0   2.0000     -19.230234      -523.2813
   1   2.0000     -10.317678      -280.7583
   2   2.0000      -1.139532       -31.0082
   3   2.0000      -0.795683       -21.6516
   4   2.0000      -0.611297       -16.6342
   5   2.0000      -0.545819       -14.8525
   6   2.0000      -0.528146       -14.3716
   7   2.0000      -0.417573       -11.3627
   8   2.0000      -0.375433       -10.2161
   9   0.0000       0.084861         2.3092
  10   0.0000       0.122379         3.3301
  11   0.0000       0.147791         4.0216
  12   0.0000       0.170525         4.6402
  13   0.0000       0.185700         5.0531

MULLIKEN ATOMIC CHARGES
-----------------------
   0 C :    0.000449
   1 O :    0.000143
   2 H :   -0.000010
   3 H :   -0.001823
   4 H :    0.000009
   5 H :   -0.000018
   6 C :   -0.154462
   7 O :   -0.481851
   8 H :    0.319743
   9 H :    0.099466
  10 H :    0.119725
  11 H :    0.098629
Sum of atomic charges:    0.0000000

LOEWDIN ATOMIC CHARGES
----------------------
   0 C :   -0.000656
   1 O :   -0.000434
   2 H :   -0.000092
   3 H :   -0.000818
   4 H :   -0.000013
   5 H :   -0.000008
   6 C :   -0.410553
   7 O :   -0.063788
   8 H :    0.168521
   9 H :    0.098248
  10 H :    0.107243
  11 H :    0.102351

  Mayer bond orders larger than 0.1
B(  6-C ,  7-O ) :   1.0028 B(  6-C ,  9-H ) :   0.9831 B(  6-C , 10-H ) :   0.9709
B(  6-C , 11-H ) :   0.9668 B(  7-O ,  8-H ) :   0.8927

Dispersion correction           -0.000266647
FINAL SINGLE POINT ENERGY      -115.731538855001

DIPOLE MOMENT
-------------
                                X             Y             Z
Electronic contribution:      0.61080       1.07166      -1.40986
Nuclear contribution   :     -0.75584      -1.66399       1.31436
                        -----------------------------------------
Total Dipole Moment    :     -0.14504      -0.59233      -0.09550
                        -----------------------------------------
Magnitude (a.u.)       :      0.61726
Magnitude (Debye)      :      1.56895

Rotational constants in cm-1:     4.308285     0.825236     0.813777
Rotational constants in MHz : 129159.149731 24739.954767 24396.431140

                             ****ORCA TERMINATED NORMALLY****
TOTAL RUN TIME: 0 days 0 hours 0 minutes 44 seconds 821 msec
