                         Program Version 4.1.2  - RELEASE  -
|  1> #Run DFT-D3 single point of the dimer
|  2> ! wB97X-D3 def2-TZVP TIGHTSCF CHELPG PMODEL PAL8
|  3>
|  4> %base "9-111_DFT_AB"
|  5>
|  6> %scf
|  7> MaxIter 1000
|  8> end
|  9>
| 10> * xyz 0 1
| 11>   C                      -5.982742            -6.095501            1.316982
| 12>   O                      -6.760569            -4.916011            1.577320
| 13>   H                      -6.135223            -4.206989            1.780978
| 14>   H                      -5.438071            -6.346295            2.215708
| 15>   H                      -6.528076            -6.986041            1.068226
| 16>   H                      -5.230619            -5.928635            0.561390
| 17>   C                      -9.583994            -5.979449            -1.643900
| 18>   O                      -8.777595            -7.054590            -2.124363
| 19>   H                      -9.152976            -7.893258            -1.786761
| 20>   H                      -10.655389           -6.277400            -1.640308
| 21>   H                      -9.376461            -5.652733            -0.626942
| 22>   H                      -9.621946            -5.123964            -2.274368
| 23> *
| 24>
| 25> #Run DFT-D3 single point of the molecule with dimer basis set
| 26> $new_job
| 27> %base "9-111_DFT_A"
| 28> ! wB97X-D3 def2-TZVP TIGHTSCF CHELPG PMODEL
| 29>
| 30> %scf
| 31> MaxIter 1000
| 32> end
| 33>
| 34> * xyz 0 1
| 35>   C                      -5.982742            -6.095501            1.316982
| 36>   O                      -6.760569            -4.916011            1.577320
| 37>   H                      -6.135223            -4.206989            1.780978
| 38>   H                      -5.438071            -6.346295            2.215708
| 39>   H                      -6.528076            -6.986041            1.068226
| 40>   H                      -5.230619            -5.928635            0.561390
| 41>   C                    : -9.583994            -5.979449            -1.643900
| 42>   O                    : -8.777595            -7.054590            -2.124363
| 43>   H                    : -9.152976            -7.893258            -1.786761
| 44>   H                    : -10.655389           -6.277400            -1.640308
| 45>   H                    : -9.376461            -5.652733            -0.626942
| 46>   H                    : -9.621946            -5.123964            -2.274368
| 47> *
| 48>
| 49> #Run DFT-D3 single point of the particle with dimer basis set
| 50> $new_job
| 51> %base "9-111_DFT_B"
| 52> ! wB97X-D3 def2-TZVP TIGHTSCF CHELPG PMODEL
| 53>
| 54> %scf
| 55> MaxIter 1000
| 56> end
| 57>
| 58> * xyz 0 1
| 59>   C                    : -5.982742            -6.095501            1.316982
| 60>   O                    : -6.760569            -4.916011            1.577320
| 61>   H                    : -6.135223            -4.206989            1.780978
| 62>   H                    : -5.438071            -6.346295            2.215708
| 63>   H                    : -6.528076            -6.986041            1.068226
| 64>   H                    : -5.230619            -5.928635            0.561390
| 65>   C                      -9.583994            -5.979449            -1.643900
| 66>   O                      -8.777595            -7.054590            -2.124363
| 67>   H                      -9.152976            -7.893258            -1.786761
| 68>   H                      -10.655389           -6.277400            -1.640308
| 69>   H                      -9.376461            -5.652733            -0.626942
| 70>   H                      -9.621946            -5.123964            -2.274368
| 71> *
| 72>
| 73>                          ****END OF INPUT****
 Total Charge           Charge          ....    0
 Multiplicity           Mult            ....    1
 Number of Electrons    NEL             ....   36
Dispersion correction           -0.001096214
FINAL SINGLE POINT ENERGY      -231.466450805386
Dispersion correction           -0.000237401
FINAL SINGLE POINT ENERGY      -115.733097985936

CARTESIAN COORDINATES (ANGSTROEM)
---------------------------------
  C     -5.982742   -6.095501    1.316982
  O     -6.760569   -4.916011    1.577320
  H     -6.135223   -4.206989    1.780978
  H     -5.438071   -6.346295    2.215708
  H     -6.528076   -6.986041    1.068226
  H     -5.230619   -5.928635    0.561390
  C     -9.583994   -5.979449   -1.643900
  O     -8.777595   -7.054590   -2.124363
  H     -9.152976   -7.893258   -1.786761
  H    -10.655389   -6.277400   -1.640308
  H     -9.376461   -5.652733   -0.626942
  H     -9.621946   -5.123964   -2.274368

 Multiplicity           Mult            ....    1
 Number of Electrons    NEL             ....   18
 Basis Dimension        Dim             ....  172

ORBITAL ENERGIES
----------------

  NO   OCC          E(Eh)            E(eV)
   0   2.0000     -19.234692      -523.4026
   1   2.0000     -10.312935      -280.6292
   2   2.0000      -1.129489       -30.7350
   3   2.0000      -0.799013       -21.7422
   4   2.0000      -0.608080       -16.5467
   5   2.0000      -0.541691       -14.7402
   6   2.0000      -0.527562       -14.3557
   7   2.0000      -0.429506       -11.6874
   8   2.0000      -0.376705       -10.2507
   9   0.0000       0.086188         2.3453
  10   0.0000       0.114737         3.1221
  11   0.0000       0.147516         4.0141
  12   0.0000       0.172159         4.6847
  13   0.0000       0.182636         4.9698

MULLIKEN ATOMIC CHARGES
-----------------------
   0 C :    0.000595
   1 O :   -0.000141
   2 H :   -0.000029
   3 H :   -0.000042
   4 H :   -0.001398
   5 H :   -0.000029
   6 C :   -0.172530
   7 O :   -0.479337
   8 H :    0.321849
   9 H :    0.102889
  10 H :    0.103653
  11 H :    0.124521
Sum of atomic charges:    0.0000000

LOEWDIN ATOMIC CHARGES
----------------------
   0 C :   -0.000550
   1 O :   -0.000294
   2 H :   -0.000019
   3 H :   -0.000011
   4 H :   -0.000505
   5 H :   -0.000024
   6 C :   -0.380171
   7 O :   -0.093593
   8 H :    0.181822
   9 H :    0.100391
  10 H :    0.092905
  11 H :    0.100048

  Mayer bond orders larger than 0.1
B(  6-C ,  7-O ) :   1.0026 B(  6-C ,  9-H ) :   0.9876 B(  6-C , 10-H ) :   0.9702
B(  6-C , 11-H ) :   0.9726 B(  7-O ,  8-H ) :   0.8936

Dispersion correction           -0.000259095
FINAL SINGLE POINT ENERGY      -115.732147482892

DIPOLE MOMENT
-------------
                                X             Y             Z
Electronic contribution:      1.30195      -1.25593      -0.71373
Nuclear contribution   :     -1.89093       1.16273       1.09936
                        -----------------------------------------
Total Dipole Moment    :     -0.58898      -0.09320       0.38563
                        -----------------------------------------
Magnitude (a.u.)       :      0.71014
Magnitude (Debye)      :      1.80502

Rotational constants in cm-1:     4.442553     0.805414     0.781903
Rotational constants in MHz : 133184.400190 24145.712827 23440.875589

                             ****ORCA TERMINATED NORMALLY****
TOTAL RUN TIME: 0 days 0 hours 0 minutes 39 seconds 253 msec
