                         Program Version 4.1.2  - RELEASE  -
|  1> #Run DFT-D3 single point of the dimer
|  2> ! wB97X-D3 def2-TZVP TIGHTSCF CHELPG PMODEL PAL8
|  3>
|  4> %base "7-58_DFT_AB"
|  5>
|  6> %scf
|  7> MaxIter 1000
|  8> end
|  9>
| 10> * xyz 0 1
| 11>   C                      -1.585404            3.392058             7.212129
| 12>   O                      -2.120105            3.744945             8.520689
| 13>   H                      -1.462705            3.477092             9.167592
| 14>   H                      -2.311762            3.531126             6.455074
| 15>   H                      -0.759444            4.075805             6.822156
| 16>   H                      -1.228848            2.336794             7.215379
| 17>   C                      0.951974             2.416142             4.191653
| 18>   O                      1.141761             2.891847             5.490232
| 19>   H                      1.060901             2.174047             6.127462
| 20>   H                      1.329369             3.066310             3.438177
| 21>   H                      1.284872             1.400295             3.955974
| 22>   H                      -0.073623            2.426151             3.974505
| 23> *
| 24>
| 25> #Run DFT-D3 single point of the molecule with dimer basis set
| 26> $new_job
| 27> %base "7-58_DFT_A"
| 28> ! wB97X-D3 def2-TZVP TIGHTSCF CHELPG PMODEL
| 29>
| 30> %scf
| 31> MaxIter 1000
| 32> end
| 33>
| 34> * xyz 0 1
| 35>   C                      -1.585404            3.392058             7.212129
| 36>   O                      -2.120105            3.744945             8.520689
| 37>   H                      -1.462705            3.477092             9.167592
| 38>   H                      -2.311762            3.531126             6.455074
| 39>   H                      -0.759444            4.075805             6.822156
| 40>   H                      -1.228848            2.336794             7.215379
| 41>   C                    : 0.951974             2.416142             4.191653
| 42>   O                    : 1.141761             2.891847             5.490232
| 43>   H                    : 1.060901             2.174047             6.127462
| 44>   H                    : 1.329369             3.066310             3.438177
| 45>   H                    : 1.284872             1.400295             3.955974
| 46>   H                    : -0.073623            2.426151             3.974505
| 47> *
| 48>
| 49> #Run DFT-D3 single point of the particle with dimer basis set
| 50> $new_job
| 51> %base "7-58_DFT_B"
| 52> ! wB97X-D3 def2-TZVP TIGHTSCF CHELPG PMODEL
| 53>
| 54> %scf
| 55> MaxIter 1000
| 56> end
| 57>
| 58> * xyz 0 1
| 59>   C                    : -1.585404            3.392058             7.212129
| 60>   O                    : -2.120105            3.744945             8.520689
| 61>   H                    : -1.462705            3.477092             9.167592
| 62>   H                    : -2.311762            3.531126             6.455074
| 63>   H                    : -0.759444            4.075805             6.822156
| 64>   H                    : -1.228848            2.336794             7.215379
| 65>   C                      0.951974             2.416142             4.191653
| 66>   O                      1.141761             2.891847             5.490232
| 67>   H                      1.060901             2.174047             6.127462
| 68>   H                      1.329369             3.066310             3.438177
| 69>   H                      1.284872             1.400295             3.955974
| 70>   H                      -0.073623            2.426151             3.974505
| 71> *
| 72>
| 73>                          ****END OF INPUT****
 Total Charge           Charge          ....    0
 Multiplicity           Mult            ....    1
 Number of Electrons    NEL             ....   36
Dispersion correction           -0.001848923
FINAL SINGLE POINT ENERGY      -231.463883073012
Dispersion correction           -0.000275674
FINAL SINGLE POINT ENERGY      -115.731848579454

CARTESIAN COORDINATES (ANGSTROEM)
---------------------------------
  C     -1.585404    3.392058    7.212129
  O     -2.120105    3.744945    8.520689
  H     -1.462705    3.477092    9.167592
  H     -2.311762    3.531126    6.455074
  H     -0.759444    4.075805    6.822156
  H     -1.228848    2.336794    7.215379
  C      0.951974    2.416142    4.191653
  O      1.141761    2.891847    5.490232
  H      1.060901    2.174047    6.127462
  H      1.329369    3.066310    3.438177
  H      1.284872    1.400295    3.955974
  H     -0.073623    2.426151    3.974505

 Multiplicity           Mult            ....    1
 Number of Electrons    NEL             ....   18
 Basis Dimension        Dim             ....  172

ORBITAL ENERGIES
----------------

  NO   OCC          E(Eh)            E(eV)
   0   2.0000     -19.232553      -523.3444
   1   2.0000     -10.302975      -280.3582
   2   2.0000      -1.140634       -31.0382
   3   2.0000      -0.804752       -21.8984
   4   2.0000      -0.618539       -16.8313
   5   2.0000      -0.540469       -14.7069
   6   2.0000      -0.535719       -14.5777
   7   2.0000      -0.435056       -11.8385
   8   2.0000      -0.371372       -10.1055
   9   0.0000       0.085134         2.3166
  10   0.0000       0.131411         3.5759
  11   0.0000       0.151128         4.1124
  12   0.0000       0.168064         4.5733
  13   0.0000       0.202823         5.5191

MULLIKEN ATOMIC CHARGES
-----------------------
   0 C :   -0.003205
   1 O :   -0.000149
   2 H :   -0.000054
   3 H :   -0.000719
   4 H :   -0.002236
   5 H :   -0.005573
   6 C :   -0.163623
   7 O :   -0.467728
   8 H :    0.319931
   9 H :    0.117460
  10 H :    0.099738
  11 H :    0.106158
Sum of atomic charges:   -0.0000000

LOEWDIN ATOMIC CHARGES
----------------------
   0 C :   -0.011459
   1 O :   -0.000052
   2 H :   -0.000013
   3 H :   -0.000248
   4 H :   -0.009548
   5 H :   -0.003582
   6 C :   -0.394848
   7 O :   -0.042564
   8 H :    0.175109
   9 H :    0.102944
  10 H :    0.096651
  11 H :    0.087612

  Mayer bond orders larger than 0.1
B(  6-C ,  7-O ) :   1.0088 B(  6-C ,  9-H ) :   0.9756 B(  6-C , 10-H ) :   0.9772
B(  6-C , 11-H ) :   0.9823 B(  7-O ,  8-H ) :   0.8941

Dispersion correction           -0.000244381
FINAL SINGLE POINT ENERGY      -115.731405910280

DIPOLE MOMENT
-------------
                                X             Y             Z
Electronic contribution:      0.39563       0.73017       1.69939
Nuclear contribution   :     -0.52337      -1.37780      -1.82569
                        -----------------------------------------
Total Dipole Moment    :     -0.12774      -0.64764      -0.12630
                        -----------------------------------------
Magnitude (a.u.)       :      0.67209
Magnitude (Debye)      :      1.70831

Rotational constants in cm-1:     4.644534     0.843409     0.806625
Rotational constants in MHz : 139239.637807 25284.759907 24182.018323

                             ****ORCA TERMINATED NORMALLY****
TOTAL RUN TIME: 0 days 0 hours 1 minutes 14 seconds 448 msec
