                         Program Version 4.1.2  - RELEASE  -
|  1> #Run DFT-D3 single point of the dimer
|  2> ! wB97X-D3 def2-TZVP TIGHTSCF CHELPG PMODEL PAL8
|  3>
|  4> %base "22-201_DFT_AB"
|  5>
|  6> %scf
|  7> MaxIter 1000
|  8> end
|  9>
| 10> * xyz 0 1
| 11>   C                      -2.909087            -1.969851            -1.924038
| 12>   O                      -2.827686            -3.108893            -1.172780
| 13>   H                      -1.951877            -3.521882            -1.234771
| 14>   H                      -2.236090            -1.175061            -1.514189
| 15>   H                      -2.615819            -2.207722            -2.943105
| 16>   H                      -3.949701            -1.615946            -1.922414
| 17>   C                      -5.565348            -5.308290            -1.212802
| 18>   O                      -5.107772            -4.714714            -0.003412
| 19>   H                      -4.372624            -4.159267            -0.341597
| 20>   H                      -6.090459            -6.296577            -1.036220
| 21>   H                      -6.187240            -4.601557            -1.731719
| 22>   H                      -4.713050            -5.544648            -1.891094
| 23> *
| 24>
| 25> #Run DFT-D3 single point of the molecule with dimer basis set
| 26> $new_job
| 27> %base "22-201_DFT_A"
| 28> ! wB97X-D3 def2-TZVP TIGHTSCF CHELPG PMODEL
| 29>
| 30> %scf
| 31> MaxIter 1000
| 32> end
| 33>
| 34> * xyz 0 1
| 35>   C                      -2.909087            -1.969851            -1.924038
| 36>   O                      -2.827686            -3.108893            -1.172780
| 37>   H                      -1.951877            -3.521882            -1.234771
| 38>   H                      -2.236090            -1.175061            -1.514189
| 39>   H                      -2.615819            -2.207722            -2.943105
| 40>   H                      -3.949701            -1.615946            -1.922414
| 41>   C                    : -5.565348            -5.308290            -1.212802
| 42>   O                    : -5.107772            -4.714714            -0.003412
| 43>   H                    : -4.372624            -4.159267            -0.341597
| 44>   H                    : -6.090459            -6.296577            -1.036220
| 45>   H                    : -6.187240            -4.601557            -1.731719
| 46>   H                    : -4.713050            -5.544648            -1.891094
| 47> *
| 48>
| 49> #Run DFT-D3 single point of the particle with dimer basis set
| 50> $new_job
| 51> %base "22-201_DFT_B"
| 52> ! wB97X-D3 def2-TZVP TIGHTSCF CHELPG PMODEL
| 53>
| 54> %scf
| 55> MaxIter 1000
| 56> end
| 57>
| 58> * xyz 0 1
| 59>   C                    : -2.909087            -1.969851            -1.924038
| 60>   O                    : -2.827686            -3.108893            -1.172780
| 61>   H                    : -1.951877            -3.521882            -1.234771
| 62>   H                    : -2.236090            -1.175061            -1.514189
| 63>   H                    : -2.615819            -2.207722            -2.943105
| 64>   H                    : -3.949701            -1.615946            -1.922414
| 65>   C                      -5.565348            -5.308290            -1.212802
| 66>   O                      -5.107772            -4.714714            -0.003412
| 67>   H                      -4.372624            -4.159267            -0.341597
| 68>   H                      -6.090459            -6.296577            -1.036220
| 69>   H                      -6.187240            -4.601557            -1.731719
| 70>   H                      -4.713050            -5.544648            -1.891094
| 71> *
| 72>
| 73>                          ****END OF INPUT****
 Total Charge           Charge          ....    0
 Multiplicity           Mult            ....    1
 Number of Electrons    NEL             ....   36
Dispersion correction           -0.001779143
FINAL SINGLE POINT ENERGY      -231.476334876602
Dispersion correction           -0.000220199
FINAL SINGLE POINT ENERGY      -115.734968062257

CARTESIAN COORDINATES (ANGSTROEM)
---------------------------------
  C     -2.909087   -1.969851   -1.924038
  O     -2.827686   -3.108893   -1.172780
  H     -1.951877   -3.521882   -1.234771
  H     -2.236090   -1.175061   -1.514189
  H     -2.615819   -2.207722   -2.943105
  H     -3.949701   -1.615946   -1.922414
  C     -5.565348   -5.308290   -1.212802
  O     -5.107772   -4.714714   -0.003412
  H     -4.372624   -4.159267   -0.341597
  H     -6.090459   -6.296577   -1.036220
  H     -6.187240   -4.601557   -1.731719
  H     -4.713050   -5.544648   -1.891094

 Multiplicity           Mult            ....    1
 Number of Electrons    NEL             ....   18
 Basis Dimension        Dim             ....  172

ORBITAL ENERGIES
----------------

  NO   OCC          E(Eh)            E(eV)
   0   2.0000     -19.234370      -523.3938
   1   2.0000     -10.318107      -280.7700
   2   2.0000      -1.135110       -30.8879
   3   2.0000      -0.787445       -21.4275
   4   2.0000      -0.606201       -16.4956
   5   2.0000      -0.545901       -14.8547
   6   2.0000      -0.520035       -14.1509
   7   2.0000      -0.437942       -11.9170
   8   2.0000      -0.374318       -10.1857
   9   0.0000       0.065233         1.7751
  10   0.0000       0.130994         3.5645
  11   0.0000       0.146489         3.9862
  12   0.0000       0.158356         4.3091
  13   0.0000       0.193651         5.2695

MULLIKEN ATOMIC CHARGES
-----------------------
   0 C :   -0.000734
   1 O :   -0.002728
   2 H :   -0.000237
   3 H :    0.000020
   4 H :   -0.000091
   5 H :   -0.000516
   6 C :   -0.187699
   7 O :   -0.458626
   8 H :    0.315090
   9 H :    0.121836
  10 H :    0.110266
  11 H :    0.103420
Sum of atomic charges:   -0.0000000

LOEWDIN ATOMIC CHARGES
----------------------
   0 C :   -0.002484
   1 O :   -0.015186
   2 H :   -0.000976
   3 H :   -0.000042
   4 H :   -0.000051
   5 H :   -0.000444
   6 C :   -0.390601
   7 O :   -0.085501
   8 H :    0.191449
   9 H :    0.114627
  10 H :    0.091013
  11 H :    0.098197

  Mayer bond orders larger than 0.1
B(  6-C ,  7-O ) :   0.9904 B(  6-C ,  9-H ) :   0.9702 B(  6-C , 10-H ) :   0.9753
B(  6-C , 11-H ) :   0.9804 B(  7-O ,  8-H ) :   0.9079

Dispersion correction           -0.000227135
FINAL SINGLE POINT ENERGY      -115.732182107581

DIPOLE MOMENT
-------------
                                X             Y             Z
Electronic contribution:      0.39920       0.69435       1.70182
Nuclear contribution   :     -0.11794      -0.59054      -2.37965
                        -----------------------------------------
Total Dipole Moment    :      0.28126       0.10381      -0.67783
                        -----------------------------------------
Magnitude (a.u.)       :      0.74117
Magnitude (Debye)      :      1.88391

Rotational constants in cm-1:     4.110108     0.830038     0.794912
Rotational constants in MHz : 123217.945406 24883.927454 23830.870756

                             ****ORCA TERMINATED NORMALLY****
TOTAL RUN TIME: 0 days 0 hours 1 minutes 7 seconds 642 msec
