                         Program Version 4.1.2  - RELEASE  -
|  1> #Run DFT-D3 single point of the dimer
|  2> ! wB97X-D3 def2-TZVP TIGHTSCF CHELPG PMODEL PAL8
|  3>
|  4> %base "9-201_DFT_AB"
|  5>
|  6> %scf
|  7> MaxIter 1000
|  8> end
|  9>
| 10> * xyz 0 1
| 11>   C                      -1.495863            -7.793966            2.578970
| 12>   O                      -0.483908            -8.710435            2.830056
| 13>   H                      -0.539122            -8.859072            3.780533
| 14>   H                      -1.316843            -6.805620            3.074040
| 15>   H                      -1.618548            -7.589966            1.567328
| 16>   H                      -2.421022            -8.112278            2.983919
| 17>   C                      -1.361220            -9.741524            6.293750
| 18>   O                      -0.034142            -9.636347            5.624788
| 19>   H                      0.428334             -10.380646           5.960808
| 20>   H                      -1.213763            -10.079915           7.286941
| 21>   H                      -1.977476            -8.807010            6.256494
| 22>   H                      -2.043818            -10.402291           5.751193
| 23> *
| 24>
| 25> #Run DFT-D3 single point of the molecule with dimer basis set
| 26> $new_job
| 27> %base "9-201_DFT_A"
| 28> ! wB97X-D3 def2-TZVP TIGHTSCF CHELPG PMODEL
| 29>
| 30> %scf
| 31> MaxIter 1000
| 32> end
| 33>
| 34> * xyz 0 1
| 35>   C                      -1.495863            -7.793966            2.578970
| 36>   O                      -0.483908            -8.710435            2.830056
| 37>   H                      -0.539122            -8.859072            3.780533
| 38>   H                      -1.316843            -6.805620            3.074040
| 39>   H                      -1.618548            -7.589966            1.567328
| 40>   H                      -2.421022            -8.112278            2.983919
| 41>   C                    : -1.361220            -9.741524            6.293750
| 42>   O                    : -0.034142            -9.636347            5.624788
| 43>   H                    : 0.428334             -10.380646           5.960808
| 44>   H                    : -1.213763            -10.079915           7.286941
| 45>   H                    : -1.977476            -8.807010            6.256494
| 46>   H                    : -2.043818            -10.402291           5.751193
| 47> *
| 48>
| 49> #Run DFT-D3 single point of the particle with dimer basis set
| 50> $new_job
| 51> %base "9-201_DFT_B"
| 52> ! wB97X-D3 def2-TZVP TIGHTSCF CHELPG PMODEL
| 53>
| 54> %scf
| 55> MaxIter 1000
| 56> end
| 57>
| 58> * xyz 0 1
| 59>   C                    : -1.495863            -7.793966            2.578970
| 60>   O                    : -0.483908            -8.710435            2.830056
| 61>   H                    : -0.539122            -8.859072            3.780533
| 62>   H                    : -1.316843            -6.805620            3.074040
| 63>   H                    : -1.618548            -7.589966            1.567328
| 64>   H                    : -2.421022            -8.112278            2.983919
| 65>   C                      -1.361220            -9.741524            6.293750
| 66>   O                      -0.034142            -9.636347            5.624788
| 67>   H                      0.428334             -10.380646           5.960808
| 68>   H                      -1.213763            -10.079915           7.286941
| 69>   H                      -1.977476            -8.807010            6.256494
| 70>   H                      -2.043818            -10.402291           5.751193
| 71> *
| 72>
| 73>                          ****END OF INPUT****
 Total Charge           Charge          ....    0
 Multiplicity           Mult            ....    1
 Number of Electrons    NEL             ....   36
Dispersion correction           -0.001800550
FINAL SINGLE POINT ENERGY      -231.466972457871
Dispersion correction           -0.000212172
FINAL SINGLE POINT ENERGY      -115.732458310684

CARTESIAN COORDINATES (ANGSTROEM)
---------------------------------
  C     -1.495863   -7.793966    2.578970
  O     -0.483908   -8.710435    2.830056
  H     -0.539122   -8.859072    3.780533
  H     -1.316843   -6.805620    3.074040
  H     -1.618548   -7.589966    1.567328
  H     -2.421022   -8.112278    2.983919
  C     -1.361220   -9.741524    6.293750
  O     -0.034142   -9.636347    5.624788
  H      0.428334  -10.380646    5.960808
  H     -1.213763  -10.079915    7.286941
  H     -1.977476   -8.807010    6.256494
  H     -2.043818  -10.402291    5.751193

 Multiplicity           Mult            ....    1
 Number of Electrons    NEL             ....   18
 Basis Dimension        Dim             ....  172

ORBITAL ENERGIES
----------------

  NO   OCC          E(Eh)            E(eV)
   0   2.0000     -19.230941      -523.3005
   1   2.0000     -10.320063      -280.8232
   2   2.0000      -1.123422       -30.5699
   3   2.0000      -0.800960       -21.7952
   4   2.0000      -0.599646       -16.3172
   5   2.0000      -0.544205       -14.8086
   6   2.0000      -0.515433       -14.0257
   7   2.0000      -0.443413       -12.0659
   8   2.0000      -0.376949       -10.2573
   9   0.0000       0.094232         2.5642
  10   0.0000       0.124583         3.3901
  11   0.0000       0.144860         3.9418
  12   0.0000       0.188782         5.1370
  13   0.0000       0.190847         5.1932

MULLIKEN ATOMIC CHARGES
-----------------------
   0 C :   -0.000353
   1 O :   -0.001951
   2 H :   -0.003870
   3 H :   -0.000128
   4 H :    0.000000
   5 H :    0.000166
   6 C :   -0.191520
   7 O :   -0.468933
   8 H :    0.305831
   9 H :    0.122510
  10 H :    0.125831
  11 H :    0.112417
Sum of atomic charges:   -0.0000000

LOEWDIN ATOMIC CHARGES
----------------------
   0 C :   -0.000786
   1 O :   -0.004532
   2 H :   -0.030511
   3 H :   -0.000035
   4 H :   -0.000010
   5 H :   -0.000144
   6 C :   -0.333046
   7 O :   -0.086790
   8 H :    0.149811
   9 H :    0.092233
  10 H :    0.115558
  11 H :    0.098254

  Mayer bond orders larger than 0.1
B(  6-C ,  7-O ) :   0.9848 B(  6-C ,  9-H ) :   0.9745 B(  6-C , 10-H ) :   0.9763
B(  6-C , 11-H ) :   0.9730 B(  7-O ,  8-H ) :   0.9083

Dispersion correction           -0.000265658
FINAL SINGLE POINT ENERGY      -115.728057854414

DIPOLE MOMENT
-------------
                                X             Y             Z
Electronic contribution:      1.65765       0.25907      -0.80372
Nuclear contribution   :     -1.95375      -0.77315       1.31446
                        -----------------------------------------
Total Dipole Moment    :     -0.29610      -0.51408       0.51074
                        -----------------------------------------
Magnitude (a.u.)       :      0.78282
Magnitude (Debye)      :      1.98977

Rotational constants in cm-1:     4.376008     0.766108     0.735865
Rotational constants in MHz : 131189.429667 22967.333331 22060.692249

                             ****ORCA TERMINATED NORMALLY****
TOTAL RUN TIME: 0 days 0 hours 0 minutes 44 seconds 443 msec
