                         Program Version 4.1.2  - RELEASE  -
|  1> #Run DFT-D3 single point of the dimer
|  2> ! wB97X-D3 def2-TZVP TIGHTSCF CHELPG PMODEL PAL8
|  3>
|  4> %base "8-94_DFT_AB"
|  5>
|  6> %scf
|  7> MaxIter 1000
|  8> end
|  9>
| 10> * xyz 0 1
| 11>   C                      -4.288569            -3.454093            4.046615
| 12>   O                      -4.072984            -3.445141            5.450072
| 13>   H                      -3.608082            -2.611545            5.566733
| 14>   H                      -3.328369            -3.735090            3.527382
| 15>   H                      -4.996269            -4.232074            3.685555
| 16>   H                      -4.566862            -2.490800            3.649591
| 17>   C                      -3.344770            -3.847323            8.213863
| 18>   O                      -2.864211            -4.271480            9.437341
| 19>   H                      -2.253268            -3.623229            9.808167
| 20>   H                      -2.556921            -3.812804            7.449268
| 21>   H                      -4.130952            -4.533478            7.770131
| 22>   H                      -3.644031            -2.798656            8.229549
| 23> *
| 24>
| 25> #Run DFT-D3 single point of the molecule with dimer basis set
| 26> $new_job
| 27> %base "8-94_DFT_A"
| 28> ! wB97X-D3 def2-TZVP TIGHTSCF CHELPG PMODEL
| 29>
| 30> %scf
| 31> MaxIter 1000
| 32> end
| 33>
| 34> * xyz 0 1
| 35>   C                      -4.288569            -3.454093            4.046615
| 36>   O                      -4.072984            -3.445141            5.450072
| 37>   H                      -3.608082            -2.611545            5.566733
| 38>   H                      -3.328369            -3.735090            3.527382
| 39>   H                      -4.996269            -4.232074            3.685555
| 40>   H                      -4.566862            -2.490800            3.649591
| 41>   C                    : -3.344770            -3.847323            8.213863
| 42>   O                    : -2.864211            -4.271480            9.437341
| 43>   H                    : -2.253268            -3.623229            9.808167
| 44>   H                    : -2.556921            -3.812804            7.449268
| 45>   H                    : -4.130952            -4.533478            7.770131
| 46>   H                    : -3.644031            -2.798656            8.229549
| 47> *
| 48>
| 49> #Run DFT-D3 single point of the particle with dimer basis set
| 50> $new_job
| 51> %base "8-94_DFT_B"
| 52> ! wB97X-D3 def2-TZVP TIGHTSCF CHELPG PMODEL
| 53>
| 54> %scf
| 55> MaxIter 1000
| 56> end
| 57>
| 58> * xyz 0 1
| 59>   C                    : -4.288569            -3.454093            4.046615
| 60>   O                    : -4.072984            -3.445141            5.450072
| 61>   H                    : -3.608082            -2.611545            5.566733
| 62>   H                    : -3.328369            -3.735090            3.527382
| 63>   H                    : -4.996269            -4.232074            3.685555
| 64>   H                    : -4.566862            -2.490800            3.649591
| 65>   C                      -3.344770            -3.847323            8.213863
| 66>   O                      -2.864211            -4.271480            9.437341
| 67>   H                      -2.253268            -3.623229            9.808167
| 68>   H                      -2.556921            -3.812804            7.449268
| 69>   H                      -4.130952            -4.533478            7.770131
| 70>   H                      -3.644031            -2.798656            8.229549
| 71> *
| 72>
| 73>                          ****END OF INPUT****
 Total Charge           Charge          ....    0
 Multiplicity           Mult            ....    1
 Number of Electrons    NEL             ....   36
Dispersion correction           -0.001639850
FINAL SINGLE POINT ENERGY      -231.464315890103
Dispersion correction           -0.000235322
FINAL SINGLE POINT ENERGY      -115.732794017971

CARTESIAN COORDINATES (ANGSTROEM)
---------------------------------
  C     -4.288569   -3.454093    4.046615
  O     -4.072984   -3.445141    5.450072
  H     -3.608082   -2.611545    5.566733
  H     -3.328369   -3.735090    3.527382
  H     -4.996269   -4.232074    3.685555
  H     -4.566862   -2.490800    3.649591
  C     -3.344770   -3.847323    8.213863
  O     -2.864211   -4.271480    9.437341
  H     -2.253268   -3.623229    9.808167
  H     -2.556921   -3.812804    7.449268
  H     -4.130952   -4.533478    7.770131
  H     -3.644031   -2.798656    8.229549

 Multiplicity           Mult            ....    1
 Number of Electrons    NEL             ....   18
 Basis Dimension        Dim             ....  172

ORBITAL ENERGIES
----------------

  NO   OCC          E(Eh)            E(eV)
   0   2.0000     -19.231593      -523.3182
   1   2.0000     -10.314708      -280.6775
   2   2.0000      -1.145207       -31.1627
   3   2.0000      -0.792898       -21.5758
   4   2.0000      -0.622737       -16.9455
   5   2.0000      -0.539366       -14.6769
   6   2.0000      -0.527771       -14.3614
   7   2.0000      -0.432324       -11.7641
   8   2.0000      -0.367048        -9.9879
   9   0.0000       0.083136         2.2622
  10   0.0000       0.114600         3.1184
  11   0.0000       0.145031         3.9465
  12   0.0000       0.173641         4.7250
  13   0.0000       0.188723         5.1354

MULLIKEN ATOMIC CHARGES
-----------------------
   0 C :    0.000182
   1 O :    0.000596
   2 H :   -0.001664
   3 H :   -0.000077
   4 H :   -0.000040
   5 H :   -0.000008
   6 C :   -0.163497
   7 O :   -0.467782
   8 H :    0.318641
   9 H :    0.090315
  10 H :    0.123907
  11 H :    0.099427
Sum of atomic charges:    0.0000000

LOEWDIN ATOMIC CHARGES
----------------------
   0 C :   -0.000534
   1 O :   -0.010754
   2 H :   -0.003761
   3 H :   -0.000034
   4 H :   -0.000019
   5 H :   -0.000009
   6 C :   -0.415270
   7 O :   -0.052498
   8 H :    0.175719
   9 H :    0.093370
  10 H :    0.120499
  11 H :    0.093291

  Mayer bond orders larger than 0.1
B(  6-C ,  7-O ) :   1.0091 B(  6-C ,  9-H ) :   0.9754 B(  6-C , 10-H ) :   0.9666
B(  6-C , 11-H ) :   0.9787 B(  7-O ,  8-H ) :   0.8923

Dispersion correction           -0.000237337
FINAL SINGLE POINT ENERGY      -115.731887760143

DIPOLE MOMENT
-------------
                                X             Y             Z
Electronic contribution:      0.47017      -0.71736       1.73089
Nuclear contribution   :     -0.24617       1.30074      -1.95424
                        -----------------------------------------
Total Dipole Moment    :      0.22400       0.58338      -0.22334
                        -----------------------------------------
Magnitude (a.u.)       :      0.66362
Magnitude (Debye)      :      1.68679

Rotational constants in cm-1:     4.326653     0.857504     0.812149
Rotational constants in MHz : 129709.793176 25707.322371 24347.618201

                             ****ORCA TERMINATED NORMALLY****
TOTAL RUN TIME: 0 days 0 hours 0 minutes 37 seconds 566 msec
