                         Program Version 4.1.2  - RELEASE  -
|  1> #Run DFT-D3 single point of the dimer
|  2> ! wB97X-D3 def2-TZVP TIGHTSCF CHELPG PMODEL PAL8
|  3>
|  4> %base "1-90_DFT_AB"
|  5>
|  6> %scf
|  7> MaxIter 1000
|  8> end
|  9>
| 10> * xyz 0 1
| 11>   C                      -7.546642            5.310844             -2.485952
| 12>   O                      -6.537382            4.702897             -1.704250
| 13>   H                      -6.634103            3.799627             -2.072274
| 14>   H                      -7.343214            5.297082             -3.570693
| 15>   H                      -8.497672            4.889586             -2.433377
| 16>   H                      -7.670592            6.410111             -2.234567
| 17>   C                      -9.973994            7.307945             -3.789992
| 18>   O                      -9.808993            6.252580             -4.728059
| 19>   H                      -9.084010            6.454925             -5.314972
| 20>   H                      -9.282696            7.128338             -2.915900
| 21>   H                      -9.623800            8.231574             -4.121033
| 22>   H                      -10.923079           7.335995             -3.386662
| 23> *
| 24>
| 25> #Run DFT-D3 single point of the molecule with dimer basis set
| 26> $new_job
| 27> %base "1-90_DFT_A"
| 28> ! wB97X-D3 def2-TZVP TIGHTSCF CHELPG PMODEL
| 29>
| 30> %scf
| 31> MaxIter 1000
| 32> end
| 33>
| 34> * xyz 0 1
| 35>   C                      -7.546642            5.310844             -2.485952
| 36>   O                      -6.537382            4.702897             -1.704250
| 37>   H                      -6.634103            3.799627             -2.072274
| 38>   H                      -7.343214            5.297082             -3.570693
| 39>   H                      -8.497672            4.889586             -2.433377
| 40>   H                      -7.670592            6.410111             -2.234567
| 41>   C                    : -9.973994            7.307945             -3.789992
| 42>   O                    : -9.808993            6.252580             -4.728059
| 43>   H                    : -9.084010            6.454925             -5.314972
| 44>   H                    : -9.282696            7.128338             -2.915900
| 45>   H                    : -9.623800            8.231574             -4.121033
| 46>   H                    : -10.923079           7.335995             -3.386662
| 47> *
| 48>
| 49> #Run DFT-D3 single point of the particle with dimer basis set
| 50> $new_job
| 51> %base "1-90_DFT_B"
| 52> ! wB97X-D3 def2-TZVP TIGHTSCF CHELPG PMODEL
| 53>
| 54> %scf
| 55> MaxIter 1000
| 56> end
| 57>
| 58> * xyz 0 1
| 59>   C                    : -7.546642            5.310844             -2.485952
| 60>   O                    : -6.537382            4.702897             -1.704250
| 61>   H                    : -6.634103            3.799627             -2.072274
| 62>   H                    : -7.343214            5.297082             -3.570693
| 63>   H                    : -8.497672            4.889586             -2.433377
| 64>   H                    : -7.670592            6.410111             -2.234567
| 65>   C                      -9.973994            7.307945             -3.789992
| 66>   O                      -9.808993            6.252580             -4.728059
| 67>   H                      -9.084010            6.454925             -5.314972
| 68>   H                      -9.282696            7.128338             -2.915900
| 69>   H                      -9.623800            8.231574             -4.121033
| 70>   H                      -10.923079           7.335995             -3.386662
| 71> *
| 72>
| 73>                          ****END OF INPUT****
 Total Charge           Charge          ....    0
 Multiplicity           Mult            ....    1
 Number of Electrons    NEL             ....   36
Dispersion correction           -0.002097104
FINAL SINGLE POINT ENERGY      -231.457318201051
Dispersion correction           -0.000227655
FINAL SINGLE POINT ENERGY      -115.728055604852

CARTESIAN COORDINATES (ANGSTROEM)
---------------------------------
  C     -7.546642    5.310844   -2.485952
  O     -6.537382    4.702897   -1.704250
  H     -6.634103    3.799627   -2.072274
  H     -7.343214    5.297082   -3.570693
  H     -8.497672    4.889586   -2.433377
  H     -7.670592    6.410111   -2.234567
  C     -9.973994    7.307945   -3.789992
  O     -9.808993    6.252580   -4.728059
  H     -9.084010    6.454925   -5.314972
  H     -9.282696    7.128338   -2.915900
  H     -9.623800    8.231574   -4.121033
  H    -10.923079    7.335995   -3.386662

 Multiplicity           Mult            ....    1
 Number of Electrons    NEL             ....   18
 Basis Dimension        Dim             ....  172

ORBITAL ENERGIES
----------------

  NO   OCC          E(Eh)            E(eV)
   0   2.0000     -19.230003      -523.2750
   1   2.0000     -10.305564      -280.4286
   2   2.0000      -1.134247       -30.8644
   3   2.0000      -0.805618       -21.9220
   4   2.0000      -0.618452       -16.8289
   5   2.0000      -0.542480       -14.7616
   6   2.0000      -0.526093       -14.3157
   7   2.0000      -0.443316       -12.0632
   8   2.0000      -0.368349       -10.0233
   9   0.0000       0.087347         2.3768
  10   0.0000       0.128134         3.4867
  11   0.0000       0.152402         4.1471
  12   0.0000       0.182549         4.9674
  13   0.0000       0.199518         5.4292

MULLIKEN ATOMIC CHARGES
-----------------------
   0 C :    0.011493
   1 O :    0.000275
   2 H :   -0.000038
   3 H :   -0.010524
   4 H :   -0.001138
   5 H :    0.000133
   6 C :   -0.158818
   7 O :   -0.472697
   8 H :    0.315257
   9 H :    0.076288
  10 H :    0.110436
  11 H :    0.129333
Sum of atomic charges:   -0.0000000

LOEWDIN ATOMIC CHARGES
----------------------
   0 C :   -0.019857
   1 O :   -0.000066
   2 H :   -0.000020
   3 H :   -0.004686
   4 H :   -0.003275
   5 H :   -0.012821
   6 C :   -0.355070
   7 O :   -0.066568
   8 H :    0.165633
   9 H :    0.116260
  10 H :    0.086540
  11 H :    0.093931

  Mayer bond orders larger than 0.1
B(  6-C ,  7-O ) :   1.0077 B(  6-C ,  9-H ) :   0.9830 B(  6-C , 10-H ) :   0.9838
B(  6-C , 11-H ) :   0.9774 B(  7-O ,  8-H ) :   0.8999

Dispersion correction           -0.000239624
FINAL SINGLE POINT ENERGY      -115.729304057169

DIPOLE MOMENT
-------------
                                X             Y             Z
Electronic contribution:     -0.10905      -1.32282      -1.29136
Nuclear contribution   :      0.49727       1.90335       1.27653
                        -----------------------------------------
Total Dipole Moment    :      0.38822       0.58054      -0.01483
                        -----------------------------------------
Magnitude (a.u.)       :      0.69854
Magnitude (Debye)      :      1.77555

Rotational constants in cm-1:     4.541612     0.826335     0.793438
Rotational constants in MHz : 136154.090954 24772.900782 23786.668452

                             ****ORCA TERMINATED NORMALLY****
TOTAL RUN TIME: 0 days 0 hours 5 minutes 50 seconds 912 msec
