                         Program Version 4.1.2  - RELEASE  -
|  1> #Run DFT-D3 single point of the dimer
|  2> ! wB97X-D3 def2-TZVP TIGHTSCF CHELPG PMODEL PAL8
|  3>
|  4> %base "13-167_DFT_AB"
|  5>
|  6> %scf
|  7> MaxIter 1000
|  8> end
|  9>
| 10> * xyz 0 1
| 11>   C                      -3.229925            -9.058745            -4.313825
| 12>   O                      -4.099625            -8.482971            -5.210653
| 13>   H                      -4.230069            -7.588252            -4.890243
| 14>   H                      -2.302949            -8.511018            -4.397252
| 15>   H                      -3.675922            -8.894935            -3.326234
| 16>   H                      -3.092762            -10.182586           -4.421901
| 17>   C                      -7.674338            -9.265332            -5.261994
| 18>   O                      -6.791323            -10.063391           -4.441534
| 19>   H                      -5.956641            -9.609527            -4.561336
| 20>   H                      -7.423914            -8.157637            -5.056827
| 21>   H                      -7.631717            -9.367338            -6.404304
| 22>   H                      -8.673876            -9.444796            -4.879844
| 23> *
| 24>
| 25> #Run DFT-D3 single point of the molecule with dimer basis set
| 26> $new_job
| 27> %base "13-167_DFT_A"
| 28> ! wB97X-D3 def2-TZVP TIGHTSCF CHELPG PMODEL
| 29>
| 30> %scf
| 31> MaxIter 1000
| 32> end
| 33>
| 34> * xyz 0 1
| 35>   C                      -3.229925            -9.058745            -4.313825
| 36>   O                      -4.099625            -8.482971            -5.210653
| 37>   H                      -4.230069            -7.588252            -4.890243
| 38>   H                      -2.302949            -8.511018            -4.397252
| 39>   H                      -3.675922            -8.894935            -3.326234
| 40>   H                      -3.092762            -10.182586           -4.421901
| 41>   C                    : -7.674338            -9.265332            -5.261994
| 42>   O                    : -6.791323            -10.063391           -4.441534
| 43>   H                    : -5.956641            -9.609527            -4.561336
| 44>   H                    : -7.423914            -8.157637            -5.056827
| 45>   H                    : -7.631717            -9.367338            -6.404304
| 46>   H                    : -8.673876            -9.444796            -4.879844
| 47> *
| 48>
| 49> #Run DFT-D3 single point of the particle with dimer basis set
| 50> $new_job
| 51> %base "13-167_DFT_B"
| 52> ! wB97X-D3 def2-TZVP TIGHTSCF CHELPG PMODEL
| 53>
| 54> %scf
| 55> MaxIter 1000
| 56> end
| 57>
| 58> * xyz 0 1
| 59>   C                    : -3.229925            -9.058745            -4.313825
| 60>   O                    : -4.099625            -8.482971            -5.210653
| 61>   H                    : -4.230069            -7.588252            -4.890243
| 62>   H                    : -2.302949            -8.511018            -4.397252
| 63>   H                    : -3.675922            -8.894935            -3.326234
| 64>   H                    : -3.092762            -10.182586           -4.421901
| 65>   C                      -7.674338            -9.265332            -5.261994
| 66>   O                      -6.791323            -10.063391           -4.441534
| 67>   H                      -5.956641            -9.609527            -4.561336
| 68>   H                      -7.423914            -8.157637            -5.056827
| 69>   H                      -7.631717            -9.367338            -6.404304
| 70>   H                      -8.673876            -9.444796            -4.879844
| 71> *
| 72>
| 73>                          ****END OF INPUT****
 Total Charge           Charge          ....    0
 Multiplicity           Mult            ....    1
 Number of Electrons    NEL             ....   36
Dispersion correction           -0.001810251
FINAL SINGLE POINT ENERGY      -231.465482502886
Dispersion correction           -0.000196747
FINAL SINGLE POINT ENERGY      -115.729533524730

CARTESIAN COORDINATES (ANGSTROEM)
---------------------------------
  C     -3.229925   -9.058745   -4.313825
  O     -4.099625   -8.482971   -5.210653
  H     -4.230069   -7.588252   -4.890243
  H     -2.302949   -8.511018   -4.397252
  H     -3.675922   -8.894935   -3.326234
  H     -3.092762  -10.182586   -4.421901
  C     -7.674338   -9.265332   -5.261994
  O     -6.791323  -10.063391   -4.441534
  H     -5.956641   -9.609527   -4.561336
  H     -7.423914   -8.157637   -5.056827
  H     -7.631717   -9.367338   -6.404304
  H     -8.673876   -9.444796   -4.879844

 Multiplicity           Mult            ....    1
 Number of Electrons    NEL             ....   18
 Basis Dimension        Dim             ....  172

ORBITAL ENERGIES
----------------

  NO   OCC          E(Eh)            E(eV)
   0   2.0000     -19.235981      -523.4377
   1   2.0000     -10.327713      -281.0314
   2   2.0000      -1.134459       -30.8702
   3   2.0000      -0.787433       -21.4271
   4   2.0000      -0.606530       -16.5045
   5   2.0000      -0.529807       -14.4168
   6   2.0000      -0.521539       -14.1918
   7   2.0000      -0.443789       -12.0761
   8   2.0000      -0.376084       -10.2338
   9   0.0000       0.068165         1.8549
  10   0.0000       0.126723         3.4483
  11   0.0000       0.151601         4.1253
  12   0.0000       0.165133         4.4935
  13   0.0000       0.184085         5.0092

MULLIKEN ATOMIC CHARGES
-----------------------
   0 C :   -0.000075
   1 O :   -0.001156
   2 H :   -0.000262
   3 H :    0.000071
   4 H :   -0.001087
   5 H :   -0.000337
   6 C :   -0.195633
   7 O :   -0.453204
   8 H :    0.310695
   9 H :    0.103489
  10 H :    0.108770
  11 H :    0.128729
Sum of atomic charges:   -0.0000000

LOEWDIN ATOMIC CHARGES
----------------------
   0 C :   -0.005434
   1 O :   -0.007213
   2 H :   -0.000875
   3 H :   -0.000080
   4 H :   -0.000963
   5 H :   -0.000463
   6 C :   -0.381708
   7 O :   -0.087022
   8 H :    0.170313
   9 H :    0.104904
  10 H :    0.103597
  11 H :    0.104943

  Mayer bond orders larger than 0.1
B(  6-C ,  7-O ) :   0.9962 B(  6-C ,  9-H ) :   0.9838 B(  6-C , 10-H ) :   0.9549
B(  6-C , 11-H ) :   0.9767 B(  7-O ,  8-H ) :   0.9141

Dispersion correction           -0.000263682
FINAL SINGLE POINT ENERGY      -115.729316834250

DIPOLE MOMENT
-------------
                                X             Y             Z
Electronic contribution:      0.97968      -1.29433       1.04699
Nuclear contribution   :     -0.81919       1.88457      -1.41189
                        -----------------------------------------
Total Dipole Moment    :      0.16049       0.59024      -0.36490
                        -----------------------------------------
Magnitude (a.u.)       :      0.71224
Magnitude (Debye)      :      1.81038

Rotational constants in cm-1:     4.056260     0.801458     0.772009
Rotational constants in MHz : 121603.629304 24027.091803 23144.253732

                             ****ORCA TERMINATED NORMALLY****
TOTAL RUN TIME: 0 days 0 hours 1 minutes 7 seconds 585 msec
