                         Program Version 4.1.2  - RELEASE  -
|  1> #Run DFT-D3 single point of the dimer
|  2> ! wB97X-D3 def2-TZVP TIGHTSCF CHELPG PMODEL PAL8
|  3>
|  4> %base "5-188_DFT_AB"
|  5>
|  6> %scf
|  7> MaxIter 1000
|  8> end
|  9>
| 10> * xyz 0 1
| 11>   C                      6.841558             -4.279358            3.593163
| 12>   O                      6.967058             -5.324514            2.727259
| 13>   H                      6.968686             -6.154978            3.242085
| 14>   H                      6.939423             -3.275139            3.211090
| 15>   H                      5.826904             -4.372985            4.033386
| 16>   H                      7.520350             -4.294207            4.443900
| 17>   C                      9.972915             -7.685073            0.459403
| 18>   O                      9.593615             -6.860634            1.550641
| 19>   H                      8.854218             -7.338539            1.910346
| 20>   H                      10.720847            -8.414273            0.751041
| 21>   H                      9.034047             -8.157437            0.053867
| 22>   H                      10.279727            -7.073836            -0.428352
| 23> *
| 24>
| 25> #Run DFT-D3 single point of the molecule with dimer basis set
| 26> $new_job
| 27> %base "5-188_DFT_A"
| 28> ! wB97X-D3 def2-TZVP TIGHTSCF CHELPG PMODEL
| 29>
| 30> %scf
| 31> MaxIter 1000
| 32> end
| 33>
| 34> * xyz 0 1
| 35>   C                      6.841558             -4.279358            3.593163
| 36>   O                      6.967058             -5.324514            2.727259
| 37>   H                      6.968686             -6.154978            3.242085
| 38>   H                      6.939423             -3.275139            3.211090
| 39>   H                      5.826904             -4.372985            4.033386
| 40>   H                      7.520350             -4.294207            4.443900
| 41>   C                    : 9.972915             -7.685073            0.459403
| 42>   O                    : 9.593615             -6.860634            1.550641
| 43>   H                    : 8.854218             -7.338539            1.910346
| 44>   H                    : 10.720847            -8.414273            0.751041
| 45>   H                    : 9.034047             -8.157437            0.053867
| 46>   H                    : 10.279727            -7.073836            -0.428352
| 47> *
| 48>
| 49> #Run DFT-D3 single point of the particle with dimer basis set
| 50> $new_job
| 51> %base "5-188_DFT_B"
| 52> ! wB97X-D3 def2-TZVP TIGHTSCF CHELPG PMODEL
| 53>
| 54> %scf
| 55> MaxIter 1000
| 56> end
| 57>
| 58> * xyz 0 1
| 59>   C                    : 6.841558             -4.279358            3.593163
| 60>   O                    : 6.967058             -5.324514            2.727259
| 61>   H                    : 6.968686             -6.154978            3.242085
| 62>   H                    : 6.939423             -3.275139            3.211090
| 63>   H                    : 5.826904             -4.372985            4.033386
| 64>   H                    : 7.520350             -4.294207            4.443900
| 65>   C                      9.972915             -7.685073            0.459403
| 66>   O                      9.593615             -6.860634            1.550641
| 67>   H                      8.854218             -7.338539            1.910346
| 68>   H                      10.720847            -8.414273            0.751041
| 69>   H                      9.034047             -8.157437            0.053867
| 70>   H                      10.279727            -7.073836            -0.428352
| 71> *
| 72>
| 73>                          ****END OF INPUT****
 Total Charge           Charge          ....    0
 Multiplicity           Mult            ....    1
 Number of Electrons    NEL             ....   36
Dispersion correction           -0.001211443
FINAL SINGLE POINT ENERGY      -231.459297514442
Dispersion correction           -0.000218884
FINAL SINGLE POINT ENERGY      -115.729935892722

CARTESIAN COORDINATES (ANGSTROEM)
---------------------------------
  C      6.841558   -4.279358    3.593163
  O      6.967058   -5.324514    2.727259
  H      6.968686   -6.154978    3.242085
  H      6.939423   -3.275139    3.211090
  H      5.826904   -4.372985    4.033386
  H      7.520350   -4.294207    4.443900
  C      9.972915   -7.685073    0.459403
  O      9.593615   -6.860634    1.550641
  H      8.854218   -7.338539    1.910346
  H     10.720847   -8.414273    0.751041
  H      9.034047   -8.157437    0.053867
  H     10.279727   -7.073836   -0.428352

 Multiplicity           Mult            ....    1
 Number of Electrons    NEL             ....   18
 Basis Dimension        Dim             ....  172

ORBITAL ENERGIES
----------------

  NO   OCC          E(Eh)            E(eV)
   0   2.0000     -19.230574      -523.2905
   1   2.0000     -10.319497      -280.8078
   2   2.0000      -1.141068       -31.0500
   3   2.0000      -0.789464       -21.4824
   4   2.0000      -0.607039       -16.5184
   5   2.0000      -0.553601       -15.0643
   6   2.0000      -0.521891       -14.2014
   7   2.0000      -0.428767       -11.6673
   8   2.0000      -0.378524       -10.3002
   9   0.0000       0.085088         2.3154
  10   0.0000       0.116774         3.1776
  11   0.0000       0.150352         4.0913
  12   0.0000       0.187788         5.1100
  13   0.0000       0.193203         5.2573

MULLIKEN ATOMIC CHARGES
-----------------------
   0 C :   -0.001602
   1 O :   -0.001069
   2 H :   -0.000489
   3 H :    0.000112
   4 H :    0.000003
   5 H :    0.000043
   6 C :   -0.181487
   7 O :   -0.461512
   8 H :    0.317695
   9 H :    0.113490
  10 H :    0.097621
  11 H :    0.117195
Sum of atomic charges:   -0.0000000

LOEWDIN ATOMIC CHARGES
----------------------
   0 C :   -0.000712
   1 O :   -0.003228
   2 H :   -0.001786
   3 H :   -0.000011
   4 H :   -0.000021
   5 H :   -0.000029
   6 C :   -0.390327
   7 O :   -0.077047
   8 H :    0.166610
   9 H :    0.094364
  10 H :    0.101905
  11 H :    0.110281

  Mayer bond orders larger than 0.1
B(  6-C ,  7-O ) :   1.0032 B(  6-C ,  9-H ) :   0.9682 B(  6-C , 10-H ) :   0.9909
B(  6-C , 11-H ) :   0.9710 B(  7-O ,  8-H ) :   0.9020

Dispersion correction           -0.000231264
FINAL SINGLE POINT ENERGY      -115.731512556651

DIPOLE MOMENT
-------------
                                X             Y             Z
Electronic contribution:     -0.21560       1.12330       1.45267
Nuclear contribution   :     -0.11405      -1.73854      -1.66839
                        -----------------------------------------
Total Dipole Moment    :     -0.32966      -0.61524      -0.21572
                        -----------------------------------------
Magnitude (a.u.)       :      0.73057
Magnitude (Debye)      :      1.85695

Rotational constants in cm-1:     4.129801     0.827713     0.807909
Rotational constants in MHz : 123808.305751 24814.214782 24220.491640

                             ****ORCA TERMINATED NORMALLY****
TOTAL RUN TIME: 0 days 0 hours 0 minutes 56 seconds 369 msec
