                         Program Version 4.1.2  - RELEASE  -
|  1> #Run DFT-D3 single point of the dimer
|  2> ! wB97X-D3 def2-TZVP TIGHTSCF CHELPG PMODEL PAL8
|  3>
|  4> %base "12-2_DFT_AB"
|  5>
|  6> %scf
|  7> MaxIter 1000
|  8> end
|  9>
| 10> * xyz 0 1
| 11>   C                      -3.318311            -0.619609            -4.975786
| 12>   O                      -2.848868            -0.188945            -3.711665
| 13>   H                      -2.709265            0.711760             -3.772373
| 14>   H                      -2.662649            -0.195860            -5.703031
| 15>   H                      -3.228268            -1.702189            -5.124246
| 16>   H                      -4.392851            -0.308560            -5.145854
| 17>   C                      -0.339149            -4.423199            -5.326055
| 18>   O                      -0.038769            -3.807960            -6.553983
| 19>   H                      0.856931             -4.029601            -6.766577
| 20>   H                      -1.183695            -3.938080            -4.910688
| 21>   H                      -0.641640            -5.450036            -5.588658
| 22>   H                      0.493558             -4.491203            -4.588605
| 23> *
| 24>
| 25> #Run DFT-D3 single point of the molecule with dimer basis set
| 26> $new_job
| 27> %base "12-2_DFT_A"
| 28> ! wB97X-D3 def2-TZVP TIGHTSCF CHELPG PMODEL
| 29>
| 30> %scf
| 31> MaxIter 1000
| 32> end
| 33>
| 34> * xyz 0 1
| 35>   C                      -3.318311            -0.619609            -4.975786
| 36>   O                      -2.848868            -0.188945            -3.711665
| 37>   H                      -2.709265            0.711760             -3.772373
| 38>   H                      -2.662649            -0.195860            -5.703031
| 39>   H                      -3.228268            -1.702189            -5.124246
| 40>   H                      -4.392851            -0.308560            -5.145854
| 41>   C                    : -0.339149            -4.423199            -5.326055
| 42>   O                    : -0.038769            -3.807960            -6.553983
| 43>   H                    : 0.856931             -4.029601            -6.766577
| 44>   H                    : -1.183695            -3.938080            -4.910688
| 45>   H                    : -0.641640            -5.450036            -5.588658
| 46>   H                    : 0.493558             -4.491203            -4.588605
| 47> *
| 48>
| 49> #Run DFT-D3 single point of the particle with dimer basis set
| 50> $new_job
| 51> %base "12-2_DFT_B"
| 52> ! wB97X-D3 def2-TZVP TIGHTSCF CHELPG PMODEL
| 53>
| 54> %scf
| 55> MaxIter 1000
| 56> end
| 57>
| 58> * xyz 0 1
| 59>   C                    : -3.318311            -0.619609            -4.975786
| 60>   O                    : -2.848868            -0.188945            -3.711665
| 61>   H                    : -2.709265            0.711760             -3.772373
| 62>   H                    : -2.662649            -0.195860            -5.703031
| 63>   H                    : -3.228268            -1.702189            -5.124246
| 64>   H                    : -4.392851            -0.308560            -5.145854
| 65>   C                      -0.339149            -4.423199            -5.326055
| 66>   O                      -0.038769            -3.807960            -6.553983
| 67>   H                      0.856931             -4.029601            -6.766577
| 68>   H                      -1.183695            -3.938080            -4.910688
| 69>   H                      -0.641640            -5.450036            -5.588658
| 70>   H                      0.493558             -4.491203            -4.588605
| 71> *
| 72>
| 73>                          ****END OF INPUT****
 Total Charge           Charge          ....    0
 Multiplicity           Mult            ....    1
 Number of Electrons    NEL             ....   36
Dispersion correction           -0.000908816
FINAL SINGLE POINT ENERGY      -231.466136040958
Dispersion correction           -0.000229502
FINAL SINGLE POINT ENERGY      -115.731546109995

CARTESIAN COORDINATES (ANGSTROEM)
---------------------------------
  C     -3.318311   -0.619609   -4.975786
  O     -2.848868   -0.188945   -3.711665
  H     -2.709265    0.711760   -3.772373
  H     -2.662649   -0.195860   -5.703031
  H     -3.228268   -1.702189   -5.124246
  H     -4.392851   -0.308560   -5.145854
  C     -0.339149   -4.423199   -5.326055
  O     -0.038769   -3.807960   -6.553983
  H      0.856931   -4.029601   -6.766577
  H     -1.183695   -3.938080   -4.910688
  H     -0.641640   -5.450036   -5.588658
  H      0.493558   -4.491203   -4.588605

 Multiplicity           Mult            ....    1
 Number of Electrons    NEL             ....   18
 Basis Dimension        Dim             ....  172

ORBITAL ENERGIES
----------------

  NO   OCC          E(Eh)            E(eV)
   0   2.0000     -19.227493      -523.2067
   1   2.0000     -10.311158      -280.5809
   2   2.0000      -1.141456       -31.0606
   3   2.0000      -0.796320       -21.6690
   4   2.0000      -0.613023       -16.6812
   5   2.0000      -0.541310       -14.7298
   6   2.0000      -0.528955       -14.3936
   7   2.0000      -0.440048       -11.9743
   8   2.0000      -0.368932       -10.0391
   9   0.0000       0.090753         2.4695
  10   0.0000       0.117484         3.1969
  11   0.0000       0.156181         4.2499
  12   0.0000       0.169038         4.5997
  13   0.0000       0.185238         5.0406

MULLIKEN ATOMIC CHARGES
-----------------------
   0 C :   -0.000163
   1 O :   -0.000023
   2 H :   -0.000003
   3 H :   -0.000080
   4 H :    0.000402
   5 H :    0.000019
   6 C :   -0.159892
   7 O :   -0.469825
   8 H :    0.311799
   9 H :    0.119762
  10 H :    0.096921
  11 H :    0.101082
Sum of atomic charges:   -0.0000000

LOEWDIN ATOMIC CHARGES
----------------------
   0 C :   -0.000232
   1 O :   -0.000008
   2 H :   -0.000001
   3 H :   -0.000044
   4 H :   -0.000469
   5 H :   -0.000003
   6 C :   -0.387884
   7 O :   -0.066362
   8 H :    0.160602
   9 H :    0.099079
  10 H :    0.097224
  11 H :    0.098098

  Mayer bond orders larger than 0.1
B(  6-C ,  7-O ) :   1.0023 B(  6-C ,  9-H ) :   0.9741 B(  6-C , 10-H ) :   0.9869
B(  6-C , 11-H ) :   0.9732 B(  7-O ,  8-H ) :   0.9037

Dispersion correction           -0.000229591
FINAL SINGLE POINT ENERGY      -115.733727327286

DIPOLE MOMENT
-------------
                                X             Y             Z
Electronic contribution:      0.28600       0.95380      -1.49734
Nuclear contribution   :      0.16211      -1.32541       1.84071
                        -----------------------------------------
Total Dipole Moment    :      0.44811      -0.37161       0.34336
                        -----------------------------------------
Magnitude (a.u.)       :      0.67587
Magnitude (Debye)      :      1.71792

Rotational constants in cm-1:     4.291687     0.846501     0.813625
Rotational constants in MHz : 128661.536777 25377.460418 24391.874336

                             ****ORCA TERMINATED NORMALLY****
TOTAL RUN TIME: 0 days 0 hours 1 minutes 8 seconds 421 msec
