                         Program Version 4.1.2  - RELEASE  -
|  1> #Run DFT-D3 single point of the dimer
|  2> ! wB97X-D3 def2-TZVP TIGHTSCF CHELPG PMODEL PAL8
|  3>
|  4> %base "16-193_DFT_AB"
|  5>
|  6> %scf
|  7> MaxIter 1000
|  8> end
|  9>
| 10> * xyz 0 1
| 11>   C                      10.999349            -5.266649            -1.319768
| 12>   O                      11.616505            -5.919857            -0.228641
| 13>   H                      10.790786            -6.069596            0.322672
| 14>   H                      11.675425            -4.939022            -2.153195
| 15>   H                      10.217054            -5.852464            -1.723310
| 16>   H                      10.436245            -4.378384            -0.978400
| 17>   C                      9.490457             -4.875805            3.455950
| 18>   O                      10.344244            -5.117745            2.427739
| 19>   H                      11.255796            -5.131421            2.828803
| 20>   H                      8.538186             -5.378607            3.341968
| 21>   H                      9.866922             -5.323209            4.390639
| 22>   H                      9.396912             -3.795127            3.671283
| 23> *
| 24>
| 25> #Run DFT-D3 single point of the molecule with dimer basis set
| 26> $new_job
| 27> %base "16-193_DFT_A"
| 28> ! wB97X-D3 def2-TZVP TIGHTSCF CHELPG PMODEL
| 29>
| 30> %scf
| 31> MaxIter 1000
| 32> end
| 33>
| 34> * xyz 0 1
| 35>   C                      10.999349            -5.266649            -1.319768
| 36>   O                      11.616505            -5.919857            -0.228641
| 37>   H                      10.790786            -6.069596            0.322672
| 38>   H                      11.675425            -4.939022            -2.153195
| 39>   H                      10.217054            -5.852464            -1.723310
| 40>   H                      10.436245            -4.378384            -0.978400
| 41>   C                    : 9.490457             -4.875805            3.455950
| 42>   O                    : 10.344244            -5.117745            2.427739
| 43>   H                    : 11.255796            -5.131421            2.828803
| 44>   H                    : 8.538186             -5.378607            3.341968
| 45>   H                    : 9.866922             -5.323209            4.390639
| 46>   H                    : 9.396912             -3.795127            3.671283
| 47> *
| 48>
| 49> #Run DFT-D3 single point of the particle with dimer basis set
| 50> $new_job
| 51> %base "16-193_DFT_B"
| 52> ! wB97X-D3 def2-TZVP TIGHTSCF CHELPG PMODEL
| 53>
| 54> %scf
| 55> MaxIter 1000
| 56> end
| 57>
| 58> * xyz 0 1
| 59>   C                    : 10.999349            -5.266649            -1.319768
| 60>   O                    : 11.616505            -5.919857            -0.228641
| 61>   H                    : 10.790786            -6.069596            0.322672
| 62>   H                    : 11.675425            -4.939022            -2.153195
| 63>   H                    : 10.217054            -5.852464            -1.723310
| 64>   H                    : 10.436245            -4.378384            -0.978400
| 65>   C                      9.490457             -4.875805            3.455950
| 66>   O                      10.344244            -5.117745            2.427739
| 67>   H                      11.255796            -5.131421            2.828803
| 68>   H                      8.538186             -5.378607            3.341968
| 69>   H                      9.866922             -5.323209            4.390639
| 70>   H                      9.396912             -3.795127            3.671283
| 71> *
| 72>
| 73>                          ****END OF INPUT****
 Total Charge           Charge          ....    0
 Multiplicity           Mult            ....    1
 Number of Electrons    NEL             ....   36
Dispersion correction           -0.001392346
FINAL SINGLE POINT ENERGY      -231.464146811543
Dispersion correction           -0.000215747
FINAL SINGLE POINT ENERGY      -115.727572605860

CARTESIAN COORDINATES (ANGSTROEM)
---------------------------------
  C     10.999349   -5.266649   -1.319768
  O     11.616505   -5.919857   -0.228641
  H     10.790786   -6.069596    0.322672
  H     11.675425   -4.939022   -2.153195
  H     10.217054   -5.852464   -1.723310
  H     10.436245   -4.378384   -0.978400
  C      9.490457   -4.875805    3.455950
  O     10.344244   -5.117745    2.427739
  H     11.255796   -5.131421    2.828803
  H      8.538186   -5.378607    3.341968
  H      9.866922   -5.323209    4.390639
  H      9.396912   -3.795127    3.671283

 Multiplicity           Mult            ....    1
 Number of Electrons    NEL             ....   18
 Basis Dimension        Dim             ....  172

ORBITAL ENERGIES
----------------

  NO   OCC          E(Eh)            E(eV)
   0   2.0000     -19.234867      -523.4073
   1   2.0000     -10.308731      -280.5148
   2   2.0000      -1.151244       -31.3269
   3   2.0000      -0.788474       -21.4555
   4   2.0000      -0.619363       -16.8537
   5   2.0000      -0.553502       -15.0616
   6   2.0000      -0.530862       -14.4455
   7   2.0000      -0.425685       -11.5835
   8   2.0000      -0.371417       -10.1068
   9   0.0000       0.096457         2.6247
  10   0.0000       0.115999         3.1565
  11   0.0000       0.155202         4.2233
  12   0.0000       0.189649         5.1606
  13   0.0000       0.202360         5.5065

MULLIKEN ATOMIC CHARGES
-----------------------
   0 C :    0.001546
   1 O :    0.001066
   2 H :   -0.009488
   3 H :   -0.000056
   4 H :   -0.000195
   5 H :   -0.002287
   6 C :   -0.153317
   7 O :   -0.451307
   8 H :    0.323282
   9 H :    0.113799
  10 H :    0.086426
  11 H :    0.090532
Sum of atomic charges:   -0.0000000

LOEWDIN ATOMIC CHARGES
----------------------
   0 C :   -0.001918
   1 O :   -0.003123
   2 H :   -0.017402
   3 H :   -0.000014
   4 H :   -0.000019
   5 H :   -0.001008
   6 C :   -0.436159
   7 O :   -0.032935
   8 H :    0.200330
   9 H :    0.103407
  10 H :    0.094046
  11 H :    0.094795

  Mayer bond orders larger than 0.1
B(  6-C ,  7-O ) :   1.0103 B(  6-C ,  9-H ) :   0.9733 B(  6-C , 10-H ) :   0.9870
B(  6-C , 11-H ) :   0.9713 B(  7-O ,  8-H ) :   0.8884

Dispersion correction           -0.000217931
FINAL SINGLE POINT ENERGY      -115.730702668112

DIPOLE MOMENT
-------------
                                X             Y             Z
Electronic contribution:      0.96743      -0.30475      -1.61253
Nuclear contribution   :     -0.69515       0.34897       2.25418
                        -----------------------------------------
Total Dipole Moment    :      0.27228       0.04423       0.64165
                        -----------------------------------------
Magnitude (a.u.)       :      0.69843
Magnitude (Debye)      :      1.77526

Rotational constants in cm-1:     4.236847     0.881984     0.852987
Rotational constants in MHz : 127017.476149 26441.224063 25571.906120

                             ****ORCA TERMINATED NORMALLY****
TOTAL RUN TIME: 0 days 0 hours 1 minutes 2 seconds 452 msec
