                         Program Version 4.1.2  - RELEASE  -
|  1> #Run DFT-D3 single point of the dimer
|  2> ! wB97X-D3 def2-TZVP TIGHTSCF CHELPG PMODEL PAL8
|  3>
|  4> %base "14-87_DFT_AB"
|  5>
|  6> %scf
|  7> MaxIter 1000
|  8> end
|  9>
| 10> * xyz 0 1
| 11>   C                      -4.858137            8.794378             -2.162719
| 12>   O                      -5.057893            9.023676             -0.762485
| 13>   H                      -4.277961            8.800261             -0.211867
| 14>   H                      -5.459045            7.976104             -2.597022
| 15>   H                      -5.076426            9.725379             -2.688449
| 16>   H                      -3.806476            8.543483             -2.442663
| 17>   C                      0.387438             7.211846             -3.550846
| 18>   O                      1.792564             7.463747             -3.620765
| 19>   H                      2.049877             7.318178             -2.693924
| 20>   H                      0.212305             6.111345             -3.715045
| 21>   H                      -0.024939            7.621403             -2.647262
| 22>   H                      -0.201617            7.672835             -4.356984
| 23> *
| 24>
| 25> #Run DFT-D3 single point of the molecule with dimer basis set
| 26> $new_job
| 27> %base "14-87_DFT_A"
| 28> ! wB97X-D3 def2-TZVP TIGHTSCF CHELPG PMODEL
| 29>
| 30> %scf
| 31> MaxIter 1000
| 32> end
| 33>
| 34> * xyz 0 1
| 35>   C                      -4.858137            8.794378             -2.162719
| 36>   O                      -5.057893            9.023676             -0.762485
| 37>   H                      -4.277961            8.800261             -0.211867
| 38>   H                      -5.459045            7.976104             -2.597022
| 39>   H                      -5.076426            9.725379             -2.688449
| 40>   H                      -3.806476            8.543483             -2.442663
| 41>   C                    : 0.387438             7.211846             -3.550846
| 42>   O                    : 1.792564             7.463747             -3.620765
| 43>   H                    : 2.049877             7.318178             -2.693924
| 44>   H                    : 0.212305             6.111345             -3.715045
| 45>   H                    : -0.024939            7.621403             -2.647262
| 46>   H                    : -0.201617            7.672835             -4.356984
| 47> *
| 48>
| 49> #Run DFT-D3 single point of the particle with dimer basis set
| 50> $new_job
| 51> %base "14-87_DFT_B"
| 52> ! wB97X-D3 def2-TZVP TIGHTSCF CHELPG PMODEL
| 53>
| 54> %scf
| 55> MaxIter 1000
| 56> end
| 57>
| 58> * xyz 0 1
| 59>   C                    : -4.858137            8.794378             -2.162719
| 60>   O                    : -5.057893            9.023676             -0.762485
| 61>   H                    : -4.277961            8.800261             -0.211867
| 62>   H                    : -5.459045            7.976104             -2.597022
| 63>   H                    : -5.076426            9.725379             -2.688449
| 64>   H                    : -3.806476            8.543483             -2.442663
| 65>   C                      0.387438             7.211846             -3.550846
| 66>   O                      1.792564             7.463747             -3.620765
| 67>   H                      2.049877             7.318178             -2.693924
| 68>   H                      0.212305             6.111345             -3.715045
| 69>   H                      -0.024939            7.621403             -2.647262
| 70>   H                      -0.201617            7.672835             -4.356984
| 71> *
| 72>
| 73>                          ****END OF INPUT****
 Total Charge           Charge          ....    0
 Multiplicity           Mult            ....    1
 Number of Electrons    NEL             ....   36
Dispersion correction           -0.000689844
FINAL SINGLE POINT ENERGY      -231.463750797715
Dispersion correction           -0.000282954
FINAL SINGLE POINT ENERGY      -115.732703069234

CARTESIAN COORDINATES (ANGSTROEM)
---------------------------------
  C     -4.858137    8.794378   -2.162719
  O     -5.057893    9.023676   -0.762485
  H     -4.277961    8.800261   -0.211867
  H     -5.459045    7.976104   -2.597022
  H     -5.076426    9.725379   -2.688449
  H     -3.806476    8.543483   -2.442663
  C      0.387438    7.211846   -3.550846
  O      1.792564    7.463747   -3.620765
  H      2.049877    7.318178   -2.693924
  H      0.212305    6.111345   -3.715045
  H     -0.024939    7.621403   -2.647262
  H     -0.201617    7.672835   -4.356984

 Multiplicity           Mult            ....    1
 Number of Electrons    NEL             ....   18
 Basis Dimension        Dim             ....  172

ORBITAL ENERGIES
----------------

  NO   OCC          E(Eh)            E(eV)
   0   2.0000     -19.233234      -523.3629
   1   2.0000     -10.316388      -280.7232
   2   2.0000      -1.134115       -30.8608
   3   2.0000      -0.791446       -21.5363
   4   2.0000      -0.603993       -16.4355
   5   2.0000      -0.543206       -14.7814
   6   2.0000      -0.526852       -14.3364
   7   2.0000      -0.436483       -11.8773
   8   2.0000      -0.373888       -10.1740
   9   0.0000       0.082031         2.2322
  10   0.0000       0.113325         3.0837
  11   0.0000       0.142023         3.8646
  12   0.0000       0.160659         4.3718
  13   0.0000       0.184823         5.0293

MULLIKEN ATOMIC CHARGES
-----------------------
   0 C :    0.000118
   1 O :   -0.000002
   2 H :   -0.000004
   3 H :   -0.000006
   4 H :   -0.000006
   5 H :   -0.000255
   6 C :   -0.180244
   7 O :   -0.464245
   8 H :    0.316483
   9 H :    0.103400
  10 H :    0.108492
  11 H :    0.116270
Sum of atomic charges:   -0.0000000

LOEWDIN ATOMIC CHARGES
----------------------
   0 C :   -0.000015
   1 O :   -0.000001
   2 H :   -0.000001
   3 H :   -0.000000
   4 H :   -0.000000
   5 H :   -0.000129
   6 C :   -0.386363
   7 O :   -0.094671
   8 H :    0.179768
   9 H :    0.102903
  10 H :    0.092158
  11 H :    0.106351

  Mayer bond orders larger than 0.1
B(  6-C ,  7-O ) :   1.0048 B(  6-C ,  9-H ) :   0.9765 B(  6-C , 10-H ) :   0.9814
B(  6-C , 11-H ) :   0.9731 B(  7-O ,  8-H ) :   0.9007

Dispersion correction           -0.000236749
FINAL SINGLE POINT ENERGY      -115.731138226207

DIPOLE MOMENT
-------------
                                X             Y             Z
Electronic contribution:      1.81988       0.41398      -0.18803
Nuclear contribution   :     -2.22424      -0.57147       0.77816
                        -----------------------------------------
Total Dipole Moment    :     -0.40436      -0.15749       0.59013
                        -----------------------------------------
Magnitude (a.u.)       :      0.73250
Magnitude (Debye)      :      1.86188

Rotational constants in cm-1:     4.206880     0.817672     0.793520
Rotational constants in MHz : 126119.087927 24513.204452 23789.134129

                             ****ORCA TERMINATED NORMALLY****
TOTAL RUN TIME: 0 days 0 hours 1 minutes 6 seconds 184 msec
