                         Program Version 4.1.2  - RELEASE  -
|  1> #Run DFT-D3 single point of the dimer
|  2> ! wB97X-D3 def2-TZVP TIGHTSCF CHELPG PMODEL PAL8
|  3>
|  4> %base "17-146_DFT_AB"
|  5>
|  6> %scf
|  7> MaxIter 1000
|  8> end
|  9>
| 10> * xyz 0 1
| 11>   C                      -10.328175           0.004167             8.727744
| 12>   O                      -10.989691           -0.974389            8.027758
| 13>   H                      -10.821854           -1.774220            8.503981
| 14>   H                      -11.013817           0.818038             8.872286
| 15>   H                      -9.899313            -0.359662            9.666083
| 16>   H                      -9.581659            0.409951             8.128313
| 17>   C                      -7.625825            -2.118438            6.216507
| 18>   O                      -6.382549            -1.543956            6.599083
| 19>   H                      -6.301052            -0.573742            6.507122
| 20>   H                      -7.759299            -3.193026            6.659678
| 21>   H                      -8.447343            -1.473519            6.457667
| 22>   H                      -7.672048            -2.337438            5.139044
| 23> *
| 24>
| 25> #Run DFT-D3 single point of the molecule with dimer basis set
| 26> $new_job
| 27> %base "17-146_DFT_A"
| 28> ! wB97X-D3 def2-TZVP TIGHTSCF CHELPG PMODEL
| 29>
| 30> %scf
| 31> MaxIter 1000
| 32> end
| 33>
| 34> * xyz 0 1
| 35>   C                      -10.328175           0.004167             8.727744
| 36>   O                      -10.989691           -0.974389            8.027758
| 37>   H                      -10.821854           -1.774220            8.503981
| 38>   H                      -11.013817           0.818038             8.872286
| 39>   H                      -9.899313            -0.359662            9.666083
| 40>   H                      -9.581659            0.409951             8.128313
| 41>   C                    : -7.625825            -2.118438            6.216507
| 42>   O                    : -6.382549            -1.543956            6.599083
| 43>   H                    : -6.301052            -0.573742            6.507122
| 44>   H                    : -7.759299            -3.193026            6.659678
| 45>   H                    : -8.447343            -1.473519            6.457667
| 46>   H                    : -7.672048            -2.337438            5.139044
| 47> *
| 48>
| 49> #Run DFT-D3 single point of the particle with dimer basis set
| 50> $new_job
| 51> %base "17-146_DFT_B"
| 52> ! wB97X-D3 def2-TZVP TIGHTSCF CHELPG PMODEL
| 53>
| 54> %scf
| 55> MaxIter 1000
| 56> end
| 57>
| 58> * xyz 0 1
| 59>   C                    : -10.328175           0.004167             8.727744
| 60>   O                    : -10.989691           -0.974389            8.027758
| 61>   H                    : -10.821854           -1.774220            8.503981
| 62>   H                    : -11.013817           0.818038             8.872286
| 63>   H                    : -9.899313            -0.359662            9.666083
| 64>   H                    : -9.581659            0.409951             8.128313
| 65>   C                      -7.625825            -2.118438            6.216507
| 66>   O                      -6.382549            -1.543956            6.599083
| 67>   H                      -6.301052            -0.573742            6.507122
| 68>   H                      -7.759299            -3.193026            6.659678
| 69>   H                      -8.447343            -1.473519            6.457667
| 70>   H                      -7.672048            -2.337438            5.139044
| 71> *
| 72>
| 73>                          ****END OF INPUT****
 Total Charge           Charge          ....    0
 Multiplicity           Mult            ....    1
 Number of Electrons    NEL             ....   36
Dispersion correction           -0.001472649
FINAL SINGLE POINT ENERGY      -231.460894878276
Dispersion correction           -0.000209106
FINAL SINGLE POINT ENERGY      -115.730327258859

CARTESIAN COORDINATES (ANGSTROEM)
---------------------------------
  C    -10.328175    0.004167    8.727744
  O    -10.989691   -0.974389    8.027758
  H    -10.821854   -1.774220    8.503981
  H    -11.013817    0.818038    8.872286
  H     -9.899313   -0.359662    9.666083
  H     -9.581659    0.409951    8.128313
  C     -7.625825   -2.118438    6.216507
  O     -6.382549   -1.543956    6.599083
  H     -6.301052   -0.573742    6.507122
  H     -7.759299   -3.193026    6.659678
  H     -8.447343   -1.473519    6.457667
  H     -7.672048   -2.337438    5.139044

 Multiplicity           Mult            ....    1
 Number of Electrons    NEL             ....   18
 Basis Dimension        Dim             ....  172

ORBITAL ENERGIES
----------------

  NO   OCC          E(Eh)            E(eV)
   0   2.0000     -19.229088      -523.2501
   1   2.0000     -10.320827      -280.8440
   2   2.0000      -1.125140       -30.6166
   3   2.0000      -0.793869       -21.6023
   4   2.0000      -0.611251       -16.6330
   5   2.0000      -0.541080       -14.7235
   6   2.0000      -0.517061       -14.0699
   7   2.0000      -0.423391       -11.5210
   8   2.0000      -0.369720       -10.0606
   9   0.0000       0.081725         2.2238
  10   0.0000       0.117619         3.2006
  11   0.0000       0.144894         3.9428
  12   0.0000       0.174823         4.7572
  13   0.0000       0.185247         5.0408

MULLIKEN ATOMIC CHARGES
-----------------------
   0 C :    0.000173
   1 O :   -0.000353
   2 H :   -0.000495
   3 H :    0.000186
   4 H :   -0.000187
   5 H :    0.000948
   6 C :   -0.156715
   7 O :   -0.495373
   8 H :    0.321855
   9 H :    0.115465
  10 H :    0.108871
  11 H :    0.105625
Sum of atomic charges:   -0.0000000

LOEWDIN ATOMIC CHARGES
----------------------
   0 C :   -0.002168
   1 O :   -0.000986
   2 H :   -0.000564
   3 H :   -0.000009
   4 H :   -0.000046
   5 H :   -0.000951
   6 C :   -0.384478
   7 O :   -0.095522
   8 H :    0.177130
   9 H :    0.122700
  10 H :    0.090690
  11 H :    0.094205

  Mayer bond orders larger than 0.1
B(  6-C ,  7-O ) :   0.9966 B(  6-C ,  9-H ) :   0.9699 B(  6-C , 10-H ) :   0.9760
B(  6-C , 11-H ) :   0.9732 B(  7-O ,  8-H ) :   0.8872

Dispersion correction           -0.000276638
FINAL SINGLE POINT ENERGY      -115.728881773591

DIPOLE MOMENT
-------------
                                X             Y             Z
Electronic contribution:      1.58659       0.75000       0.57163
Nuclear contribution   :     -2.05521      -0.33776      -0.79806
                        -----------------------------------------
Total Dipole Moment    :     -0.46862       0.41224      -0.22643
                        -----------------------------------------
Magnitude (a.u.)       :      0.66394
Magnitude (Debye)      :      1.68760

Rotational constants in cm-1:     4.316570     0.807168     0.772681
Rotational constants in MHz : 129407.503542 24198.298243 23164.397578

                             ****ORCA TERMINATED NORMALLY****
TOTAL RUN TIME: 0 days 0 hours 1 minutes 13 seconds 141 msec
