                         Program Version 4.1.2  - RELEASE  -
|  1> #Run DFT geometry optimization
|  2> ! wB97X-D3 def2-TZVP TIGHTSCF Grid5 FinalGrid6 Opt CHELPG PAL4
|  3>
|  4> %base "6_geo_opt"
|  5> %geom MaxIter 500
|  6> end
|  7>
|  8> %geom
|  9>   Constraints
| 10>     { A 5 0 4 C }
| 11>   end
| 12> end
| 13>
| 14>
| 15> * xyz 0 1
| 16>   C                    3.011308             -1.180897            0.598492
| 17>   O                    4.394673             -1.128050            0.874308
| 18>   H                    4.772196             -0.379022            0.412493
| 19>   H                    2.806434             -1.318965            -0.469350
| 20>   H                    2.611037             -2.039693            1.136370
| 21>   H                    2.484237             -0.285028            0.946255
| 22> *
| 23>
| 24>                          ****END OF INPUT****
 Total Charge           Charge          ....    0
 Multiplicity           Mult            ....    1
 Number of Electrons    NEL             ....   18
Dispersion correction           -0.000239381
FINAL SINGLE POINT ENERGY      -115.738051143115
Dispersion correction            ... done
                    ***********************HURRAY********************

CARTESIAN COORDINATES (ANGSTROEM)
---------------------------------
  C      3.011381   -1.180933    0.598488
  O      4.394655   -1.128044    0.874295
  H      4.772132   -0.378981    0.412527
  H      2.806391   -1.318987   -0.469303
  H      2.610993   -2.039714    1.136339
  H      2.484333   -0.284997    0.946221

 Multiplicity           Mult            ....    1
 Number of Electrons    NEL             ....   18
 Basis Dimension        Dim             ....   86

ORBITAL ENERGIES
----------------

  NO   OCC          E(Eh)            E(eV)
   0   2.0000     -19.228103      -523.2233
   1   2.0000     -10.315107      -280.6883
   2   2.0000      -1.136836       -30.9349
   3   2.0000      -0.795355       -21.6427
   4   2.0000      -0.611596       -16.6424
   5   2.0000      -0.541801       -14.7432
   6   2.0000      -0.526343       -14.3225
   7   2.0000      -0.433757       -11.8031
   8   2.0000      -0.373629       -10.1669
   9   0.0000       0.116656         3.1744
  10   0.0000       0.156652         4.2627
  11   0.0000       0.202594         5.5129
  12   0.0000       0.205130         5.5819
  13   0.0000       0.226361         6.1596

MULLIKEN ATOMIC CHARGES
-----------------------
   0 C :   -0.150891
   1 O :   -0.477604
   2 H :    0.313036
   3 H :    0.098651
   4 H :    0.118200
   5 H :    0.098606
Sum of atomic charges:   -0.0000000

LOEWDIN ATOMIC CHARGES
----------------------
   0 C :   -0.385273
   1 O :   -0.076007
   2 H :    0.165803
   3 H :    0.093400
   4 H :    0.108683
   5 H :    0.093394

  Mayer bond orders larger than 0.1
B(  0-C ,  1-O ) :   0.9987 B(  0-C ,  3-H ) :   0.9755 B(  0-C ,  4-H ) :   0.9749
B(  0-C ,  5-H ) :   0.9755 B(  1-O ,  2-H ) :   0.9002

Dispersion correction           -0.000239351
FINAL SINGLE POINT ENERGY      -115.738051168624

DIPOLE MOMENT
-------------
                                X             Y             Z
Electronic contribution:      1.75694      -0.02830       0.41906
Nuclear contribution   :     -2.06669       0.47591      -0.81653
                        -----------------------------------------
Total Dipole Moment    :     -0.30976       0.44761      -0.39747
                        -----------------------------------------
Magnitude (a.u.)       :      0.67401
Magnitude (Debye)      :      1.71319

Rotational constants in cm-1:     4.293732     0.833772     0.804943
Rotational constants in MHz : 128722.835423 24995.866678 24131.588176

                             ****ORCA TERMINATED NORMALLY****
TOTAL RUN TIME: 0 days 0 hours 0 minutes 35 seconds 429 msec
