                         Program Version 4.1.2  - RELEASE  -
|  1> #Run DFT-D3 single point of the dimer
|  2> ! wB97X-D3 def2-TZVP TIGHTSCF CHELPG PMODEL PAL8
|  3>
|  4> %base "1-44_DFT_AB"
|  5>
|  6> %scf
|  7> MaxIter 1000
|  8> end
|  9>
| 10> * xyz 0 1
| 11>   C                      -2.553089            -9.341690            7.829840
| 12>   O                      -3.202982            -9.262673            6.528423
| 13>   H                      -3.995979            -9.807772            6.501171
| 14>   H                      -1.675079            -8.720392            7.907150
| 15>   H                      -3.152298            -8.937749            8.646217
| 16>   H                      -2.217675            -10.345372           8.116701
| 17>   C                      -0.360773            -4.481187            4.015772
| 18>   O                      -0.407854            -5.834745            4.477205
| 19>   H                      -1.357188            -5.975792            4.502171
| 20>   H                      0.672170             -4.300916            3.657115
| 21>   H                      -1.032604            -4.363814            3.176880
| 22>   H                      -0.513863            -3.781614            4.726855
| 23> *
| 24>
| 25> #Run DFT-D3 single point of the molecule with dimer basis set
| 26> $new_job
| 27> %base "1-44_DFT_A"
| 28> ! wB97X-D3 def2-TZVP TIGHTSCF CHELPG PMODEL
| 29>
| 30> %scf
| 31> MaxIter 1000
| 32> end
| 33>
| 34> * xyz 0 1
| 35>   C                      -2.553089            -9.341690            7.829840
| 36>   O                      -3.202982            -9.262673            6.528423
| 37>   H                      -3.995979            -9.807772            6.501171
| 38>   H                      -1.675079            -8.720392            7.907150
| 39>   H                      -3.152298            -8.937749            8.646217
| 40>   H                      -2.217675            -10.345372           8.116701
| 41>   C                    : -0.360773            -4.481187            4.015772
| 42>   O                    : -0.407854            -5.834745            4.477205
| 43>   H                    : -1.357188            -5.975792            4.502171
| 44>   H                    : 0.672170             -4.300916            3.657115
| 45>   H                    : -1.032604            -4.363814            3.176880
| 46>   H                    : -0.513863            -3.781614            4.726855
| 47> *
| 48>
| 49> #Run DFT-D3 single point of the particle with dimer basis set
| 50> $new_job
| 51> %base "1-44_DFT_B"
| 52> ! wB97X-D3 def2-TZVP TIGHTSCF CHELPG PMODEL
| 53>
| 54> %scf
| 55> MaxIter 1000
| 56> end
| 57>
| 58> * xyz 0 1
| 59>   C                    : -2.553089            -9.341690            7.829840
| 60>   O                    : -3.202982            -9.262673            6.528423
| 61>   H                    : -3.995979            -9.807772            6.501171
| 62>   H                    : -1.675079            -8.720392            7.907150
| 63>   H                    : -3.152298            -8.937749            8.646217
| 64>   H                    : -2.217675            -10.345372           8.116701
| 65>   C                      -0.360773            -4.481187            4.015772
| 66>   O                      -0.407854            -5.834745            4.477205
| 67>   H                      -1.357188            -5.975792            4.502171
| 68>   H                      0.672170             -4.300916            3.657115
| 69>   H                      -1.032604            -4.363814            3.176880
| 70>   H                      -0.513863            -3.781614            4.726855
| 71> *
| 72>
| 73>                          ****END OF INPUT****
 Total Charge           Charge          ....    0
 Multiplicity           Mult            ....    1
 Number of Electrons    NEL             ....   36
Dispersion correction           -0.000662982
FINAL SINGLE POINT ENERGY      -231.462128665284
Dispersion correction           -0.000288248
FINAL SINGLE POINT ENERGY      -115.732368526570

CARTESIAN COORDINATES (ANGSTROEM)
---------------------------------
  C     -2.553089   -9.341690    7.829840
  O     -3.202982   -9.262673    6.528423
  H     -3.995979   -9.807772    6.501171
  H     -1.675079   -8.720392    7.907150
  H     -3.152298   -8.937749    8.646217
  H     -2.217675  -10.345372    8.116701
  C     -0.360773   -4.481187    4.015772
  O     -0.407854   -5.834745    4.477205
  H     -1.357188   -5.975792    4.502171
  H      0.672170   -4.300916    3.657115
  H     -1.032604   -4.363814    3.176880
  H     -0.513863   -3.781614    4.726855

 Multiplicity           Mult            ....    1
 Number of Electrons    NEL             ....   18
 Basis Dimension        Dim             ....  172

ORBITAL ENERGIES
----------------

  NO   OCC          E(Eh)            E(eV)
   0   2.0000     -19.230808      -523.2969
   1   2.0000     -10.304711      -280.4055
   2   2.0000      -1.135496       -30.8984
   3   2.0000      -0.800519       -21.7832
   4   2.0000      -0.607412       -16.5285
   5   2.0000      -0.555940       -15.1279
   6   2.0000      -0.518447       -14.1077
   7   2.0000      -0.440733       -11.9929
   8   2.0000      -0.377818       -10.2810
   9   0.0000       0.085858         2.3363
  10   0.0000       0.114945         3.1278
  11   0.0000       0.156753         4.2655
  12   0.0000       0.163252         4.4423
  13   0.0000       0.195875         5.3300

MULLIKEN ATOMIC CHARGES
-----------------------
   0 C :    0.000082
   1 O :    0.000003
   2 H :    0.000001
   3 H :   -0.000257
   4 H :   -0.000002
   5 H :   -0.000007
   6 C :   -0.167661
   7 O :   -0.467489
   8 H :    0.310137
   9 H :    0.110282
  10 H :    0.102321
  11 H :    0.112590
Sum of atomic charges:    0.0000000

LOEWDIN ATOMIC CHARGES
----------------------
   0 C :   -0.000035
   1 O :   -0.000012
   2 H :   -0.000001
   3 H :   -0.000076
   4 H :   -0.000000
   5 H :   -0.000001
   6 C :   -0.364748
   7 O :   -0.087514
   8 H :    0.169529
   9 H :    0.113068
  10 H :    0.095383
  11 H :    0.074408

  Mayer bond orders larger than 0.1
B(  6-C ,  7-O ) :   1.0038 B(  6-C ,  9-H ) :   0.9794 B(  6-C , 10-H ) :   0.9878
B(  6-C , 11-H ) :   0.9693 B(  7-O ,  8-H ) :   0.9068

Dispersion correction           -0.000215449
FINAL SINGLE POINT ENERGY      -115.729062586999

DIPOLE MOMENT
-------------
                                X             Y             Z
Electronic contribution:     -0.00459      -1.65181       0.69562
Nuclear contribution   :     -0.55834       2.11855      -0.86126
                        -----------------------------------------
Total Dipole Moment    :     -0.56293       0.46675      -0.16564
                        -----------------------------------------
Magnitude (a.u.)       :      0.74979
Magnitude (Debye)      :      1.90581

Rotational constants in cm-1:     4.382337     0.834417     0.797741
Rotational constants in MHz : 131379.172789 25015.181424 23915.662786

                             ****ORCA TERMINATED NORMALLY****
TOTAL RUN TIME: 0 days 0 hours 6 minutes 15 seconds 576 msec
