                         Program Version 4.1.2  - RELEASE  -
|  1> #Run DFT-D3 single point of the dimer
|  2> ! wB97X-D3 def2-TZVP TIGHTSCF CHELPG PMODEL PAL8
|  3>
|  4> %base "8-34_DFT_AB"
|  5>
|  6> %scf
|  7> MaxIter 1000
|  8> end
|  9>
| 10> * xyz 0 1
| 11>   C                      1.242681             -1.490844            -1.242399
| 12>   O                      2.017750             -2.223303            -0.392427
| 13>   H                      2.854270             -2.385998            -0.915143
| 14>   H                      0.235646             -1.382705            -0.890573
| 15>   H                      1.563453             -0.460555            -1.422829
| 16>   H                      1.015853             -1.921014            -2.215583
| 17>   C                      0.454296             1.063015             -5.066884
| 18>   O                      0.027373             1.018387             -6.371034
| 19>   H                      -0.179703            0.128811             -6.695658
| 20>   H                      1.451245             0.704450             -4.844679
| 21>   H                      0.373348             2.132470             -4.849588
| 22>   H                      -0.201784            0.501082             -4.370031
| 23> *
| 24>
| 25> #Run DFT-D3 single point of the molecule with dimer basis set
| 26> $new_job
| 27> %base "8-34_DFT_A"
| 28> ! wB97X-D3 def2-TZVP TIGHTSCF CHELPG PMODEL
| 29>
| 30> %scf
| 31> MaxIter 1000
| 32> end
| 33>
| 34> * xyz 0 1
| 35>   C                      1.242681             -1.490844            -1.242399
| 36>   O                      2.017750             -2.223303            -0.392427
| 37>   H                      2.854270             -2.385998            -0.915143
| 38>   H                      0.235646             -1.382705            -0.890573
| 39>   H                      1.563453             -0.460555            -1.422829
| 40>   H                      1.015853             -1.921014            -2.215583
| 41>   C                    : 0.454296             1.063015             -5.066884
| 42>   O                    : 0.027373             1.018387             -6.371034
| 43>   H                    : -0.179703            0.128811             -6.695658
| 44>   H                    : 1.451245             0.704450             -4.844679
| 45>   H                    : 0.373348             2.132470             -4.849588
| 46>   H                    : -0.201784            0.501082             -4.370031
| 47> *
| 48>
| 49> #Run DFT-D3 single point of the particle with dimer basis set
| 50> $new_job
| 51> %base "8-34_DFT_B"
| 52> ! wB97X-D3 def2-TZVP TIGHTSCF CHELPG PMODEL
| 53>
| 54> %scf
| 55> MaxIter 1000
| 56> end
| 57>
| 58> * xyz 0 1
| 59>   C                    : 1.242681             -1.490844            -1.242399
| 60>   O                    : 2.017750             -2.223303            -0.392427
| 61>   H                    : 2.854270             -2.385998            -0.915143
| 62>   H                    : 0.235646             -1.382705            -0.890573
| 63>   H                    : 1.563453             -0.460555            -1.422829
| 64>   H                    : 1.015853             -1.921014            -2.215583
| 65>   C                      0.454296             1.063015             -5.066884
| 66>   O                      0.027373             1.018387             -6.371034
| 67>   H                      -0.179703            0.128811             -6.695658
| 68>   H                      1.451245             0.704450             -4.844679
| 69>   H                      0.373348             2.132470             -4.849588
| 70>   H                      -0.201784            0.501082             -4.370031
| 71> *
| 72>
| 73>                          ****END OF INPUT****
 Total Charge           Charge          ....    0
 Multiplicity           Mult            ....    1
 Number of Electrons    NEL             ....   36
Dispersion correction           -0.000980779
FINAL SINGLE POINT ENERGY      -231.463320442967
Dispersion correction           -0.000235095
FINAL SINGLE POINT ENERGY      -115.729708104106

CARTESIAN COORDINATES (ANGSTROEM)
---------------------------------
  C      1.242681   -1.490844   -1.242399
  O      2.017750   -2.223303   -0.392427
  H      2.854270   -2.385998   -0.915143
  H      0.235646   -1.382705   -0.890573
  H      1.563453   -0.460555   -1.422829
  H      1.015853   -1.921014   -2.215583
  C      0.454296    1.063015   -5.066884
  O      0.027373    1.018387   -6.371034
  H     -0.179703    0.128811   -6.695658
  H      1.451245    0.704450   -4.844679
  H      0.373348    2.132470   -4.849588
  H     -0.201784    0.501082   -4.370031

 Multiplicity           Mult            ....    1
 Number of Electrons    NEL             ....   18
 Basis Dimension        Dim             ....  172

ORBITAL ENERGIES
----------------

  NO   OCC          E(Eh)            E(eV)
   0   2.0000     -19.230125      -523.2783
   1   2.0000     -10.309624      -280.5391
   2   2.0000      -1.144584       -31.1457
   3   2.0000      -0.796134       -21.6639
   4   2.0000      -0.623797       -16.9744
   5   2.0000      -0.539968       -14.6933
   6   2.0000      -0.528394       -14.3783
   7   2.0000      -0.426261       -11.5992
   8   2.0000      -0.371393       -10.1061
   9   0.0000       0.079435         2.1615
  10   0.0000       0.116405         3.1675
  11   0.0000       0.144243         3.9251
  12   0.0000       0.169047         4.6000
  13   0.0000       0.188468         5.1285

MULLIKEN ATOMIC CHARGES
-----------------------
   0 C :    0.000048
   1 O :   -0.000013
   2 H :   -0.000005
   3 H :   -0.000046
   4 H :   -0.000223
   5 H :   -0.000318
   6 C :   -0.125373
   7 O :   -0.480613
   8 H :    0.315818
   9 H :    0.090057
  10 H :    0.114741
  11 H :    0.085926
Sum of atomic charges:   -0.0000000

LOEWDIN ATOMIC CHARGES
----------------------
   0 C :   -0.000558
   1 O :   -0.000006
   2 H :   -0.000001
   3 H :   -0.000036
   4 H :   -0.000184
   5 H :   -0.000233
   6 C :   -0.416622
   7 O :   -0.049829
   8 H :    0.173018
   9 H :    0.087604
  10 H :    0.113441
  11 H :    0.093408

  Mayer bond orders larger than 0.1
B(  6-C ,  7-O ) :   1.0075 B(  6-C ,  9-H ) :   0.9670 B(  6-C , 10-H ) :   0.9768
B(  6-C , 11-H ) :   0.9795 B(  7-O ,  8-H ) :   0.8923

Dispersion correction           -0.000250281
FINAL SINGLE POINT ENERGY      -115.733233147348

DIPOLE MOMENT
-------------
                                X             Y             Z
Electronic contribution:     -0.47239       0.00120      -1.75519
Nuclear contribution   :      0.49018      -0.56034       2.03041
                        -----------------------------------------
Total Dipole Moment    :      0.01779      -0.55914       0.27523
                        -----------------------------------------
Magnitude (a.u.)       :      0.62346
Magnitude (Debye)      :      1.58472

Rotational constants in cm-1:     4.379855     0.865513     0.830252
Rotational constants in MHz : 131304.758920 25947.430697 24890.326569

                             ****ORCA TERMINATED NORMALLY****
TOTAL RUN TIME: 0 days 0 hours 0 minutes 41 seconds 229 msec
