                         Program Version 4.1.2  - RELEASE  -
|  1> #Run DFT-D3 single point of the dimer
|  2> ! wB97X-D3 def2-TZVP TIGHTSCF CHELPG PMODEL PAL8
|  3>
|  4> %base "14-73_DFT_AB"
|  5>
|  6> %scf
|  7> MaxIter 1000
|  8> end
|  9>
| 10> * xyz 0 1
| 11>   C                      -7.703937            4.864431             7.544231
| 12>   O                      -8.044865            6.226566             7.754114
| 13>   H                      -8.552644            6.657544             7.051836
| 14>   H                      -8.567473            4.275343             7.272627
| 15>   H                      -6.941389            4.675493             6.753926
| 16>   H                      -7.290078            4.411499             8.488377
| 17>   C                      -4.147170            7.823411             6.874374
| 18>   O                      -4.410788            9.215313             6.804372
| 19>   H                      -4.681902            9.463682             7.702422
| 20>   H                      -5.066764            7.234937             7.221026
| 21>   H                      -4.034257            7.479906             5.912013
| 22>   H                      -3.313547            7.589338             7.539297
| 23> *
| 24>
| 25> #Run DFT-D3 single point of the molecule with dimer basis set
| 26> $new_job
| 27> %base "14-73_DFT_A"
| 28> ! wB97X-D3 def2-TZVP TIGHTSCF CHELPG PMODEL
| 29>
| 30> %scf
| 31> MaxIter 1000
| 32> end
| 33>
| 34> * xyz 0 1
| 35>   C                      -7.703937            4.864431             7.544231
| 36>   O                      -8.044865            6.226566             7.754114
| 37>   H                      -8.552644            6.657544             7.051836
| 38>   H                      -8.567473            4.275343             7.272627
| 39>   H                      -6.941389            4.675493             6.753926
| 40>   H                      -7.290078            4.411499             8.488377
| 41>   C                    : -4.147170            7.823411             6.874374
| 42>   O                    : -4.410788            9.215313             6.804372
| 43>   H                    : -4.681902            9.463682             7.702422
| 44>   H                    : -5.066764            7.234937             7.221026
| 45>   H                    : -4.034257            7.479906             5.912013
| 46>   H                    : -3.313547            7.589338             7.539297
| 47> *
| 48>
| 49> #Run DFT-D3 single point of the particle with dimer basis set
| 50> $new_job
| 51> %base "14-73_DFT_B"
| 52> ! wB97X-D3 def2-TZVP TIGHTSCF CHELPG PMODEL
| 53>
| 54> %scf
| 55> MaxIter 1000
| 56> end
| 57>
| 58> * xyz 0 1
| 59>   C                    : -7.703937            4.864431             7.544231
| 60>   O                    : -8.044865            6.226566             7.754114
| 61>   H                    : -8.552644            6.657544             7.051836
| 62>   H                    : -8.567473            4.275343             7.272627
| 63>   H                    : -6.941389            4.675493             6.753926
| 64>   H                    : -7.290078            4.411499             8.488377
| 65>   C                      -4.147170            7.823411             6.874374
| 66>   O                      -4.410788            9.215313             6.804372
| 67>   H                      -4.681902            9.463682             7.702422
| 68>   H                      -5.066764            7.234937             7.221026
| 69>   H                      -4.034257            7.479906             5.912013
| 70>   H                      -3.313547            7.589338             7.539297
| 71> *
| 72>
| 73>                          ****END OF INPUT****
 Total Charge           Charge          ....    0
 Multiplicity           Mult            ....    1
 Number of Electrons    NEL             ....   36
Dispersion correction           -0.001184877
FINAL SINGLE POINT ENERGY      -231.467013608280
Dispersion correction           -0.000279199
FINAL SINGLE POINT ENERGY      -115.733710670147

CARTESIAN COORDINATES (ANGSTROEM)
---------------------------------
  C     -7.703937    4.864431    7.544231
  O     -8.044865    6.226566    7.754114
  H     -8.552644    6.657544    7.051836
  H     -8.567473    4.275343    7.272627
  H     -6.941389    4.675493    6.753926
  H     -7.290078    4.411499    8.488377
  C     -4.147170    7.823411    6.874374
  O     -4.410788    9.215313    6.804372
  H     -4.681902    9.463682    7.702422
  H     -5.066764    7.234937    7.221026
  H     -4.034257    7.479906    5.912013
  H     -3.313547    7.589338    7.539297

 Multiplicity           Mult            ....    1
 Number of Electrons    NEL             ....   18
 Basis Dimension        Dim             ....  172

ORBITAL ENERGIES
----------------

  NO   OCC          E(Eh)            E(eV)
   0   2.0000     -19.232219      -523.3353
   1   2.0000     -10.311020      -280.5771
   2   2.0000      -1.135041       -30.8860
   3   2.0000      -0.796531       -21.6747
   4   2.0000      -0.607427       -16.5289
   5   2.0000      -0.547087       -14.8870
   6   2.0000      -0.523286       -14.2393
   7   2.0000      -0.438823       -11.9410
   8   2.0000      -0.373537       -10.1645
   9   0.0000       0.079674         2.1680
  10   0.0000       0.116901         3.1810
  11   0.0000       0.154359         4.2003
  12   0.0000       0.162203         4.4138
  13   0.0000       0.185403         5.0451

MULLIKEN ATOMIC CHARGES
-----------------------
   0 C :    0.000156
   1 O :    0.000164
   2 H :    0.000020
   3 H :   -0.000051
   4 H :   -0.000525
   5 H :   -0.000135
   6 C :   -0.168428
   7 O :   -0.471181
   8 H :    0.315076
   9 H :    0.092164
  10 H :    0.125560
  11 H :    0.107179
Sum of atomic charges:    0.0000000

LOEWDIN ATOMIC CHARGES
----------------------
   0 C :   -0.001870
   1 O :   -0.000634
   2 H :   -0.000129
   3 H :   -0.000033
   4 H :   -0.000565
   5 H :   -0.000071
   6 C :   -0.381493
   7 O :   -0.082956
   8 H :    0.175407
   9 H :    0.104310
  10 H :    0.092816
  11 H :    0.095218

  Mayer bond orders larger than 0.1
B(  6-C ,  7-O ) :   0.9992 B(  6-C ,  9-H ) :   0.9775 B(  6-C , 10-H ) :   0.9745
B(  6-C , 11-H ) :   0.9725 B(  7-O ,  8-H ) :   0.9002

Dispersion correction           -0.000234910
FINAL SINGLE POINT ENERGY      -115.731729247037

DIPOLE MOMENT
-------------
                                X             Y             Z
Electronic contribution:     -0.13759       1.82040      -0.29414
Nuclear contribution   :      0.07580      -2.20911       0.84970
                        -----------------------------------------
Total Dipole Moment    :     -0.06179      -0.38871       0.55557
                        -----------------------------------------
Magnitude (a.u.)       :      0.68086
Magnitude (Debye)      :      1.73060

Rotational constants in cm-1:     4.262957     0.828652     0.805039
Rotational constants in MHz : 127800.231623 24842.371519 24134.470022

                             ****ORCA TERMINATED NORMALLY****
TOTAL RUN TIME: 0 days 0 hours 0 minutes 52 seconds 893 msec
