                         Program Version 4.1.2  - RELEASE  -
|  1> #Run DFT-D3 single point of the dimer
|  2> ! wB97X-D3 def2-TZVP TIGHTSCF CHELPG PMODEL PAL8
|  3>
|  4> %base "18-16_DFT_AB"
|  5>
|  6> %scf
|  7> MaxIter 1000
|  8> end
|  9>
| 10> * xyz 0 1
| 11>   C                      1.789285             9.798423             -2.464702
| 12>   O                      2.889570             10.586637            -2.007297
| 13>   H                      2.798921             10.643839            -1.020595
| 14>   H                      1.306149             10.392855            -3.281718
| 15>   H                      2.071224             8.818361             -2.858965
| 16>   H                      0.975558             9.695420             -1.724452
| 17>   C                      -1.190909            10.327106            1.281165
| 18>   O                      -2.215405            10.697744            0.441225
| 19>   H                      -2.278766            9.994102             -0.216100
| 20>   H                      -0.267089            10.114509            0.636570
| 21>   H                      -1.034651            11.061205            2.086478
| 22>   H                      -1.474296            9.360939             1.762400
| 23> *
| 24>
| 25> #Run DFT-D3 single point of the molecule with dimer basis set
| 26> $new_job
| 27> %base "18-16_DFT_A"
| 28> ! wB97X-D3 def2-TZVP TIGHTSCF CHELPG PMODEL
| 29>
| 30> %scf
| 31> MaxIter 1000
| 32> end
| 33>
| 34> * xyz 0 1
| 35>   C                      1.789285             9.798423             -2.464702
| 36>   O                      2.889570             10.586637            -2.007297
| 37>   H                      2.798921             10.643839            -1.020595
| 38>   H                      1.306149             10.392855            -3.281718
| 39>   H                      2.071224             8.818361             -2.858965
| 40>   H                      0.975558             9.695420             -1.724452
| 41>   C                    : -1.190909            10.327106            1.281165
| 42>   O                    : -2.215405            10.697744            0.441225
| 43>   H                    : -2.278766            9.994102             -0.216100
| 44>   H                    : -0.267089            10.114509            0.636570
| 45>   H                    : -1.034651            11.061205            2.086478
| 46>   H                    : -1.474296            9.360939             1.762400
| 47> *
| 48>
| 49> #Run DFT-D3 single point of the particle with dimer basis set
| 50> $new_job
| 51> %base "18-16_DFT_B"
| 52> ! wB97X-D3 def2-TZVP TIGHTSCF CHELPG PMODEL
| 53>
| 54> %scf
| 55> MaxIter 1000
| 56> end
| 57>
| 58> * xyz 0 1
| 59>   C                    : 1.789285             9.798423             -2.464702
| 60>   O                    : 2.889570             10.586637            -2.007297
| 61>   H                    : 2.798921             10.643839            -1.020595
| 62>   H                    : 1.306149             10.392855            -3.281718
| 63>   H                    : 2.071224             8.818361             -2.858965
| 64>   H                    : 0.975558             9.695420             -1.724452
| 65>   C                      -1.190909            10.327106            1.281165
| 66>   O                      -2.215405            10.697744            0.441225
| 67>   H                      -2.278766            9.994102             -0.216100
| 68>   H                      -0.267089            10.114509            0.636570
| 69>   H                      -1.034651            11.061205            2.086478
| 70>   H                      -1.474296            9.360939             1.762400
| 71> *
| 72>
| 73>                          ****END OF INPUT****
 Total Charge           Charge          ....    0
 Multiplicity           Mult            ....    1
 Number of Electrons    NEL             ....   36
Dispersion correction           -0.001061565
FINAL SINGLE POINT ENERGY      -231.464279686186
Dispersion correction           -0.000263189
FINAL SINGLE POINT ENERGY      -115.732629464604

CARTESIAN COORDINATES (ANGSTROEM)
---------------------------------
  C      1.789285    9.798423   -2.464702
  O      2.889570   10.586637   -2.007297
  H      2.798921   10.643839   -1.020595
  H      1.306149   10.392855   -3.281718
  H      2.071224    8.818361   -2.858965
  H      0.975558    9.695420   -1.724452
  C     -1.190909   10.327106    1.281165
  O     -2.215405   10.697744    0.441225
  H     -2.278766    9.994102   -0.216100
  H     -0.267089   10.114509    0.636570
  H     -1.034651   11.061205    2.086478
  H     -1.474296    9.360939    1.762400

 Multiplicity           Mult            ....    1
 Number of Electrons    NEL             ....   18
 Basis Dimension        Dim             ....  172

ORBITAL ENERGIES
----------------

  NO   OCC          E(Eh)            E(eV)
   0   2.0000     -19.229416      -523.2590
   1   2.0000     -10.319029      -280.7950
   2   2.0000      -1.150120       -31.2964
   3   2.0000      -0.785017       -21.3614
   4   2.0000      -0.614618       -16.7246
   5   2.0000      -0.543521       -14.7900
   6   2.0000      -0.533944       -14.5293
   7   2.0000      -0.433120       -11.7858
   8   2.0000      -0.365785        -9.9535
   9   0.0000       0.079910         2.1745
  10   0.0000       0.116756         3.1771
  11   0.0000       0.149777         4.0756
  12   0.0000       0.171395         4.6639
  13   0.0000       0.184491         5.0203

MULLIKEN ATOMIC CHARGES
-----------------------
   0 C :   -0.002503
   1 O :    0.000089
   2 H :   -0.000166
   3 H :    0.000031
   4 H :    0.000125
   5 H :    0.004067
   6 C :   -0.159369
   7 O :   -0.461052
   8 H :    0.317272
   9 H :    0.086468
  10 H :    0.121139
  11 H :    0.093901
Sum of atomic charges:   -0.0000000

LOEWDIN ATOMIC CHARGES
----------------------
   0 C :   -0.000702
   1 O :   -0.000012
   2 H :   -0.000272
   3 H :   -0.000004
   4 H :   -0.000001
   5 H :   -0.001602
   6 C :   -0.422345
   7 O :   -0.055885
   8 H :    0.177012
   9 H :    0.100866
  10 H :    0.108778
  11 H :    0.094167

  Mayer bond orders larger than 0.1
B(  6-C ,  7-O ) :   0.9982 B(  6-C ,  9-H ) :   0.9777 B(  6-C , 10-H ) :   0.9692
B(  6-C , 11-H ) :   0.9831 B(  7-O ,  8-H ) :   0.8970

Dispersion correction           -0.000208839
FINAL SINGLE POINT ENERGY      -115.731489020048

DIPOLE MOMENT
-------------
                                X             Y             Z
Electronic contribution:     -1.36501       0.76304      -0.96232
Nuclear contribution   :      1.67343      -1.32917       0.86658
                        -----------------------------------------
Total Dipole Moment    :      0.30842      -0.56613      -0.09574
                        -----------------------------------------
Magnitude (a.u.)       :      0.65177
Magnitude (Debye)      :      1.65666

Rotational constants in cm-1:     4.031760     0.877869     0.838265
Rotational constants in MHz : 120869.136980 26317.845971 25130.556121

                             ****ORCA TERMINATED NORMALLY****
TOTAL RUN TIME: 0 days 0 hours 0 minutes 59 seconds 854 msec
