                         Program Version 4.1.2  - RELEASE  -
|  1> #Run DFT-D3 single point of the dimer
|  2> ! wB97X-D3 def2-TZVP TIGHTSCF CHELPG PMODEL PAL8
|  3>
|  4> %base "12-107_DFT_AB"
|  5>
|  6> %scf
|  7> MaxIter 1000
|  8> end
|  9>
| 10> * xyz 0 1
| 11>   C                      0.660958             5.234501             6.568248
| 12>   O                      1.793988             4.917370             7.403906
| 13>   H                      1.654328             3.934204             7.551554
| 14>   H                      0.805839             4.909714             5.553898
| 15>   H                      -0.204570            4.628391             6.807331
| 16>   H                      0.475641             6.293078             6.607980
| 17>   C                      3.937609             6.089715             5.121929
| 18>   O                      4.894966             6.938586             4.500561
| 19>   H                      5.624434             6.969971             5.126123
| 20>   H                      3.038266             5.905496             4.475867
| 21>   H                      4.311928             5.107801             5.271609
| 22>   H                      3.625862             6.468092             6.095905
| 23> *
| 24>
| 25> #Run DFT-D3 single point of the molecule with dimer basis set
| 26> $new_job
| 27> %base "12-107_DFT_A"
| 28> ! wB97X-D3 def2-TZVP TIGHTSCF CHELPG PMODEL
| 29>
| 30> %scf
| 31> MaxIter 1000
| 32> end
| 33>
| 34> * xyz 0 1
| 35>   C                      0.660958             5.234501             6.568248
| 36>   O                      1.793988             4.917370             7.403906
| 37>   H                      1.654328             3.934204             7.551554
| 38>   H                      0.805839             4.909714             5.553898
| 39>   H                      -0.204570            4.628391             6.807331
| 40>   H                      0.475641             6.293078             6.607980
| 41>   C                    : 3.937609             6.089715             5.121929
| 42>   O                    : 4.894966             6.938586             4.500561
| 43>   H                    : 5.624434             6.969971             5.126123
| 44>   H                    : 3.038266             5.905496             4.475867
| 45>   H                    : 4.311928             5.107801             5.271609
| 46>   H                    : 3.625862             6.468092             6.095905
| 47> *
| 48>
| 49> #Run DFT-D3 single point of the particle with dimer basis set
| 50> $new_job
| 51> %base "12-107_DFT_B"
| 52> ! wB97X-D3 def2-TZVP TIGHTSCF CHELPG PMODEL
| 53>
| 54> %scf
| 55> MaxIter 1000
| 56> end
| 57>
| 58> * xyz 0 1
| 59>   C                    : 0.660958             5.234501             6.568248
| 60>   O                    : 1.793988             4.917370             7.403906
| 61>   H                    : 1.654328             3.934204             7.551554
| 62>   H                    : 0.805839             4.909714             5.553898
| 63>   H                    : -0.204570            4.628391             6.807331
| 64>   H                    : 0.475641             6.293078             6.607980
| 65>   C                      3.937609             6.089715             5.121929
| 66>   O                      4.894966             6.938586             4.500561
| 67>   H                      5.624434             6.969971             5.126123
| 68>   H                      3.038266             5.905496             4.475867
| 69>   H                      4.311928             5.107801             5.271609
| 70>   H                      3.625862             6.468092             6.095905
| 71> *
| 72>
| 73>                          ****END OF INPUT****
 Total Charge           Charge          ....    0
 Multiplicity           Mult            ....    1
 Number of Electrons    NEL             ....   36
Dispersion correction           -0.001918443
FINAL SINGLE POINT ENERGY      -231.466236437972
Dispersion correction           -0.000230112
FINAL SINGLE POINT ENERGY      -115.730016180452

CARTESIAN COORDINATES (ANGSTROEM)
---------------------------------
  C      0.660958    5.234501    6.568248
  O      1.793988    4.917370    7.403906
  H      1.654328    3.934204    7.551554
  H      0.805839    4.909714    5.553898
  H     -0.204570    4.628391    6.807331
  H      0.475641    6.293078    6.607980
  C      3.937609    6.089715    5.121929
  O      4.894966    6.938586    4.500561
  H      5.624434    6.969971    5.126123
  H      3.038266    5.905496    4.475867
  H      4.311928    5.107801    5.271609
  H      3.625862    6.468092    6.095905

 Multiplicity           Mult            ....    1
 Number of Electrons    NEL             ....   18
 Basis Dimension        Dim             ....  172

ORBITAL ENERGIES
----------------

  NO   OCC          E(Eh)            E(eV)
   0   2.0000     -19.232472      -523.3422
   1   2.0000     -10.312876      -280.6276
   2   2.0000      -1.136281       -30.9198
   3   2.0000      -0.795816       -21.6553
   4   2.0000      -0.610021       -16.5995
   5   2.0000      -0.544743       -14.8232
   6   2.0000      -0.523050       -14.2329
   7   2.0000      -0.436947       -11.8899
   8   2.0000      -0.375404       -10.2153
   9   0.0000       0.081204         2.2097
  10   0.0000       0.116456         3.1689
  11   0.0000       0.158668         4.3176
  12   0.0000       0.160274         4.3613
  13   0.0000       0.177165         4.8209

MULLIKEN ATOMIC CHARGES
-----------------------
   0 C :   -0.002789
   1 O :    0.000267
   2 H :   -0.000074
   3 H :   -0.000266
   4 H :   -0.000122
   5 H :    0.000513
   6 C :   -0.166312
   7 O :   -0.466848
   8 H :    0.313640
   9 H :    0.119686
  10 H :    0.105041
  11 H :    0.097265
Sum of atomic charges:   -0.0000000

LOEWDIN ATOMIC CHARGES
----------------------
   0 C :   -0.005365
   1 O :   -0.003051
   2 H :   -0.000161
   3 H :   -0.001731
   4 H :   -0.000052
   5 H :   -0.000464
   6 C :   -0.381548
   7 O :   -0.080171
   8 H :    0.171432
   9 H :    0.117807
  10 H :    0.088067
  11 H :    0.095237

  Mayer bond orders larger than 0.1
B(  6-C ,  7-O ) :   1.0013 B(  6-C ,  9-H ) :   0.9717 B(  6-C , 10-H ) :   0.9749
B(  6-C , 11-H ) :   0.9779 B(  7-O ,  8-H ) :   0.9008

Dispersion correction           -0.000234757
FINAL SINGLE POINT ENERGY      -115.734002876629

DIPOLE MOMENT
-------------
                                X             Y             Z
Electronic contribution:      1.17536       1.17121      -0.92139
Nuclear contribution   :     -1.09003      -1.50849       1.55460
                        -----------------------------------------
Total Dipole Moment    :      0.08533      -0.33728       0.63322
                        -----------------------------------------
Magnitude (a.u.)       :      0.72250
Magnitude (Debye)      :      1.83645

Rotational constants in cm-1:     4.344871     0.824270     0.790151
Rotational constants in MHz : 130255.962475 24710.988577 23688.124423

                             ****ORCA TERMINATED NORMALLY****
TOTAL RUN TIME: 0 days 0 hours 1 minutes 5 seconds 603 msec
