                         Program Version 4.1.2  - RELEASE  -
|  1> #Run DFT-D3 single point of the dimer
|  2> ! wB97X-D3 def2-TZVP TIGHTSCF CHELPG PMODEL PAL8
|  3>
|  4> %base "8-148_DFT_AB"
|  5>
|  6> %scf
|  7> MaxIter 1000
|  8> end
|  9>
| 10> * xyz 0 1
| 11>   C                      -1.836438            -10.187012           8.477243
| 12>   O                      -3.182947            -10.585800           8.737161
| 13>   H                      -3.371845            -11.517466           8.417675
| 14>   H                      -1.785848            -9.646708            7.498774
| 15>   H                      -1.443843            -9.424437            9.185187
| 16>   H                      -1.188261            -11.073030           8.387025
| 17>   C                      -5.836670            -10.911321           4.427515
| 18>   O                      -4.845837            -10.467782           5.361570
| 19>   H                      -4.775316            -11.214859           5.959386
| 20>   H                      -5.871586            -10.517069           3.399717
| 21>   H                      -5.695896            -11.994299           4.186843
| 22>   H                      -6.824144            -10.822181           4.900740
| 23> *
| 24>
| 25> #Run DFT-D3 single point of the molecule with dimer basis set
| 26> $new_job
| 27> %base "8-148_DFT_A"
| 28> ! wB97X-D3 def2-TZVP TIGHTSCF CHELPG PMODEL
| 29>
| 30> %scf
| 31> MaxIter 1000
| 32> end
| 33>
| 34> * xyz 0 1
| 35>   C                      -1.836438            -10.187012           8.477243
| 36>   O                      -3.182947            -10.585800           8.737161
| 37>   H                      -3.371845            -11.517466           8.417675
| 38>   H                      -1.785848            -9.646708            7.498774
| 39>   H                      -1.443843            -9.424437            9.185187
| 40>   H                      -1.188261            -11.073030           8.387025
| 41>   C                    : -5.836670            -10.911321           4.427515
| 42>   O                    : -4.845837            -10.467782           5.361570
| 43>   H                    : -4.775316            -11.214859           5.959386
| 44>   H                    : -5.871586            -10.517069           3.399717
| 45>   H                    : -5.695896            -11.994299           4.186843
| 46>   H                    : -6.824144            -10.822181           4.900740
| 47> *
| 48>
| 49> #Run DFT-D3 single point of the particle with dimer basis set
| 50> $new_job
| 51> %base "8-148_DFT_B"
| 52> ! wB97X-D3 def2-TZVP TIGHTSCF CHELPG PMODEL
| 53>
| 54> %scf
| 55> MaxIter 1000
| 56> end
| 57>
| 58> * xyz 0 1
| 59>   C                    : -1.836438            -10.187012           8.477243
| 60>   O                    : -3.182947            -10.585800           8.737161
| 61>   H                    : -3.371845            -11.517466           8.417675
| 62>   H                    : -1.785848            -9.646708            7.498774
| 63>   H                    : -1.443843            -9.424437            9.185187
| 64>   H                    : -1.188261            -11.073030           8.387025
| 65>   C                      -5.836670            -10.911321           4.427515
| 66>   O                      -4.845837            -10.467782           5.361570
| 67>   H                      -4.775316            -11.214859           5.959386
| 68>   H                      -5.871586            -10.517069           3.399717
| 69>   H                      -5.695896            -11.994299           4.186843
| 70>   H                      -6.824144            -10.822181           4.900740
| 71> *
| 72>
| 73>                          ****END OF INPUT****
 Total Charge           Charge          ....    0
 Multiplicity           Mult            ....    1
 Number of Electrons    NEL             ....   36
Dispersion correction           -0.001155428
FINAL SINGLE POINT ENERGY      -231.458643723820
Dispersion correction           -0.000266921
FINAL SINGLE POINT ENERGY      -115.730899434178

CARTESIAN COORDINATES (ANGSTROEM)
---------------------------------
  C     -1.836438  -10.187012    8.477243
  O     -3.182947  -10.585800    8.737161
  H     -3.371845  -11.517466    8.417675
  H     -1.785848   -9.646708    7.498774
  H     -1.443843   -9.424437    9.185187
  H     -1.188261  -11.073030    8.387025
  C     -5.836670  -10.911321    4.427515
  O     -4.845837  -10.467782    5.361570
  H     -4.775316  -11.214859    5.959386
  H     -5.871586  -10.517069    3.399717
  H     -5.695896  -11.994299    4.186843
  H     -6.824144  -10.822181    4.900740

 Multiplicity           Mult            ....    1
 Number of Electrons    NEL             ....   18
 Basis Dimension        Dim             ....  172

ORBITAL ENERGIES
----------------

  NO   OCC          E(Eh)            E(eV)
   0   2.0000     -19.234236      -523.3902
   1   2.0000     -10.319624      -280.8112
   2   2.0000      -1.136154       -30.9163
   3   2.0000      -0.793405       -21.5897
   4   2.0000      -0.606404       -16.5011
   5   2.0000      -0.545939       -14.8557
   6   2.0000      -0.524495       -14.2722
   7   2.0000      -0.432083       -11.7576
   8   2.0000      -0.376035       -10.2324
   9   0.0000       0.082901         2.2559
  10   0.0000       0.119430         3.2499
  11   0.0000       0.145543         3.9604
  12   0.0000       0.176821         4.8115
  13   0.0000       0.196118         5.3366

MULLIKEN ATOMIC CHARGES
-----------------------
   0 C :   -0.000059
   1 O :   -0.000127
   2 H :   -0.000146
   3 H :   -0.000851
   4 H :   -0.000019
   5 H :    0.000033
   6 C :   -0.196370
   7 O :   -0.463982
   8 H :    0.320773
   9 H :    0.127150
  10 H :    0.102766
  11 H :    0.110833
Sum of atomic charges:   -0.0000000

LOEWDIN ATOMIC CHARGES
----------------------
   0 C :   -0.000427
   1 O :   -0.000316
   2 H :   -0.000784
   3 H :   -0.000396
   4 H :   -0.000006
   5 H :   -0.000003
   6 C :   -0.387629
   7 O :   -0.088878
   8 H :    0.173001
   9 H :    0.109093
  10 H :    0.099396
  11 H :    0.096949

  Mayer bond orders larger than 0.1
B(  6-C ,  7-O ) :   0.9952 B(  6-C ,  9-H ) :   0.9664 B(  6-C , 10-H ) :   0.9832
B(  6-C , 11-H ) :   0.9774 B(  7-O ,  8-H ) :   0.8977

Dispersion correction           -0.000244400
FINAL SINGLE POINT ENERGY      -115.728564651857

DIPOLE MOMENT
-------------
                                X             Y             Z
Electronic contribution:      1.36029       0.91018       1.11993
Nuclear contribution   :     -1.70194      -1.56806      -1.13951
                        -----------------------------------------
Total Dipole Moment    :     -0.34165      -0.65788      -0.01959
                        -----------------------------------------
Magnitude (a.u.)       :      0.74156
Magnitude (Debye)      :      1.88490

Rotational constants in cm-1:     4.328365     0.804043     0.781926
Rotational constants in MHz : 129761.129851 24104.600727 23441.543566

                             ****ORCA TERMINATED NORMALLY****
TOTAL RUN TIME: 0 days 0 hours 0 minutes 43 seconds 410 msec
