                         Program Version 4.1.2  - RELEASE  -
|  1> #Run DFT-D3 single point of the dimer
|  2> ! wB97X-D3 def2-TZVP TIGHTSCF CHELPG PMODEL PAL8
|  3>
|  4> %base "13-174_DFT_AB"
|  5>
|  6> %scf
|  7> MaxIter 1000
|  8> end
|  9>
| 10> * xyz 0 1
| 11>   C                      10.216525            -3.071881            -7.313007
| 12>   O                      10.804575            -3.202330            -8.625591
| 13>   H                      10.303395            -2.704909            -9.239488
| 14>   H                      10.831015            -3.504311            -6.458640
| 15>   H                      10.061956            -1.978435            -7.131601
| 16>   H                      9.240508             -3.474083            -7.385796
| 17>   C                      9.938267             -0.317956            -10.229287
| 18>   O                      9.221586             -1.545715            -10.242403
| 19>   H                      8.688830             -1.607761            -11.049615
| 20>   H                      10.575842            -0.293563            -11.107402
| 21>   H                      9.270930             0.566092             -10.208799
| 22>   H                      10.522078            -0.307752            -9.261394
| 23> *
| 24>
| 25> #Run DFT-D3 single point of the molecule with dimer basis set
| 26> $new_job
| 27> %base "13-174_DFT_A"
| 28> ! wB97X-D3 def2-TZVP TIGHTSCF CHELPG PMODEL
| 29>
| 30> %scf
| 31> MaxIter 1000
| 32> end
| 33>
| 34> * xyz 0 1
| 35>   C                      10.216525            -3.071881            -7.313007
| 36>   O                      10.804575            -3.202330            -8.625591
| 37>   H                      10.303395            -2.704909            -9.239488
| 38>   H                      10.831015            -3.504311            -6.458640
| 39>   H                      10.061956            -1.978435            -7.131601
| 40>   H                      9.240508             -3.474083            -7.385796
| 41>   C                    : 9.938267             -0.317956            -10.229287
| 42>   O                    : 9.221586             -1.545715            -10.242403
| 43>   H                    : 8.688830             -1.607761            -11.049615
| 44>   H                    : 10.575842            -0.293563            -11.107402
| 45>   H                    : 9.270930             0.566092             -10.208799
| 46>   H                    : 10.522078            -0.307752            -9.261394
| 47> *
| 48>
| 49> #Run DFT-D3 single point of the particle with dimer basis set
| 50> $new_job
| 51> %base "13-174_DFT_B"
| 52> ! wB97X-D3 def2-TZVP TIGHTSCF CHELPG PMODEL
| 53>
| 54> %scf
| 55> MaxIter 1000
| 56> end
| 57>
| 58> * xyz 0 1
| 59>   C                    : 10.216525            -3.071881            -7.313007
| 60>   O                    : 10.804575            -3.202330            -8.625591
| 61>   H                    : 10.303395            -2.704909            -9.239488
| 62>   H                    : 10.831015            -3.504311            -6.458640
| 63>   H                    : 10.061956            -1.978435            -7.131601
| 64>   H                    : 9.240508             -3.474083            -7.385796
| 65>   C                      9.938267             -0.317956            -10.229287
| 66>   O                      9.221586             -1.545715            -10.242403
| 67>   H                      8.688830             -1.607761            -11.049615
| 68>   H                      10.575842            -0.293563            -11.107402
| 69>   H                      9.270930             0.566092             -10.208799
| 70>   H                      10.522078            -0.307752            -9.261394
| 71> *
| 72>
| 73>                          ****END OF INPUT****
 Total Charge           Charge          ....    0
 Multiplicity           Mult            ....    1
 Number of Electrons    NEL             ....   36
Dispersion correction           -0.002032570
FINAL SINGLE POINT ENERGY      -231.473526123191
Dispersion correction           -0.000234603
FINAL SINGLE POINT ENERGY      -115.729445184385

CARTESIAN COORDINATES (ANGSTROEM)
---------------------------------
  C     10.216525   -3.071881   -7.313007
  O     10.804575   -3.202330   -8.625591
  H     10.303395   -2.704909   -9.239488
  H     10.831015   -3.504311   -6.458640
  H     10.061956   -1.978435   -7.131601
  H      9.240508   -3.474083   -7.385796
  C      9.938267   -0.317956  -10.229287
  O      9.221586   -1.545715  -10.242403
  H      8.688830   -1.607761  -11.049615
  H     10.575842   -0.293563  -11.107402
  H      9.270930    0.566092  -10.208799
  H     10.522078   -0.307752   -9.261394

 Multiplicity           Mult            ....    1
 Number of Electrons    NEL             ....   18
 Basis Dimension        Dim             ....  172

ORBITAL ENERGIES
----------------

  NO   OCC          E(Eh)            E(eV)
   0   2.0000     -19.229005      -523.2478
   1   2.0000     -10.318312      -280.7755
   2   2.0000      -1.130791       -30.7704
   3   2.0000      -0.791325       -21.5331
   4   2.0000      -0.607429       -16.5290
   5   2.0000      -0.545415       -14.8415
   6   2.0000      -0.519567       -14.1381
   7   2.0000      -0.430693       -11.7197
   8   2.0000      -0.373140       -10.1537
   9   0.0000       0.098158         2.6710
  10   0.0000       0.125621         3.4183
  11   0.0000       0.153839         4.1862
  12   0.0000       0.190180         5.1751
  13   0.0000       0.197981         5.3873

MULLIKEN ATOMIC CHARGES
-----------------------
   0 C :    0.002264
   1 O :   -0.001143
   2 H :   -0.005154
   3 H :   -0.000081
   4 H :   -0.001150
   5 H :   -0.001836
   6 C :   -0.157507
   7 O :   -0.477903
   8 H :    0.310173
   9 H :    0.109172
  10 H :    0.100992
  11 H :    0.122172
Sum of atomic charges:    0.0000000

LOEWDIN ATOMIC CHARGES
----------------------
   0 C :   -0.004329
   1 O :   -0.005870
   2 H :   -0.045254
   3 H :   -0.000041
   4 H :   -0.001134
   5 H :   -0.000642
   6 C :   -0.375379
   7 O :   -0.047593
   8 H :    0.169929
   9 H :    0.093833
  10 H :    0.096498
  11 H :    0.119981

  Mayer bond orders larger than 0.1
B(  6-C ,  7-O ) :   0.9791 B(  6-C ,  9-H ) :   0.9797 B(  6-C , 10-H ) :   0.9673
B(  6-C , 11-H ) :   0.9762 B(  7-O ,  8-H ) :   0.8966

Dispersion correction           -0.000242219
FINAL SINGLE POINT ENERGY      -115.735753440064

DIPOLE MOMENT
-------------
                                X             Y             Z
Electronic contribution:     -0.82007      -1.52705       0.04973
Nuclear contribution   :      0.76761       1.98723      -0.55753
                        -----------------------------------------
Total Dipole Moment    :     -0.05246       0.46018      -0.50779
                        -----------------------------------------
Magnitude (a.u.)       :      0.68729
Magnitude (Debye)      :      1.74696

Rotational constants in cm-1:     4.136869     0.827179     0.795210
Rotational constants in MHz : 124020.220698 24798.198200 23839.785007

                             ****ORCA TERMINATED NORMALLY****
TOTAL RUN TIME: 0 days 0 hours 1 minutes 13 seconds 918 msec
