                         Program Version 4.1.2  - RELEASE  -
|  1> #Run DFT-D3 single point of the dimer
|  2> ! wB97X-D3 def2-TZVP TIGHTSCF CHELPG PMODEL PAL8
|  3>
|  4> %base "3-81_DFT_AB"
|  5>
|  6> %scf
|  7> MaxIter 1000
|  8> end
|  9>
| 10> * xyz 0 1
| 11>   C                      -1.179622            -0.680025            6.462159
| 12>   O                      -1.994517            0.038928             7.405688
| 13>   H                      -2.109912            0.907878             7.079844
| 14>   H                      -0.109920            -0.503745            6.727623
| 15>   H                      -1.354234            -1.756892            6.522703
| 16>   H                      -1.366128            -0.313220            5.402350
| 17>   C                      0.989700             0.103803             9.865704
| 18>   O                      1.265327             0.630240             11.214209
| 19>   H                      0.451374             1.012931             11.587193
| 20>   H                      0.426579             -0.844866            9.908428
| 21>   H                      0.413281             0.719244             9.217680
| 22>   H                      1.945017             -0.202523            9.432650
| 23> *
| 24>
| 25> #Run DFT-D3 single point of the molecule with dimer basis set
| 26> $new_job
| 27> %base "3-81_DFT_A"
| 28> ! wB97X-D3 def2-TZVP TIGHTSCF CHELPG PMODEL
| 29>
| 30> %scf
| 31> MaxIter 1000
| 32> end
| 33>
| 34> * xyz 0 1
| 35>   C                      -1.179622            -0.680025            6.462159
| 36>   O                      -1.994517            0.038928             7.405688
| 37>   H                      -2.109912            0.907878             7.079844
| 38>   H                      -0.109920            -0.503745            6.727623
| 39>   H                      -1.354234            -1.756892            6.522703
| 40>   H                      -1.366128            -0.313220            5.402350
| 41>   C                    : 0.989700             0.103803             9.865704
| 42>   O                    : 1.265327             0.630240             11.214209
| 43>   H                    : 0.451374             1.012931             11.587193
| 44>   H                    : 0.426579             -0.844866            9.908428
| 45>   H                    : 0.413281             0.719244             9.217680
| 46>   H                    : 1.945017             -0.202523            9.432650
| 47> *
| 48>
| 49> #Run DFT-D3 single point of the particle with dimer basis set
| 50> $new_job
| 51> %base "3-81_DFT_B"
| 52> ! wB97X-D3 def2-TZVP TIGHTSCF CHELPG PMODEL
| 53>
| 54> %scf
| 55> MaxIter 1000
| 56> end
| 57>
| 58> * xyz 0 1
| 59>   C                    : -1.179622            -0.680025            6.462159
| 60>   O                    : -1.994517            0.038928             7.405688
| 61>   H                    : -2.109912            0.907878             7.079844
| 62>   H                    : -0.109920            -0.503745            6.727623
| 63>   H                    : -1.354234            -1.756892            6.522703
| 64>   H                    : -1.366128            -0.313220            5.402350
| 65>   C                      0.989700             0.103803             9.865704
| 66>   O                      1.265327             0.630240             11.214209
| 67>   H                      0.451374             1.012931             11.587193
| 68>   H                      0.426579             -0.844866            9.908428
| 69>   H                      0.413281             0.719244             9.217680
| 70>   H                      1.945017             -0.202523            9.432650
| 71> *
| 72>
| 73>                          ****END OF INPUT****
 Total Charge           Charge          ....    0
 Multiplicity           Mult            ....    1
 Number of Electrons    NEL             ....   36
Dispersion correction           -0.001583303
FINAL SINGLE POINT ENERGY      -231.467744115881
Dispersion correction           -0.000253585
FINAL SINGLE POINT ENERGY      -115.734117312832

CARTESIAN COORDINATES (ANGSTROEM)
---------------------------------
  C     -1.179622   -0.680025    6.462159
  O     -1.994517    0.038928    7.405688
  H     -2.109912    0.907878    7.079844
  H     -0.109920   -0.503745    6.727623
  H     -1.354234   -1.756892    6.522703
  H     -1.366128   -0.313220    5.402350
  C      0.989700    0.103803    9.865704
  O      1.265327    0.630240   11.214209
  H      0.451374    1.012931   11.587193
  H      0.426579   -0.844866    9.908428
  H      0.413281    0.719244    9.217680
  H      1.945017   -0.202523    9.432650

 Multiplicity           Mult            ....    1
 Number of Electrons    NEL             ....   18
 Basis Dimension        Dim             ....  172

ORBITAL ENERGIES
----------------

  NO   OCC          E(Eh)            E(eV)
   0   2.0000     -19.232458      -523.3418
   1   2.0000     -10.316375      -280.7228
   2   2.0000      -1.115655       -30.3585
   3   2.0000      -0.800930       -21.7944
   4   2.0000      -0.604847       -16.4587
   5   2.0000      -0.530997       -14.4492
   6   2.0000      -0.516763       -14.0618
   7   2.0000      -0.441804       -12.0221
   8   2.0000      -0.374223       -10.1831
   9   0.0000       0.078079         2.1246
  10   0.0000       0.115060         3.1309
  11   0.0000       0.149676         4.0729
  12   0.0000       0.156691         4.2638
  13   0.0000       0.186294         5.0693

MULLIKEN ATOMIC CHARGES
-----------------------
   0 C :   -0.001554
   1 O :    0.000115
   2 H :   -0.000049
   3 H :    0.000277
   4 H :    0.000168
   5 H :   -0.000009
   6 C :   -0.165951
   7 O :   -0.487635
   8 H :    0.313869
   9 H :    0.104403
  10 H :    0.113284
  11 H :    0.123082
Sum of atomic charges:    0.0000000

LOEWDIN ATOMIC CHARGES
----------------------
   0 C :   -0.001646
   1 O :   -0.000664
   2 H :   -0.000253
   3 H :   -0.001053
   4 H :   -0.000032
   5 H :   -0.000013
   6 C :   -0.344464
   7 O :   -0.121771
   8 H :    0.170485
   9 H :    0.099082
  10 H :    0.089229
  11 H :    0.111099

  Mayer bond orders larger than 0.1
B(  6-C ,  7-O ) :   0.9985 B(  6-C ,  9-H ) :   0.9757 B(  6-C , 10-H ) :   0.9693
B(  6-C , 11-H ) :   0.9746 B(  7-O ,  8-H ) :   0.8984

Dispersion correction           -0.000282072
FINAL SINGLE POINT ENERGY      -115.731788133303

DIPOLE MOMENT
-------------
                                X             Y             Z
Electronic contribution:      0.47297       0.77051       1.60970
Nuclear contribution   :     -1.10666      -0.76157      -1.95688
                        -----------------------------------------
Total Dipole Moment    :     -0.63369       0.00894      -0.34718
                        -----------------------------------------
Magnitude (a.u.)       :      0.72262
Magnitude (Debye)      :      1.83674

Rotational constants in cm-1:     4.390184     0.773793     0.741719
Rotational constants in MHz : 131614.397400 23197.726133 22236.186444

                             ****ORCA TERMINATED NORMALLY****
TOTAL RUN TIME: 0 days 0 hours 6 minutes 15 seconds 816 msec
