                         Program Version 4.1.2  - RELEASE  -
|  1> #Run DFT-D3 single point of the dimer
|  2> ! wB97X-D3 def2-TZVP TIGHTSCF CHELPG PMODEL PAL8
|  3>
|  4> %base "10-217_DFT_AB"
|  5>
|  6> %scf
|  7> MaxIter 1000
|  8> end
|  9>
| 10> * xyz 0 1
| 11>   C                      10.951133            -10.988506           5.497178
| 12>   O                      10.062159            -11.819149           6.122611
| 13>   H                      9.179370             -11.770537           5.682579
| 14>   H                      10.603334            -10.726235           4.512102
| 15>   H                      10.962952            -10.014194           6.018189
| 16>   H                      12.001952            -11.322134           5.592371
| 17>   C                      6.680338             -10.588984           5.455633
| 18>   O                      7.168852             -11.853313           5.002752
| 19>   H                      6.602642             -12.129589           4.253786
| 20>   H                      6.544670             -9.835620            4.662511
| 21>   H                      5.754493             -10.669686           6.025856
| 22>   H                      7.427416             -10.176326           6.131793
| 23> *
| 24>
| 25> #Run DFT-D3 single point of the molecule with dimer basis set
| 26> $new_job
| 27> %base "10-217_DFT_A"
| 28> ! wB97X-D3 def2-TZVP TIGHTSCF CHELPG PMODEL
| 29>
| 30> %scf
| 31> MaxIter 1000
| 32> end
| 33>
| 34> * xyz 0 1
| 35>   C                      10.951133            -10.988506           5.497178
| 36>   O                      10.062159            -11.819149           6.122611
| 37>   H                      9.179370             -11.770537           5.682579
| 38>   H                      10.603334            -10.726235           4.512102
| 39>   H                      10.962952            -10.014194           6.018189
| 40>   H                      12.001952            -11.322134           5.592371
| 41>   C                    : 6.680338             -10.588984           5.455633
| 42>   O                    : 7.168852             -11.853313           5.002752
| 43>   H                    : 6.602642             -12.129589           4.253786
| 44>   H                    : 6.544670             -9.835620            4.662511
| 45>   H                    : 5.754493             -10.669686           6.025856
| 46>   H                    : 7.427416             -10.176326           6.131793
| 47> *
| 48>
| 49> #Run DFT-D3 single point of the particle with dimer basis set
| 50> $new_job
| 51> %base "10-217_DFT_B"
| 52> ! wB97X-D3 def2-TZVP TIGHTSCF CHELPG PMODEL
| 53>
| 54> %scf
| 55> MaxIter 1000
| 56> end
| 57>
| 58> * xyz 0 1
| 59>   C                    : 10.951133            -10.988506           5.497178
| 60>   O                    : 10.062159            -11.819149           6.122611
| 61>   H                    : 9.179370             -11.770537           5.682579
| 62>   H                    : 10.603334            -10.726235           4.512102
| 63>   H                    : 10.962952            -10.014194           6.018189
| 64>   H                    : 12.001952            -11.322134           5.592371
| 65>   C                      6.680338             -10.588984           5.455633
| 66>   O                      7.168852             -11.853313           5.002752
| 67>   H                      6.602642             -12.129589           4.253786
| 68>   H                      6.544670             -9.835620            4.662511
| 69>   H                      5.754493             -10.669686           6.025856
| 70>   H                      7.427416             -10.176326           6.131793
| 71> *
| 72>
| 73>                          ****END OF INPUT****
 Total Charge           Charge          ....    0
 Multiplicity           Mult            ....    1
 Number of Electrons    NEL             ....   36
Dispersion correction           -0.001758783
FINAL SINGLE POINT ENERGY      -231.474110136411
Dispersion correction           -0.000227617
FINAL SINGLE POINT ENERGY      -115.729821060657

CARTESIAN COORDINATES (ANGSTROEM)
---------------------------------
  C     10.951133  -10.988506    5.497178
  O     10.062159  -11.819149    6.122611
  H      9.179370  -11.770537    5.682579
  H     10.603334  -10.726235    4.512102
  H     10.962952  -10.014194    6.018189
  H     12.001952  -11.322134    5.592371
  C      6.680338  -10.588984    5.455633
  O      7.168852  -11.853313    5.002752
  H      6.602642  -12.129589    4.253786
  H      6.544670   -9.835620    4.662511
  H      5.754493  -10.669686    6.025856
  H      7.427416  -10.176326    6.131793

 Multiplicity           Mult            ....    1
 Number of Electrons    NEL             ....   18
 Basis Dimension        Dim             ....  172

ORBITAL ENERGIES
----------------

  NO   OCC          E(Eh)            E(eV)
   0   2.0000     -19.234519      -523.3979
   1   2.0000     -10.313430      -280.6427
   2   2.0000      -1.129492       -30.7350
   3   2.0000      -0.795253       -21.6399
   4   2.0000      -0.606850       -16.5132
   5   2.0000      -0.539892       -14.6912
   6   2.0000      -0.522526       -14.2187
   7   2.0000      -0.436250       -11.8710
   8   2.0000      -0.376329       -10.2404
   9   0.0000       0.095196         2.5904
  10   0.0000       0.121131         3.2962
  11   0.0000       0.152024         4.1368
  12   0.0000       0.184729         5.0267
  13   0.0000       0.201517         5.4836

MULLIKEN ATOMIC CHARGES
-----------------------
   0 C :    0.000260
   1 O :   -0.001005
   2 H :   -0.003044
   3 H :   -0.001496
   4 H :   -0.000144
   5 H :   -0.000054
   6 C :   -0.173222
   7 O :   -0.465571
   8 H :    0.310767
   9 H :    0.103715
  10 H :    0.106734
  11 H :    0.123059
Sum of atomic charges:    0.0000000

LOEWDIN ATOMIC CHARGES
----------------------
   0 C :   -0.001162
   1 O :   -0.002015
   2 H :   -0.024681
   3 H :   -0.000481
   4 H :   -0.000097
   5 H :   -0.000011
   6 C :   -0.377332
   7 O :   -0.072027
   8 H :    0.177721
   9 H :    0.096287
  10 H :    0.094313
  11 H :    0.109484

  Mayer bond orders larger than 0.1
B(  6-C ,  7-O ) :   0.9967 B(  6-C ,  9-H ) :   0.9723 B(  6-C , 10-H ) :   0.9713
B(  6-C , 11-H ) :   0.9786 B(  7-O ,  8-H ) :   0.8973

Dispersion correction           -0.000257162
FINAL SINGLE POINT ENERGY      -115.736742023504

DIPOLE MOMENT
-------------
                                X             Y             Z
Electronic contribution:      0.69032      -1.64707      -0.51354
Nuclear contribution   :     -1.23316       1.98653       0.23166
                        -----------------------------------------
Total Dipole Moment    :     -0.54284       0.33946      -0.28188
                        -----------------------------------------
Magnitude (a.u.)       :      0.69955
Magnitude (Debye)      :      1.77811

Rotational constants in cm-1:     4.297741     0.812391     0.784903
Rotational constants in MHz : 128843.026336 24354.874842 23530.791267

                             ****ORCA TERMINATED NORMALLY****
TOTAL RUN TIME: 0 days 0 hours 1 minutes 8 seconds 801 msec
