                         Program Version 4.1.2  - RELEASE  -
|  1> #Run DFT-D3 single point of the dimer
|  2> ! wB97X-D3 def2-TZVP TIGHTSCF CHELPG PMODEL PAL8
|  3>
|  4> %base "17-161_DFT_AB"
|  5>
|  6> %scf
|  7> MaxIter 1000
|  8> end
|  9>
| 10> * xyz 0 1
| 11>   C                      3.328778             5.216020             -0.430047
| 12>   O                      4.347338             5.363856             -1.385771
| 13>   H                      4.637568             6.277139             -1.392109
| 14>   H                      2.449465             5.800747             -0.724251
| 15>   H                      2.975368             4.180181             -0.373804
| 16>   H                      3.548815             5.555895             0.596199
| 17>   C                      5.054067             9.348535             -0.828592
| 18>   O                      4.545536             8.325056             -1.653997
| 19>   H                      3.968894             8.749369             -2.261235
| 20>   H                      5.746335             10.032893            -1.249748
| 21>   H                      4.274785             9.977519             -0.417629
| 22>   H                      5.502303             8.937228             0.087783
| 23> *
| 24>
| 25> #Run DFT-D3 single point of the molecule with dimer basis set
| 26> $new_job
| 27> %base "17-161_DFT_A"
| 28> ! wB97X-D3 def2-TZVP TIGHTSCF CHELPG PMODEL
| 29>
| 30> %scf
| 31> MaxIter 1000
| 32> end
| 33>
| 34> * xyz 0 1
| 35>   C                      3.328778             5.216020             -0.430047
| 36>   O                      4.347338             5.363856             -1.385771
| 37>   H                      4.637568             6.277139             -1.392109
| 38>   H                      2.449465             5.800747             -0.724251
| 39>   H                      2.975368             4.180181             -0.373804
| 40>   H                      3.548815             5.555895             0.596199
| 41>   C                    : 5.054067             9.348535             -0.828592
| 42>   O                    : 4.545536             8.325056             -1.653997
| 43>   H                    : 3.968894             8.749369             -2.261235
| 44>   H                    : 5.746335             10.032893            -1.249748
| 45>   H                    : 4.274785             9.977519             -0.417629
| 46>   H                    : 5.502303             8.937228             0.087783
| 47> *
| 48>
| 49> #Run DFT-D3 single point of the particle with dimer basis set
| 50> $new_job
| 51> %base "17-161_DFT_B"
| 52> ! wB97X-D3 def2-TZVP TIGHTSCF CHELPG PMODEL
| 53>
| 54> %scf
| 55> MaxIter 1000
| 56> end
| 57>
| 58> * xyz 0 1
| 59>   C                    : 3.328778             5.216020             -0.430047
| 60>   O                    : 4.347338             5.363856             -1.385771
| 61>   H                    : 4.637568             6.277139             -1.392109
| 62>   H                    : 2.449465             5.800747             -0.724251
| 63>   H                    : 2.975368             4.180181             -0.373804
| 64>   H                    : 3.548815             5.555895             0.596199
| 65>   C                      5.054067             9.348535             -0.828592
| 66>   O                      4.545536             8.325056             -1.653997
| 67>   H                      3.968894             8.749369             -2.261235
| 68>   H                      5.746335             10.032893            -1.249748
| 69>   H                      4.274785             9.977519             -0.417629
| 70>   H                      5.502303             8.937228             0.087783
| 71> *
| 72>
| 73>                          ****END OF INPUT****
 Total Charge           Charge          ....    0
 Multiplicity           Mult            ....    1
 Number of Electrons    NEL             ....   36
Dispersion correction           -0.001680609
FINAL SINGLE POINT ENERGY      -231.477128740029
Dispersion correction           -0.000248804
FINAL SINGLE POINT ENERGY      -115.735911095654

CARTESIAN COORDINATES (ANGSTROEM)
---------------------------------
  C      3.328778    5.216020   -0.430047
  O      4.347338    5.363856   -1.385771
  H      4.637568    6.277139   -1.392109
  H      2.449465    5.800747   -0.724251
  H      2.975368    4.180181   -0.373804
  H      3.548815    5.555895    0.596199
  C      5.054067    9.348535   -0.828592
  O      4.545536    8.325056   -1.653997
  H      3.968894    8.749369   -2.261235
  H      5.746335   10.032893   -1.249748
  H      4.274785    9.977519   -0.417629
  H      5.502303    8.937228    0.087783

 Multiplicity           Mult            ....    1
 Number of Electrons    NEL             ....   18
 Basis Dimension        Dim             ....  172

ORBITAL ENERGIES
----------------

  NO   OCC          E(Eh)            E(eV)
   0   2.0000     -19.233503      -523.3702
   1   2.0000     -10.308769      -280.5159
   2   2.0000      -1.145293       -31.1650
   3   2.0000      -0.802503       -21.8372
   4   2.0000      -0.619892       -16.8681
   5   2.0000      -0.543576       -14.7914
   6   2.0000      -0.527261       -14.3475
   7   2.0000      -0.436924       -11.8893
   8   2.0000      -0.378571       -10.3014
   9   0.0000       0.098309         2.6751
  10   0.0000       0.127353         3.4655
  11   0.0000       0.151484         4.1221
  12   0.0000       0.186262         5.0685
  13   0.0000       0.202109         5.4997

MULLIKEN ATOMIC CHARGES
-----------------------
   0 C :    0.001732
   1 O :    0.001237
   2 H :   -0.009256
   3 H :   -0.003110
   4 H :   -0.000322
   5 H :   -0.000873
   6 C :   -0.171748
   7 O :   -0.454336
   8 H :    0.309923
   9 H :    0.107377
  10 H :    0.101510
  11 H :    0.117867
Sum of atomic charges:   -0.0000000

LOEWDIN ATOMIC CHARGES
----------------------
   0 C :   -0.004531
   1 O :   -0.003646
   2 H :   -0.030649
   3 H :   -0.001228
   4 H :   -0.000076
   5 H :   -0.000229
   6 C :   -0.387936
   7 O :   -0.024197
   8 H :    0.158322
   9 H :    0.088058
  10 H :    0.094293
  11 H :    0.111819

  Mayer bond orders larger than 0.1
B(  6-C ,  7-O ) :   0.9999 B(  6-C ,  9-H ) :   0.9671 B(  6-C , 10-H ) :   0.9794
B(  6-C , 11-H ) :   0.9785 B(  7-O ,  8-H ) :   0.9029

Dispersion correction           -0.000241732
FINAL SINGLE POINT ENERGY      -115.733451746865

DIPOLE MOMENT
-------------
                                X             Y             Z
Electronic contribution:     -0.53316      -1.46461      -1.15937
Nuclear contribution   :      0.35572       2.15844       1.10900
                        -----------------------------------------
Total Dipole Moment    :     -0.17744       0.69383      -0.05038
                        -----------------------------------------
Magnitude (a.u.)       :      0.71793
Magnitude (Debye)      :      1.82484

Rotational constants in cm-1:     4.558261     0.829686     0.799697
Rotational constants in MHz : 136653.217777 24873.347928 23974.316279

                             ****ORCA TERMINATED NORMALLY****
TOTAL RUN TIME: 0 days 0 hours 1 minutes 14 seconds 68 msec
