                         Program Version 4.1.2  - RELEASE  -
|  1> #Run DFT-D3 single point of the dimer
|  2> ! wB97X-D3 def2-TZVP TIGHTSCF CHELPG PMODEL PAL8
|  3>
|  4> %base "12-12_DFT_AB"
|  5>
|  6> %scf
|  7> MaxIter 1000
|  8> end
|  9>
| 10> * xyz 0 1
| 11>   C                      -3.318311            -0.619609            -4.975786
| 12>   O                      -2.848868            -0.188945            -3.711665
| 13>   H                      -2.709265            0.711760             -3.772373
| 14>   H                      -2.662649            -0.195860            -5.703031
| 15>   H                      -3.228268            -1.702189            -5.124246
| 16>   H                      -4.392851            -0.308560            -5.145854
| 17>   C                      -3.635929            -2.888625            1.581667
| 18>   O                      -3.694643            -1.945798            0.571920
| 19>   H                      -3.099891            -2.253682            -0.102641
| 20>   H                      -4.505804            -3.566646            1.618402
| 21>   H                      -2.712962            -3.397684            1.604149
| 22>   H                      -3.787583            -2.371143            2.578907
| 23> *
| 24>
| 25> #Run DFT-D3 single point of the molecule with dimer basis set
| 26> $new_job
| 27> %base "12-12_DFT_A"
| 28> ! wB97X-D3 def2-TZVP TIGHTSCF CHELPG PMODEL
| 29>
| 30> %scf
| 31> MaxIter 1000
| 32> end
| 33>
| 34> * xyz 0 1
| 35>   C                      -3.318311            -0.619609            -4.975786
| 36>   O                      -2.848868            -0.188945            -3.711665
| 37>   H                      -2.709265            0.711760             -3.772373
| 38>   H                      -2.662649            -0.195860            -5.703031
| 39>   H                      -3.228268            -1.702189            -5.124246
| 40>   H                      -4.392851            -0.308560            -5.145854
| 41>   C                    : -3.635929            -2.888625            1.581667
| 42>   O                    : -3.694643            -1.945798            0.571920
| 43>   H                    : -3.099891            -2.253682            -0.102641
| 44>   H                    : -4.505804            -3.566646            1.618402
| 45>   H                    : -2.712962            -3.397684            1.604149
| 46>   H                    : -3.787583            -2.371143            2.578907
| 47> *
| 48>
| 49> #Run DFT-D3 single point of the particle with dimer basis set
| 50> $new_job
| 51> %base "12-12_DFT_B"
| 52> ! wB97X-D3 def2-TZVP TIGHTSCF CHELPG PMODEL
| 53>
| 54> %scf
| 55> MaxIter 1000
| 56> end
| 57>
| 58> * xyz 0 1
| 59>   C                    : -3.318311            -0.619609            -4.975786
| 60>   O                    : -2.848868            -0.188945            -3.711665
| 61>   H                    : -2.709265            0.711760             -3.772373
| 62>   H                    : -2.662649            -0.195860            -5.703031
| 63>   H                    : -3.228268            -1.702189            -5.124246
| 64>   H                    : -4.392851            -0.308560            -5.145854
| 65>   C                      -3.635929            -2.888625            1.581667
| 66>   O                      -3.694643            -1.945798            0.571920
| 67>   H                      -3.099891            -2.253682            -0.102641
| 68>   H                      -4.505804            -3.566646            1.618402
| 69>   H                      -2.712962            -3.397684            1.604149
| 70>   H                      -3.787583            -2.371143            2.578907
| 71> *
| 72>
| 73>                          ****END OF INPUT****
 Total Charge           Charge          ....    0
 Multiplicity           Mult            ....    1
 Number of Electrons    NEL             ....   36
Dispersion correction           -0.000603405
FINAL SINGLE POINT ENERGY      -231.463269865792
Dispersion correction           -0.000229502
FINAL SINGLE POINT ENERGY      -115.731577837792

CARTESIAN COORDINATES (ANGSTROEM)
---------------------------------
  C     -3.318311   -0.619609   -4.975786
  O     -2.848868   -0.188945   -3.711665
  H     -2.709265    0.711760   -3.772373
  H     -2.662649   -0.195860   -5.703031
  H     -3.228268   -1.702189   -5.124246
  H     -4.392851   -0.308560   -5.145854
  C     -3.635929   -2.888625    1.581667
  O     -3.694643   -1.945798    0.571920
  H     -3.099891   -2.253682   -0.102641
  H     -4.505804   -3.566646    1.618402
  H     -2.712962   -3.397684    1.604149
  H     -3.787583   -2.371143    2.578907

 Multiplicity           Mult            ....    1
 Number of Electrons    NEL             ....   18
 Basis Dimension        Dim             ....  172

ORBITAL ENERGIES
----------------

  NO   OCC          E(Eh)            E(eV)
   0   2.0000     -19.231483      -523.3153
   1   2.0000     -10.310371      -280.5595
   2   2.0000      -1.150840       -31.3159
   3   2.0000      -0.794176       -21.6106
   4   2.0000      -0.622038       -16.9265
   5   2.0000      -0.547776       -14.9057
   6   2.0000      -0.525213       -14.2918
   7   2.0000      -0.437510       -11.9052
   8   2.0000      -0.369067       -10.0428
   9   0.0000       0.085476         2.3259
  10   0.0000       0.114936         3.1276
  11   0.0000       0.152810         4.1582
  12   0.0000       0.167650         4.5620
  13   0.0000       0.195974         5.3327

MULLIKEN ATOMIC CHARGES
-----------------------
   0 C :   -0.000020
   1 O :   -0.000007
   2 H :   -0.000002
   3 H :   -0.000000
   4 H :    0.000001
   5 H :    0.000002
   6 C :   -0.171502
   7 O :   -0.452453
   8 H :    0.314347
   9 H :    0.097160
  10 H :    0.109043
  11 H :    0.103432
Sum of atomic charges:    0.0000000

LOEWDIN ATOMIC CHARGES
----------------------
   0 C :   -0.000008
   1 O :   -0.000015
   2 H :   -0.000002
   3 H :   -0.000000
   4 H :   -0.000001
   5 H :   -0.000000
   6 C :   -0.415822
   7 O :   -0.046507
   8 H :    0.167703
   9 H :    0.095805
  10 H :    0.087378
  11 H :    0.111470

  Mayer bond orders larger than 0.1
B(  6-C ,  7-O ) :   1.0223 B(  6-C ,  9-H ) :   0.9731 B(  6-C , 10-H ) :   0.9837
B(  6-C , 11-H ) :   0.9783 B(  7-O ,  8-H ) :   0.9026

Dispersion correction           -0.000235993
FINAL SINGLE POINT ENERGY      -115.731102031734

DIPOLE MOMENT
-------------
                                X             Y             Z
Electronic contribution:     -0.04290       1.24603      -1.42930
Nuclear contribution   :      0.46816      -1.78807       1.36994
                        -----------------------------------------
Total Dipole Moment    :      0.42526      -0.54204      -0.05936
                        -----------------------------------------
Magnitude (a.u.)       :      0.69151
Magnitude (Debye)      :      1.75767

Rotational constants in cm-1:     4.341921     0.863556     0.825151
Rotational constants in MHz : 130167.506583 25888.761314 24737.410119

                             ****ORCA TERMINATED NORMALLY****
TOTAL RUN TIME: 0 days 0 hours 0 minutes 57 seconds 601 msec
