                         Program Version 4.1.2  - RELEASE  -
|  1> #Run DFT-D3 single point of the dimer
|  2> ! wB97X-D3 def2-TZVP TIGHTSCF CHELPG PMODEL PAL8
|  3>
|  4> %base "7-5_DFT_AB"
|  5>
|  6> %scf
|  7> MaxIter 1000
|  8> end
|  9>
| 10> * xyz 0 1
| 11>   C                      0.107441             2.741054             -3.055841
| 12>   O                      0.093632             2.479985             -1.676650
| 13>   H                      -0.116713            3.352322             -1.369150
| 14>   H                      0.781831             3.560905             -3.329535
| 15>   H                      0.429337             1.873700             -3.602147
| 16>   H                      -0.921354            2.900499             -3.482296
| 17>   C                      -1.555646            5.231252             -6.405208
| 18>   O                      -0.346762            4.541400             -6.399865
| 19>   H                      0.267018             4.970165             -5.812395
| 20>   H                      -1.461585            6.358154             -6.598062
| 21>   H                      -2.193016            4.839029             -7.166690
| 22>   H                      -2.062145            5.051455             -5.484070
| 23> *
| 24>
| 25> #Run DFT-D3 single point of the molecule with dimer basis set
| 26> $new_job
| 27> %base "7-5_DFT_A"
| 28> ! wB97X-D3 def2-TZVP TIGHTSCF CHELPG PMODEL
| 29>
| 30> %scf
| 31> MaxIter 1000
| 32> end
| 33>
| 34> * xyz 0 1
| 35>   C                      0.107441             2.741054             -3.055841
| 36>   O                      0.093632             2.479985             -1.676650
| 37>   H                      -0.116713            3.352322             -1.369150
| 38>   H                      0.781831             3.560905             -3.329535
| 39>   H                      0.429337             1.873700             -3.602147
| 40>   H                      -0.921354            2.900499             -3.482296
| 41>   C                    : -1.555646            5.231252             -6.405208
| 42>   O                    : -0.346762            4.541400             -6.399865
| 43>   H                    : 0.267018             4.970165             -5.812395
| 44>   H                    : -1.461585            6.358154             -6.598062
| 45>   H                    : -2.193016            4.839029             -7.166690
| 46>   H                    : -2.062145            5.051455             -5.484070
| 47> *
| 48>
| 49> #Run DFT-D3 single point of the particle with dimer basis set
| 50> $new_job
| 51> %base "7-5_DFT_B"
| 52> ! wB97X-D3 def2-TZVP TIGHTSCF CHELPG PMODEL
| 53>
| 54> %scf
| 55> MaxIter 1000
| 56> end
| 57>
| 58> * xyz 0 1
| 59>   C                    : 0.107441             2.741054             -3.055841
| 60>   O                    : 0.093632             2.479985             -1.676650
| 61>   H                    : -0.116713            3.352322             -1.369150
| 62>   H                    : 0.781831             3.560905             -3.329535
| 63>   H                    : 0.429337             1.873700             -3.602147
| 64>   H                    : -0.921354            2.900499             -3.482296
| 65>   C                      -1.555646            5.231252             -6.405208
| 66>   O                      -0.346762            4.541400             -6.399865
| 67>   H                      0.267018             4.970165             -5.812395
| 68>   H                      -1.461585            6.358154             -6.598062
| 69>   H                      -2.193016            4.839029             -7.166690
| 70>   H                      -2.062145            5.051455             -5.484070
| 71> *
| 72>
| 73>                          ****END OF INPUT****
 Total Charge           Charge          ....    0
 Multiplicity           Mult            ....    1
 Number of Electrons    NEL             ....   36
Dispersion correction           -0.001401486
FINAL SINGLE POINT ENERGY      -231.467877765980
Dispersion correction           -0.000223019
FINAL SINGLE POINT ENERGY      -115.732592012853

CARTESIAN COORDINATES (ANGSTROEM)
---------------------------------
  C      0.107441    2.741054   -3.055841
  O      0.093632    2.479985   -1.676650
  H     -0.116713    3.352322   -1.369150
  H      0.781831    3.560905   -3.329535
  H      0.429337    1.873700   -3.602147
  H     -0.921354    2.900499   -3.482296
  C     -1.555646    5.231252   -6.405208
  O     -0.346762    4.541400   -6.399865
  H      0.267018    4.970165   -5.812395
  H     -1.461585    6.358154   -6.598062
  H     -2.193016    4.839029   -7.166690
  H     -2.062145    5.051455   -5.484070

 Multiplicity           Mult            ....    1
 Number of Electrons    NEL             ....   18
 Basis Dimension        Dim             ....  172

ORBITAL ENERGIES
----------------

  NO   OCC          E(Eh)            E(eV)
   0   2.0000     -19.229612      -523.2643
   1   2.0000     -10.310694      -280.5683
   2   2.0000      -1.144225       -31.1359
   3   2.0000      -0.797910       -21.7122
   4   2.0000      -0.613688       -16.6993
   5   2.0000      -0.545987       -14.8571
   6   2.0000      -0.533129       -14.5072
   7   2.0000      -0.429809       -11.6957
   8   2.0000      -0.373439       -10.1618
   9   0.0000       0.082009         2.2316
  10   0.0000       0.127372         3.4660
  11   0.0000       0.150658         4.0996
  12   0.0000       0.174341         4.7441
  13   0.0000       0.187282         5.0962

MULLIKEN ATOMIC CHARGES
-----------------------
   0 C :   -0.001691
   1 O :   -0.000102
   2 H :   -0.000028
   3 H :   -0.002467
   4 H :   -0.000153
   5 H :   -0.000420
   6 C :   -0.162764
   7 O :   -0.470789
   8 H :    0.316744
   9 H :    0.096133
  10 H :    0.119892
  11 H :    0.105645
Sum of atomic charges:   -0.0000000

LOEWDIN ATOMIC CHARGES
----------------------
   0 C :   -0.004004
   1 O :   -0.000038
   2 H :   -0.000012
   3 H :   -0.001446
   4 H :   -0.000216
   5 H :   -0.000960
   6 C :   -0.400271
   7 O :   -0.052477
   8 H :    0.165003
   9 H :    0.102541
  10 H :    0.103068
  11 H :    0.088811

  Mayer bond orders larger than 0.1
B(  6-C ,  7-O ) :   1.0021 B(  6-C ,  9-H ) :   0.9763 B(  6-C , 10-H ) :   0.9733
B(  6-C , 11-H ) :   0.9785 B(  7-O ,  8-H ) :   0.8979

Dispersion correction           -0.000237677
FINAL SINGLE POINT ENERGY      -115.734468314251

DIPOLE MOMENT
-------------
                                X             Y             Z
Electronic contribution:      1.53315      -1.00663      -0.08876
Nuclear contribution   :     -1.62275       1.52833       0.44872
                        -----------------------------------------
Total Dipole Moment    :     -0.08960       0.52170       0.35996
                        -----------------------------------------
Magnitude (a.u.)       :      0.64013
Magnitude (Debye)      :      1.62709

Rotational constants in cm-1:     4.351750     0.848086     0.821047
Rotational constants in MHz : 130462.177985 25424.990898 24614.378657

                             ****ORCA TERMINATED NORMALLY****
TOTAL RUN TIME: 0 days 0 hours 1 minutes 13 seconds 77 msec
