                         Program Version 4.1.2  - RELEASE  -
|  1> #Run DFT-D3 single point of the dimer
|  2> ! wB97X-D3 def2-TZVP TIGHTSCF CHELPG PMODEL PAL8
|  3>
|  4> %base "7-103_DFT_AB"
|  5>
|  6> %scf
|  7> MaxIter 1000
|  8> end
|  9>
| 10> * xyz 0 1
| 11>   C                      9.977652             -2.198286            -7.359169
| 12>   O                      11.412398            -2.219645            -7.354476
| 13>   H                      11.773627            -1.911416            -6.524812
| 14>   H                      9.486885             -2.938841            -6.747138
| 15>   H                      9.553607             -1.262547            -7.091710
| 16>   H                      9.519030             -2.212074            -8.322583
| 17>   C                      8.789193             -5.943155            -3.528902
| 18>   O                      10.083202            -6.260506            -3.908033
| 19>   H                      10.426020            -5.542858            -4.454360
| 20>   H                      8.378545             -5.305702            -4.277533
| 21>   H                      8.163077             -6.866617            -3.518751
| 22>   H                      8.831961             -5.434536            -2.537860
| 23> *
| 24>
| 25> #Run DFT-D3 single point of the molecule with dimer basis set
| 26> $new_job
| 27> %base "7-103_DFT_A"
| 28> ! wB97X-D3 def2-TZVP TIGHTSCF CHELPG PMODEL
| 29>
| 30> %scf
| 31> MaxIter 1000
| 32> end
| 33>
| 34> * xyz 0 1
| 35>   C                      9.977652             -2.198286            -7.359169
| 36>   O                      11.412398            -2.219645            -7.354476
| 37>   H                      11.773627            -1.911416            -6.524812
| 38>   H                      9.486885             -2.938841            -6.747138
| 39>   H                      9.553607             -1.262547            -7.091710
| 40>   H                      9.519030             -2.212074            -8.322583
| 41>   C                    : 8.789193             -5.943155            -3.528902
| 42>   O                    : 10.083202            -6.260506            -3.908033
| 43>   H                    : 10.426020            -5.542858            -4.454360
| 44>   H                    : 8.378545             -5.305702            -4.277533
| 45>   H                    : 8.163077             -6.866617            -3.518751
| 46>   H                    : 8.831961             -5.434536            -2.537860
| 47> *
| 48>
| 49> #Run DFT-D3 single point of the particle with dimer basis set
| 50> $new_job
| 51> %base "7-103_DFT_B"
| 52> ! wB97X-D3 def2-TZVP TIGHTSCF CHELPG PMODEL
| 53>
| 54> %scf
| 55> MaxIter 1000
| 56> end
| 57>
| 58> * xyz 0 1
| 59>   C                    : 9.977652             -2.198286            -7.359169
| 60>   O                    : 11.412398            -2.219645            -7.354476
| 61>   H                    : 11.773627            -1.911416            -6.524812
| 62>   H                    : 9.486885             -2.938841            -6.747138
| 63>   H                    : 9.553607             -1.262547            -7.091710
| 64>   H                    : 9.519030             -2.212074            -8.322583
| 65>   C                      8.789193             -5.943155            -3.528902
| 66>   O                      10.083202            -6.260506            -3.908033
| 67>   H                      10.426020            -5.542858            -4.454360
| 68>   H                      8.378545             -5.305702            -4.277533
| 69>   H                      8.163077             -6.866617            -3.518751
| 70>   H                      8.831961             -5.434536            -2.537860
| 71> *
| 72>
| 73>                          ****END OF INPUT****
 Total Charge           Charge          ....    0
 Multiplicity           Mult            ....    1
 Number of Electrons    NEL             ....   36
Dispersion correction           -0.000812025
FINAL SINGLE POINT ENERGY      -231.460406356869
Dispersion correction           -0.000275830
FINAL SINGLE POINT ENERGY      -115.727499540929

CARTESIAN COORDINATES (ANGSTROEM)
---------------------------------
  C      9.977652   -2.198286   -7.359169
  O     11.412398   -2.219645   -7.354476
  H     11.773627   -1.911416   -6.524812
  H      9.486885   -2.938841   -6.747138
  H      9.553607   -1.262547   -7.091710
  H      9.519030   -2.212074   -8.322583
  C      8.789193   -5.943155   -3.528902
  O     10.083202   -6.260506   -3.908033
  H     10.426020   -5.542858   -4.454360
  H      8.378545   -5.305702   -4.277533
  H      8.163077   -6.866617   -3.518751
  H      8.831961   -5.434536   -2.537860

 Multiplicity           Mult            ....    1
 Number of Electrons    NEL             ....   18
 Basis Dimension        Dim             ....  172

ORBITAL ENERGIES
----------------

  NO   OCC          E(Eh)            E(eV)
   0   2.0000     -19.225890      -523.1631
   1   2.0000     -10.310883      -280.5734
   2   2.0000      -1.143165       -31.1071
   3   2.0000      -0.790164       -21.5015
   4   2.0000      -0.615518       -16.7491
   5   2.0000      -0.548737       -14.9319
   6   2.0000      -0.528032       -14.3685
   7   2.0000      -0.426954       -11.6180
   8   2.0000      -0.369985       -10.0678
   9   0.0000       0.071542         1.9468
  10   0.0000       0.115799         3.1510
  11   0.0000       0.150433         4.0935
  12   0.0000       0.162513         4.4222
  13   0.0000       0.185187         5.0392

MULLIKEN ATOMIC CHARGES
-----------------------
   0 C :   -0.000001
   1 O :    0.000004
   2 H :   -0.000007
   3 H :   -0.000092
   4 H :    0.000003
   5 H :   -0.000001
   6 C :   -0.157858
   7 O :   -0.471768
   8 H :    0.316828
   9 H :    0.103294
  10 H :    0.110804
  11 H :    0.098793
Sum of atomic charges:   -0.0000000

LOEWDIN ATOMIC CHARGES
----------------------
   0 C :   -0.000070
   1 O :   -0.000004
   2 H :   -0.000007
   3 H :   -0.000151
   4 H :   -0.000001
   5 H :   -0.000001
   6 C :   -0.405932
   7 O :   -0.064909
   8 H :    0.173249
   9 H :    0.088930
  10 H :    0.109311
  11 H :    0.099585

  Mayer bond orders larger than 0.1
B(  6-C ,  7-O ) :   1.0030 B(  6-C ,  9-H ) :   0.9882 B(  6-C , 10-H ) :   0.9713
B(  6-C , 11-H ) :   0.9750 B(  7-O ,  8-H ) :   0.8986

Dispersion correction           -0.000219792
FINAL SINGLE POINT ENERGY      -115.732769113322

DIPOLE MOMENT
-------------
                                X             Y             Z
Electronic contribution:      1.61010      -0.51522      -0.40274
Nuclear contribution   :     -1.88820       1.10286       0.15606
                        -----------------------------------------
Total Dipole Moment    :     -0.27810       0.58764      -0.24668
                        -----------------------------------------
Magnitude (a.u.)       :      0.69535
Magnitude (Debye)      :      1.76744

Rotational constants in cm-1:     4.171963     0.863671     0.839998
Rotational constants in MHz : 125072.304124 25892.210749 25182.510489

                             ****ORCA TERMINATED NORMALLY****
TOTAL RUN TIME: 0 days 0 hours 1 minutes 9 seconds 903 msec
