                         Program Version 4.1.2  - RELEASE  -
|  1> #Run DFT-D3 single point of the dimer
|  2> ! wB97X-D3 def2-TZVP TIGHTSCF CHELPG PMODEL PAL8
|  3>
|  4> %base "6-104_DFT_AB"
|  5>
|  6> %scf
|  7> MaxIter 1000
|  8> end
|  9>
| 10> * xyz 0 1
| 11>   C                      0.171239             3.868132             9.450334
| 12>   O                      -0.209914            3.238640             10.630685
| 13>   H                      0.561177             2.798170             11.029478
| 14>   H                      1.166986             3.610783             9.100167
| 15>   H                      -0.447695            3.453236             8.613938
| 16>   H                      0.012283             4.950917             9.402501
| 17>   C                      -2.812625            3.417705             6.902419
| 18>   O                      -1.482108            3.672397             6.513151
| 19>   H                      -0.974431            2.924347             6.921874
| 20>   H                      -2.880043            2.556290             7.528965
| 21>   H                      -3.255005            4.181398             7.523786
| 22>   H                      -3.343399            3.226117             6.022469
| 23> *
| 24>
| 25> #Run DFT-D3 single point of the molecule with dimer basis set
| 26> $new_job
| 27> %base "6-104_DFT_A"
| 28> ! wB97X-D3 def2-TZVP TIGHTSCF CHELPG PMODEL
| 29>
| 30> %scf
| 31> MaxIter 1000
| 32> end
| 33>
| 34> * xyz 0 1
| 35>   C                      0.171239             3.868132             9.450334
| 36>   O                      -0.209914            3.238640             10.630685
| 37>   H                      0.561177             2.798170             11.029478
| 38>   H                      1.166986             3.610783             9.100167
| 39>   H                      -0.447695            3.453236             8.613938
| 40>   H                      0.012283             4.950917             9.402501
| 41>   C                    : -2.812625            3.417705             6.902419
| 42>   O                    : -1.482108            3.672397             6.513151
| 43>   H                    : -0.974431            2.924347             6.921874
| 44>   H                    : -2.880043            2.556290             7.528965
| 45>   H                    : -3.255005            4.181398             7.523786
| 46>   H                    : -3.343399            3.226117             6.022469
| 47> *
| 48>
| 49> #Run DFT-D3 single point of the particle with dimer basis set
| 50> $new_job
| 51> %base "6-104_DFT_B"
| 52> ! wB97X-D3 def2-TZVP TIGHTSCF CHELPG PMODEL
| 53>
| 54> %scf
| 55> MaxIter 1000
| 56> end
| 57>
| 58> * xyz 0 1
| 59>   C                    : 0.171239             3.868132             9.450334
| 60>   O                    : -0.209914            3.238640             10.630685
| 61>   H                    : 0.561177             2.798170             11.029478
| 62>   H                    : 1.166986             3.610783             9.100167
| 63>   H                    : -0.447695            3.453236             8.613938
| 64>   H                    : 0.012283             4.950917             9.402501
| 65>   C                      -2.812625            3.417705             6.902419
| 66>   O                      -1.482108            3.672397             6.513151
| 67>   H                      -0.974431            2.924347             6.921874
| 68>   H                      -2.880043            2.556290             7.528965
| 69>   H                      -3.255005            4.181398             7.523786
| 70>   H                      -3.343399            3.226117             6.022469
| 71> *
| 72>
| 73>                          ****END OF INPUT****
 Total Charge           Charge          ....    0
 Multiplicity           Mult            ....    1
 Number of Electrons    NEL             ....   36
Dispersion correction           -0.001773608
FINAL SINGLE POINT ENERGY      -231.461210377628
Dispersion correction           -0.000256473
FINAL SINGLE POINT ENERGY      -115.732119745116

CARTESIAN COORDINATES (ANGSTROEM)
---------------------------------
  C      0.171239    3.868132    9.450334
  O     -0.209914    3.238640   10.630685
  H      0.561177    2.798170   11.029478
  H      1.166986    3.610783    9.100167
  H     -0.447695    3.453236    8.613938
  H      0.012283    4.950917    9.402501
  C     -2.812625    3.417705    6.902419
  O     -1.482108    3.672397    6.513151
  H     -0.974431    2.924347    6.921874
  H     -2.880043    2.556290    7.528965
  H     -3.255005    4.181398    7.523786
  H     -3.343399    3.226117    6.022469

 Multiplicity           Mult            ....    1
 Number of Electrons    NEL             ....   18
 Basis Dimension        Dim             ....  172

ORBITAL ENERGIES
----------------

  NO   OCC          E(Eh)            E(eV)
   0   2.0000     -19.233155      -523.3608
   1   2.0000     -10.302031      -280.3325
   2   2.0000      -1.134589       -30.8737
   3   2.0000      -0.797877       -21.7113
   4   2.0000      -0.612557       -16.6685
   5   2.0000      -0.553524       -15.0622
   6   2.0000      -0.522911       -14.2291
   7   2.0000      -0.435276       -11.8445
   8   2.0000      -0.375406       -10.2153
   9   0.0000       0.079632         2.1669
  10   0.0000       0.125701         3.4205
  11   0.0000       0.151724         4.1286
  12   0.0000       0.171049         4.6545
  13   0.0000       0.193019         5.2523

MULLIKEN ATOMIC CHARGES
-----------------------
   0 C :    0.020886
   1 O :   -0.000422
   2 H :   -0.000058
   3 H :   -0.001603
   4 H :   -0.038684
   5 H :   -0.001724
   6 C :   -0.174853
   7 O :   -0.460627
   8 H :    0.322016
   9 H :    0.104045
  10 H :    0.111071
  11 H :    0.119953
Sum of atomic charges:    0.0000000

LOEWDIN ATOMIC CHARGES
----------------------
   0 C :   -0.008477
   1 O :   -0.000047
   2 H :   -0.000023
   3 H :   -0.000305
   4 H :   -0.019261
   5 H :   -0.000705
   6 C :   -0.382938
   7 O :   -0.069833
   8 H :    0.195031
   9 H :    0.093368
  10 H :    0.099552
  11 H :    0.093638

  Mayer bond orders larger than 0.1
B(  6-C ,  7-O ) :   0.9875 B(  6-C ,  9-H ) :   0.9908 B(  6-C , 10-H ) :   0.9733
B(  6-C , 11-H ) :   0.9835 B(  7-O ,  8-H ) :   0.8962

Dispersion correction           -0.000223768
FINAL SINGLE POINT ENERGY      -115.729980861220

DIPOLE MOMENT
-------------
                                X             Y             Z
Electronic contribution:      1.60457       0.52959      -0.63760
Nuclear contribution   :     -1.82946      -1.11687       1.04407
                        -----------------------------------------
Total Dipole Moment    :     -0.22490      -0.58728       0.40647
                        -----------------------------------------
Magnitude (a.u.)       :      0.74879
Magnitude (Debye)      :      1.90328

Rotational constants in cm-1:     4.387493     0.844034     0.816557
Rotational constants in MHz : 131533.727562 25303.516438 24479.750273

                             ****ORCA TERMINATED NORMALLY****
TOTAL RUN TIME: 0 days 0 hours 1 minutes 5 seconds 558 msec
