                         Program Version 4.1.2  - RELEASE  -
|  1> #Run DFT-D3 single point of the dimer
|  2> ! wB97X-D3 def2-TZVP TIGHTSCF CHELPG PMODEL PAL8
|  3>
|  4> %base "8-87_DFT_AB"
|  5>
|  6> %scf
|  7> MaxIter 1000
|  8> end
|  9>
| 10> * xyz 0 1
| 11>   C                      -4.288569            -3.454093            4.046615
| 12>   O                      -4.072984            -3.445141            5.450072
| 13>   H                      -3.608082            -2.611545            5.566733
| 14>   H                      -3.328369            -3.735090            3.527382
| 15>   H                      -4.996269            -4.232074            3.685555
| 16>   H                      -4.566862            -2.490800            3.649591
| 17>   C                      -0.915505            -1.309823            3.665352
| 18>   O                      -0.468235            -0.920352            5.001852
| 19>   H                      0.109127             -0.150071            5.001110
| 20>   H                      -1.528910            -2.242467            3.688094
| 21>   H                      -1.449078            -0.451866            3.227574
| 22>   H                      -0.109767            -1.463050            2.909293
| 23> *
| 24>
| 25> #Run DFT-D3 single point of the molecule with dimer basis set
| 26> $new_job
| 27> %base "8-87_DFT_A"
| 28> ! wB97X-D3 def2-TZVP TIGHTSCF CHELPG PMODEL
| 29>
| 30> %scf
| 31> MaxIter 1000
| 32> end
| 33>
| 34> * xyz 0 1
| 35>   C                      -4.288569            -3.454093            4.046615
| 36>   O                      -4.072984            -3.445141            5.450072
| 37>   H                      -3.608082            -2.611545            5.566733
| 38>   H                      -3.328369            -3.735090            3.527382
| 39>   H                      -4.996269            -4.232074            3.685555
| 40>   H                      -4.566862            -2.490800            3.649591
| 41>   C                    : -0.915505            -1.309823            3.665352
| 42>   O                    : -0.468235            -0.920352            5.001852
| 43>   H                    : 0.109127             -0.150071            5.001110
| 44>   H                    : -1.528910            -2.242467            3.688094
| 45>   H                    : -1.449078            -0.451866            3.227574
| 46>   H                    : -0.109767            -1.463050            2.909293
| 47> *
| 48>
| 49> #Run DFT-D3 single point of the particle with dimer basis set
| 50> $new_job
| 51> %base "8-87_DFT_B"
| 52> ! wB97X-D3 def2-TZVP TIGHTSCF CHELPG PMODEL
| 53>
| 54> %scf
| 55> MaxIter 1000
| 56> end
| 57>
| 58> * xyz 0 1
| 59>   C                    : -4.288569            -3.454093            4.046615
| 60>   O                    : -4.072984            -3.445141            5.450072
| 61>   H                    : -3.608082            -2.611545            5.566733
| 62>   H                    : -3.328369            -3.735090            3.527382
| 63>   H                    : -4.996269            -4.232074            3.685555
| 64>   H                    : -4.566862            -2.490800            3.649591
| 65>   C                      -0.915505            -1.309823            3.665352
| 66>   O                      -0.468235            -0.920352            5.001852
| 67>   H                      0.109127             -0.150071            5.001110
| 68>   H                      -1.528910            -2.242467            3.688094
| 69>   H                      -1.449078            -0.451866            3.227574
| 70>   H                      -0.109767            -1.463050            2.909293
| 71> *
| 72>
| 73>                          ****END OF INPUT****
 Total Charge           Charge          ....    0
 Multiplicity           Mult            ....    1
 Number of Electrons    NEL             ....   36
Dispersion correction           -0.001635352
FINAL SINGLE POINT ENERGY      -231.464747202873
Dispersion correction           -0.000235322
FINAL SINGLE POINT ENERGY      -115.732540988276

CARTESIAN COORDINATES (ANGSTROEM)
---------------------------------
  C     -4.288569   -3.454093    4.046615
  O     -4.072984   -3.445141    5.450072
  H     -3.608082   -2.611545    5.566733
  H     -3.328369   -3.735090    3.527382
  H     -4.996269   -4.232074    3.685555
  H     -4.566862   -2.490800    3.649591
  C     -0.915505   -1.309823    3.665352
  O     -0.468235   -0.920352    5.001852
  H      0.109127   -0.150071    5.001110
  H     -1.528910   -2.242467    3.688094
  H     -1.449078   -0.451866    3.227574
  H     -0.109767   -1.463050    2.909293

 Multiplicity           Mult            ....    1
 Number of Electrons    NEL             ....   18
 Basis Dimension        Dim             ....  172

ORBITAL ENERGIES
----------------

  NO   OCC          E(Eh)            E(eV)
   0   2.0000     -19.229348      -523.2572
   1   2.0000     -10.324194      -280.9356
   2   2.0000      -1.118701       -30.4414
   3   2.0000      -0.796092       -21.6628
   4   2.0000      -0.606047       -16.4914
   5   2.0000      -0.533076       -14.5057
   6   2.0000      -0.516442       -14.0531
   7   2.0000      -0.433652       -11.8003
   8   2.0000      -0.371331       -10.1044
   9   0.0000       0.089107         2.4247
  10   0.0000       0.115878         3.1532
  11   0.0000       0.150393         4.0924
  12   0.0000       0.172976         4.7069
  13   0.0000       0.187950         5.1144

MULLIKEN ATOMIC CHARGES
-----------------------
   0 C :    0.000307
   1 O :   -0.000031
   2 H :   -0.000006
   3 H :   -0.000768
   4 H :    0.000005
   5 H :   -0.000401
   6 C :   -0.174717
   7 O :   -0.490009
   8 H :    0.315815
   9 H :    0.135512
  10 H :    0.109533
  11 H :    0.104759
Sum of atomic charges:    0.0000000

LOEWDIN ATOMIC CHARGES
----------------------
   0 C :   -0.004333
   1 O :   -0.000071
   2 H :   -0.000831
   3 H :   -0.003803
   4 H :   -0.000019
   5 H :   -0.000436
   6 C :   -0.356031
   7 O :   -0.113853
   8 H :    0.164585
   9 H :    0.118855
  10 H :    0.098345
  11 H :    0.097594

  Mayer bond orders larger than 0.1
B(  6-C ,  7-O ) :   0.9894 B(  6-C ,  9-H ) :   0.9691 B(  6-C , 10-H ) :   0.9802
B(  6-C , 11-H ) :   0.9665 B(  7-O ,  8-H ) :   0.8953

Dispersion correction           -0.000284327
FINAL SINGLE POINT ENERGY      -115.730518970459

DIPOLE MOMENT
-------------
                                X             Y             Z
Electronic contribution:      0.46127       0.29985       1.77520
Nuclear contribution   :     -0.27463       0.03689      -2.35944
                        -----------------------------------------
Total Dipole Moment    :      0.18665       0.33674      -0.58424
                        -----------------------------------------
Magnitude (a.u.)       :      0.69969
Magnitude (Debye)      :      1.77847

Rotational constants in cm-1:     4.296033     0.777888     0.743512
Rotational constants in MHz : 128791.827141 23320.508207 22289.941281

                             ****ORCA TERMINATED NORMALLY****
TOTAL RUN TIME: 0 days 0 hours 0 minutes 44 seconds 282 msec
