                         Program Version 4.1.2  - RELEASE  -
|  1> #Run DFT-D3 single point of the dimer
|  2> ! wB97X-D3 def2-TZVP TIGHTSCF CHELPG PMODEL PAL8
|  3>
|  4> %base "7-144_DFT_AB"
|  5>
|  6> %scf
|  7> MaxIter 1000
|  8> end
|  9>
| 10> * xyz 0 1
| 11>   C                      3.721256             2.865454             0.278842
| 12>   O                      3.810652             4.224513             0.718855
| 13>   H                      3.847158             4.251311             1.654711
| 14>   H                      4.630489             2.337793             0.330650
| 15>   H                      3.118835             2.213713             0.975832
| 16>   H                      3.309772             2.784025             -0.718189
| 17>   C                      4.789831             4.842195             4.673636
| 18>   O                      4.834256             4.522513             3.376665
| 19>   H                      5.779525             4.363818             3.227645
| 20>   H                      3.778847             5.077454             4.981349
| 21>   H                      5.025754             4.006608             5.322962
| 22>   H                      5.505143             5.687903             4.910589
| 23> *
| 24>
| 25> #Run DFT-D3 single point of the molecule with dimer basis set
| 26> $new_job
| 27> %base "7-144_DFT_A"
| 28> ! wB97X-D3 def2-TZVP TIGHTSCF CHELPG PMODEL
| 29>
| 30> %scf
| 31> MaxIter 1000
| 32> end
| 33>
| 34> * xyz 0 1
| 35>   C                      3.721256             2.865454             0.278842
| 36>   O                      3.810652             4.224513             0.718855
| 37>   H                      3.847158             4.251311             1.654711
| 38>   H                      4.630489             2.337793             0.330650
| 39>   H                      3.118835             2.213713             0.975832
| 40>   H                      3.309772             2.784025             -0.718189
| 41>   C                    : 4.789831             4.842195             4.673636
| 42>   O                    : 4.834256             4.522513             3.376665
| 43>   H                    : 5.779525             4.363818             3.227645
| 44>   H                    : 3.778847             5.077454             4.981349
| 45>   H                    : 5.025754             4.006608             5.322962
| 46>   H                    : 5.505143             5.687903             4.910589
| 47> *
| 48>
| 49> #Run DFT-D3 single point of the particle with dimer basis set
| 50> $new_job
| 51> %base "7-144_DFT_B"
| 52> ! wB97X-D3 def2-TZVP TIGHTSCF CHELPG PMODEL
| 53>
| 54> %scf
| 55> MaxIter 1000
| 56> end
| 57>
| 58> * xyz 0 1
| 59>   C                    : 3.721256             2.865454             0.278842
| 60>   O                    : 3.810652             4.224513             0.718855
| 61>   H                    : 3.847158             4.251311             1.654711
| 62>   H                    : 4.630489             2.337793             0.330650
| 63>   H                    : 3.118835             2.213713             0.975832
| 64>   H                    : 3.309772             2.784025             -0.718189
| 65>   C                      4.789831             4.842195             4.673636
| 66>   O                      4.834256             4.522513             3.376665
| 67>   H                      5.779525             4.363818             3.227645
| 68>   H                      3.778847             5.077454             4.981349
| 69>   H                      5.025754             4.006608             5.322962
| 70>   H                      5.505143             5.687903             4.910589
| 71> *
| 72>
| 73>                          ****END OF INPUT****
 Total Charge           Charge          ....    0
 Multiplicity           Mult            ....    1
 Number of Electrons    NEL             ....   36
Dispersion correction           -0.001462173
FINAL SINGLE POINT ENERGY      -231.467957764202
Dispersion correction           -0.000256119
FINAL SINGLE POINT ENERGY      -115.731659487403

CARTESIAN COORDINATES (ANGSTROEM)
---------------------------------
  C      3.721256    2.865454    0.278842
  O      3.810652    4.224513    0.718855
  H      3.847158    4.251311    1.654711
  H      4.630489    2.337793    0.330650
  H      3.118835    2.213713    0.975832
  H      3.309772    2.784025   -0.718189
  C      4.789831    4.842195    4.673636
  O      4.834256    4.522513    3.376665
  H      5.779525    4.363818    3.227645
  H      3.778847    5.077454    4.981349
  H      5.025754    4.006608    5.322962
  H      5.505143    5.687903    4.910589

 Multiplicity           Mult            ....    1
 Number of Electrons    NEL             ....   18
 Basis Dimension        Dim             ....  172

ORBITAL ENERGIES
----------------

  NO   OCC          E(Eh)            E(eV)
   0   2.0000     -19.234582      -523.3996
   1   2.0000     -10.308250      -280.5017
   2   2.0000      -1.166928       -31.7537
   3   2.0000      -0.788748       -21.4629
   4   2.0000      -0.624820       -17.0022
   5   2.0000      -0.554437       -15.0870
   6   2.0000      -0.537776       -14.6336
   7   2.0000      -0.432303       -11.7636
   8   2.0000      -0.369036       -10.0420
   9   0.0000       0.095725         2.6048
  10   0.0000       0.120243         3.2720
  11   0.0000       0.158644         4.3169
  12   0.0000       0.189960         5.1691
  13   0.0000       0.202142         5.5006

MULLIKEN ATOMIC CHARGES
-----------------------
   0 C :    0.000024
   1 O :    0.001746
   2 H :   -0.012542
   3 H :   -0.000385
   4 H :   -0.000652
   5 H :   -0.000179
   6 C :   -0.152265
   7 O :   -0.435439
   8 H :    0.318202
   9 H :    0.108232
  10 H :    0.089095
  11 H :    0.084164
Sum of atomic charges:   -0.0000000

LOEWDIN ATOMIC CHARGES
----------------------
   0 C :   -0.002404
   1 O :   -0.005644
   2 H :   -0.035692
   3 H :   -0.000181
   4 H :   -0.000281
   5 H :   -0.000046
   6 C :   -0.452617
   7 O :    0.015877
   8 H :    0.189186
   9 H :    0.104935
  10 H :    0.088704
  11 H :    0.098163

  Mayer bond orders larger than 0.1
B(  6-C ,  7-O ) :   1.0070 B(  6-C ,  9-H ) :   0.9785 B(  6-C , 10-H ) :   0.9715
B(  6-C , 11-H ) :   0.9807 B(  7-O ,  8-H ) :   0.8928

Dispersion correction           -0.000198086
FINAL SINGLE POINT ENERGY      -115.729783023465

DIPOLE MOMENT
-------------
                                X             Y             Z
Electronic contribution:     -0.12778      -0.41389      -1.86544
Nuclear contribution   :      0.67932       0.40567       2.21408
                        -----------------------------------------
Total Dipole Moment    :      0.55154      -0.00823       0.34864
                        -----------------------------------------
Magnitude (a.u.)       :      0.65254
Magnitude (Debye)      :      1.65863

Rotational constants in cm-1:     4.228231     0.916407     0.875575
Rotational constants in MHz : 126759.183605 27473.202489 26249.068342

                             ****ORCA TERMINATED NORMALLY****
TOTAL RUN TIME: 0 days 0 hours 1 minutes 9 seconds 620 msec
