                         Program Version 4.1.2  - RELEASE  -
|  1> #Run DFT-D3 single point of the dimer
|  2> ! wB97X-D3 def2-TZVP TIGHTSCF CHELPG PMODEL PAL8
|  3>
|  4> %base "4-85_DFT_AB"
|  5>
|  6> %scf
|  7> MaxIter 1000
|  8> end
|  9>
| 10> * xyz 0 1
| 11>   C                      10.523130            -2.639775            4.449714
| 12>   O                      9.637086             -1.623541            4.944725
| 13>   H                      10.235835            -1.029594            5.432499
| 14>   H                      10.169014            -3.207924            3.581402
| 15>   H                      11.577218            -2.300368            4.261550
| 16>   H                      10.573071            -3.466301            5.153517
| 17>   C                      9.804271             1.267072             1.363597
| 18>   O                      10.138398            0.228172             0.457149
| 19>   H                      9.374575             -0.323396            0.348087
| 20>   H                      10.687809            1.548635             1.931044
| 21>   H                      9.417866             2.141988             0.889620
| 22>   H                      8.960742             1.047092             2.027602
| 23> *
| 24>
| 25> #Run DFT-D3 single point of the molecule with dimer basis set
| 26> $new_job
| 27> %base "4-85_DFT_A"
| 28> ! wB97X-D3 def2-TZVP TIGHTSCF CHELPG PMODEL
| 29>
| 30> %scf
| 31> MaxIter 1000
| 32> end
| 33>
| 34> * xyz 0 1
| 35>   C                      10.523130            -2.639775            4.449714
| 36>   O                      9.637086             -1.623541            4.944725
| 37>   H                      10.235835            -1.029594            5.432499
| 38>   H                      10.169014            -3.207924            3.581402
| 39>   H                      11.577218            -2.300368            4.261550
| 40>   H                      10.573071            -3.466301            5.153517
| 41>   C                    : 9.804271             1.267072             1.363597
| 42>   O                    : 10.138398            0.228172             0.457149
| 43>   H                    : 9.374575             -0.323396            0.348087
| 44>   H                    : 10.687809            1.548635             1.931044
| 45>   H                    : 9.417866             2.141988             0.889620
| 46>   H                    : 8.960742             1.047092             2.027602
| 47> *
| 48>
| 49> #Run DFT-D3 single point of the particle with dimer basis set
| 50> $new_job
| 51> %base "4-85_DFT_B"
| 52> ! wB97X-D3 def2-TZVP TIGHTSCF CHELPG PMODEL
| 53>
| 54> %scf
| 55> MaxIter 1000
| 56> end
| 57>
| 58> * xyz 0 1
| 59>   C                    : 10.523130            -2.639775            4.449714
| 60>   O                    : 9.637086             -1.623541            4.944725
| 61>   H                    : 10.235835            -1.029594            5.432499
| 62>   H                    : 10.169014            -3.207924            3.581402
| 63>   H                    : 11.577218            -2.300368            4.261550
| 64>   H                    : 10.573071            -3.466301            5.153517
| 65>   C                      9.804271             1.267072             1.363597
| 66>   O                      10.138398            0.228172             0.457149
| 67>   H                      9.374575             -0.323396            0.348087
| 68>   H                      10.687809            1.548635             1.931044
| 69>   H                      9.417866             2.141988             0.889620
| 70>   H                      8.960742             1.047092             2.027602
| 71> *
| 72>
| 73>                          ****END OF INPUT****
 Total Charge           Charge          ....    0
 Multiplicity           Mult            ....    1
 Number of Electrons    NEL             ....   36
Dispersion correction           -0.000920161
FINAL SINGLE POINT ENERGY      -231.464518738009
Dispersion correction           -0.000261416
FINAL SINGLE POINT ENERGY      -115.730081207874

CARTESIAN COORDINATES (ANGSTROEM)
---------------------------------
  C     10.523130   -2.639775    4.449714
  O      9.637086   -1.623541    4.944725
  H     10.235835   -1.029594    5.432499
  H     10.169014   -3.207924    3.581402
  H     11.577218   -2.300368    4.261550
  H     10.573071   -3.466301    5.153517
  C      9.804271    1.267072    1.363597
  O     10.138398    0.228172    0.457149
  H      9.374575   -0.323396    0.348087
  H     10.687809    1.548635    1.931044
  H      9.417866    2.141988    0.889620
  H      8.960742    1.047092    2.027602

 Multiplicity           Mult            ....    1
 Number of Electrons    NEL             ....   18
 Basis Dimension        Dim             ....  172

ORBITAL ENERGIES
----------------

  NO   OCC          E(Eh)            E(eV)
   0   2.0000     -19.230526      -523.2892
   1   2.0000     -10.309824      -280.5446
   2   2.0000      -1.137386       -30.9498
   3   2.0000      -0.800796       -21.7908
   4   2.0000      -0.618341       -16.8259
   5   2.0000      -0.535310       -14.5665
   6   2.0000      -0.526708       -14.3325
   7   2.0000      -0.440157       -11.9773
   8   2.0000      -0.373030       -10.1507
   9   0.0000       0.083938         2.2841
  10   0.0000       0.117932         3.2091
  11   0.0000       0.146906         3.9975
  12   0.0000       0.173183         4.7125
  13   0.0000       0.186511         5.0752

MULLIKEN ATOMIC CHARGES
-----------------------
   0 C :   -0.000159
   1 O :   -0.000018
   2 H :   -0.000081
   3 H :   -0.000114
   4 H :    0.000005
   5 H :   -0.000023
   6 C :   -0.172102
   7 O :   -0.471326
   8 H :    0.313978
   9 H :    0.121644
  10 H :    0.103353
  11 H :    0.104844
Sum of atomic charges:   -0.0000000

LOEWDIN ATOMIC CHARGES
----------------------
   0 C :   -0.000233
   1 O :   -0.000054
   2 H :   -0.000047
   3 H :   -0.000060
   4 H :   -0.000015
   5 H :   -0.000015
   6 C :   -0.382109
   7 O :   -0.072613
   8 H :    0.161744
   9 H :    0.106438
  10 H :    0.089762
  11 H :    0.097202

  Mayer bond orders larger than 0.1
B(  6-C ,  7-O ) :   1.0041 B(  6-C ,  9-H ) :   0.9774 B(  6-C , 10-H ) :   0.9714
B(  6-C , 11-H ) :   0.9805 B(  7-O ,  8-H ) :   0.9026

Dispersion correction           -0.000249789
FINAL SINGLE POINT ENERGY      -115.733458418234

DIPOLE MOMENT
-------------
                                X             Y             Z
Electronic contribution:      0.61483      -1.33872      -1.18823
Nuclear contribution   :     -1.25973       1.40294       1.48027
                        -----------------------------------------
Total Dipole Moment    :     -0.64490       0.06423       0.29204
                        -----------------------------------------
Magnitude (a.u.)       :      0.71085
Magnitude (Debye)      :      1.80685

Rotational constants in cm-1:     4.465965     0.827697     0.788932
Rotational constants in MHz : 133886.263120 24813.733083 23651.590538

                             ****ORCA TERMINATED NORMALLY****
TOTAL RUN TIME: 0 days 0 hours 1 minutes 32 seconds 763 msec
