                         Program Version 4.1.2  - RELEASE  -
|  1> #Run DFT-D3 single point of the dimer
|  2> ! wB97X-D3 def2-TZVP TIGHTSCF CHELPG PMODEL PAL8
|  3>
|  4> %base "18-170_DFT_AB"
|  5>
|  6> %scf
|  7> MaxIter 1000
|  8> end
|  9>
| 10> * xyz 0 1
| 11>   C                      -3.115504            7.001241             2.301586
| 12>   O                      -3.053146            6.462424             0.964257
| 13>   H                      -2.899011            7.214064             0.348305
| 14>   H                      -3.798502            7.837995             2.319530
| 15>   H                      -3.430143            6.398298             3.171585
| 16>   H                      -2.108414            7.378747             2.531896
| 17>   C                      -4.378102            8.116178             -2.250395
| 18>   O                      -3.265974            7.812544             -1.458457
| 19>   H                      -2.526704            7.889954             -2.099805
| 20>   H                      -4.643488            7.304127             -2.928239
| 21>   H                      -5.245410            8.405091             -1.698347
| 22>   H                      -4.190495            8.981392             -2.876955
| 23> *
| 24>
| 25> #Run DFT-D3 single point of the molecule with dimer basis set
| 26> $new_job
| 27> %base "18-170_DFT_A"
| 28> ! wB97X-D3 def2-TZVP TIGHTSCF CHELPG PMODEL
| 29>
| 30> %scf
| 31> MaxIter 1000
| 32> end
| 33>
| 34> * xyz 0 1
| 35>   C                      -3.115504            7.001241             2.301586
| 36>   O                      -3.053146            6.462424             0.964257
| 37>   H                      -2.899011            7.214064             0.348305
| 38>   H                      -3.798502            7.837995             2.319530
| 39>   H                      -3.430143            6.398298             3.171585
| 40>   H                      -2.108414            7.378747             2.531896
| 41>   C                    : -4.378102            8.116178             -2.250395
| 42>   O                    : -3.265974            7.812544             -1.458457
| 43>   H                    : -2.526704            7.889954             -2.099805
| 44>   H                    : -4.643488            7.304127             -2.928239
| 45>   H                    : -5.245410            8.405091             -1.698347
| 46>   H                    : -4.190495            8.981392             -2.876955
| 47> *
| 48>
| 49> #Run DFT-D3 single point of the particle with dimer basis set
| 50> $new_job
| 51> %base "18-170_DFT_B"
| 52> ! wB97X-D3 def2-TZVP TIGHTSCF CHELPG PMODEL
| 53>
| 54> %scf
| 55> MaxIter 1000
| 56> end
| 57>
| 58> * xyz 0 1
| 59>   C                    : -3.115504            7.001241             2.301586
| 60>   O                    : -3.053146            6.462424             0.964257
| 61>   H                    : -2.899011            7.214064             0.348305
| 62>   H                    : -3.798502            7.837995             2.319530
| 63>   H                    : -3.430143            6.398298             3.171585
| 64>   H                    : -2.108414            7.378747             2.531896
| 65>   C                      -4.378102            8.116178             -2.250395
| 66>   O                      -3.265974            7.812544             -1.458457
| 67>   H                      -2.526704            7.889954             -2.099805
| 68>   H                      -4.643488            7.304127             -2.928239
| 69>   H                      -5.245410            8.405091             -1.698347
| 70>   H                      -4.190495            8.981392             -2.876955
| 71> *
| 72>
| 73>                          ****END OF INPUT****
 Total Charge           Charge          ....    0
 Multiplicity           Mult            ....    1
 Number of Electrons    NEL             ....   36
Dispersion correction           -0.001417969
FINAL SINGLE POINT ENERGY      -231.467063198115
Dispersion correction           -0.000249049
FINAL SINGLE POINT ENERGY      -115.727961998643

CARTESIAN COORDINATES (ANGSTROEM)
---------------------------------
  C     -3.115504    7.001241    2.301586
  O     -3.053146    6.462424    0.964257
  H     -2.899011    7.214064    0.348305
  H     -3.798502    7.837995    2.319530
  H     -3.430143    6.398298    3.171585
  H     -2.108414    7.378747    2.531896
  C     -4.378102    8.116178   -2.250395
  O     -3.265974    7.812544   -1.458457
  H     -2.526704    7.889954   -2.099805
  H     -4.643488    7.304127   -2.928239
  H     -5.245410    8.405091   -1.698347
  H     -4.190495    8.981392   -2.876955

 Multiplicity           Mult            ....    1
 Number of Electrons    NEL             ....   18
 Basis Dimension        Dim             ....  172

ORBITAL ENERGIES
----------------

  NO   OCC          E(Eh)            E(eV)
   0   2.0000     -19.235404      -523.4220
   1   2.0000     -10.307348      -280.4772
   2   2.0000      -1.141864       -31.0717
   3   2.0000      -0.795243       -21.6397
   4   2.0000      -0.612264       -16.6606
   5   2.0000      -0.546115       -14.8605
   6   2.0000      -0.531567       -14.4647
   7   2.0000      -0.437365       -11.9013
   8   2.0000      -0.374083       -10.1793
   9   0.0000       0.099392         2.7046
  10   0.0000       0.117666         3.2019
  11   0.0000       0.154667         4.2087
  12   0.0000       0.192228         5.2308
  13   0.0000       0.204235         5.5575

MULLIKEN ATOMIC CHARGES
-----------------------
   0 C :    0.000809
   1 O :    0.000999
   2 H :   -0.012746
   3 H :   -0.000459
   4 H :   -0.000016
   5 H :   -0.000056
   6 C :   -0.175260
   7 O :   -0.452749
   8 H :    0.316965
   9 H :    0.100801
  10 H :    0.121851
  11 H :    0.099862
Sum of atomic charges:    0.0000000

LOEWDIN ATOMIC CHARGES
----------------------
   0 C :   -0.000920
   1 O :   -0.008631
   2 H :   -0.041912
   3 H :   -0.000105
   4 H :   -0.000011
   5 H :   -0.000017
   6 C :   -0.399225
   7 O :   -0.029418
   8 H :    0.189024
   9 H :    0.094004
  10 H :    0.102502
  11 H :    0.094709

  Mayer bond orders larger than 0.1
B(  6-C ,  7-O ) :   0.9960 B(  6-C ,  9-H ) :   0.9732 B(  6-C , 10-H ) :   0.9760
B(  6-C , 11-H ) :   0.9801 B(  7-O ,  8-H ) :   0.8953

Dispersion correction           -0.000219894
FINAL SINGLE POINT ENERGY      -115.733521878199

DIPOLE MOMENT
-------------
                                X             Y             Z
Electronic contribution:      1.35456      -0.46911       1.27138
Nuclear contribution   :     -1.33278       0.66165      -1.97129
                        -----------------------------------------
Total Dipole Moment    :      0.02178       0.19255      -0.69991
                        -----------------------------------------
Magnitude (a.u.)       :      0.72624
Magnitude (Debye)      :      1.84595

Rotational constants in cm-1:     4.369287     0.847343     0.816758
Rotational constants in MHz : 130987.925218 25402.704269 24485.777713

                             ****ORCA TERMINATED NORMALLY****
TOTAL RUN TIME: 0 days 0 hours 0 minutes 58 seconds 24 msec
