                         Program Version 4.1.2  - RELEASE  -
|  1> #Run DFT-D3 single point of the dimer
|  2> ! wB97X-D3 def2-TZVP TIGHTSCF CHELPG PMODEL PAL8
|  3>
|  4> %base "14-47_DFT_AB"
|  5>
|  6> %scf
|  7> MaxIter 1000
|  8> end
|  9>
| 10> * xyz 0 1
| 11>   C                      10.841088            -7.127061            -6.891285
| 12>   O                      10.495546            -7.092162            -5.484353
| 13>   H                      9.956987             -6.291068            -5.245316
| 14>   H                      9.927392             -6.872766            -7.502368
| 15>   H                      11.640231            -6.359361            -7.120319
| 16>   H                      11.277844            -8.122326            -7.267426
| 17>   C                      7.484563             -7.813298            -0.080176
| 18>   O                      7.970204             -7.814618            -1.412592
| 19>   H                      7.379166             -7.968400            -2.111946
| 20>   H                      8.308965             -7.504813            0.583477
| 21>   H                      6.647479             -7.119770            0.045726
| 22>   H                      7.206635             -8.850339            0.205564
| 23> *
| 24>
| 25> #Run DFT-D3 single point of the molecule with dimer basis set
| 26> $new_job
| 27> %base "14-47_DFT_A"
| 28> ! wB97X-D3 def2-TZVP TIGHTSCF CHELPG PMODEL
| 29>
| 30> %scf
| 31> MaxIter 1000
| 32> end
| 33>
| 34> * xyz 0 1
| 35>   C                      10.841088            -7.127061            -6.891285
| 36>   O                      10.495546            -7.092162            -5.484353
| 37>   H                      9.956987             -6.291068            -5.245316
| 38>   H                      9.927392             -6.872766            -7.502368
| 39>   H                      11.640231            -6.359361            -7.120319
| 40>   H                      11.277844            -8.122326            -7.267426
| 41>   C                    : 7.484563             -7.813298            -0.080176
| 42>   O                    : 7.970204             -7.814618            -1.412592
| 43>   H                    : 7.379166             -7.968400            -2.111946
| 44>   H                    : 8.308965             -7.504813            0.583477
| 45>   H                    : 6.647479             -7.119770            0.045726
| 46>   H                    : 7.206635             -8.850339            0.205564
| 47> *
| 48>
| 49> #Run DFT-D3 single point of the particle with dimer basis set
| 50> $new_job
| 51> %base "14-47_DFT_B"
| 52> ! wB97X-D3 def2-TZVP TIGHTSCF CHELPG PMODEL
| 53>
| 54> %scf
| 55> MaxIter 1000
| 56> end
| 57>
| 58> * xyz 0 1
| 59>   C                    : 10.841088            -7.127061            -6.891285
| 60>   O                    : 10.495546            -7.092162            -5.484353
| 61>   H                    : 9.956987             -6.291068            -5.245316
| 62>   H                    : 9.927392             -6.872766            -7.502368
| 63>   H                    : 11.640231            -6.359361            -7.120319
| 64>   H                    : 11.277844            -8.122326            -7.267426
| 65>   C                      7.484563             -7.813298            -0.080176
| 66>   O                      7.970204             -7.814618            -1.412592
| 67>   H                      7.379166             -7.968400            -2.111946
| 68>   H                      8.308965             -7.504813            0.583477
| 69>   H                      6.647479             -7.119770            0.045726
| 70>   H                      7.206635             -8.850339            0.205564
| 71> *
| 72>
| 73>                          ****END OF INPUT****
 Total Charge           Charge          ....    0
 Multiplicity           Mult            ....    1
 Number of Electrons    NEL             ....   36
Dispersion correction           -0.000656324
FINAL SINGLE POINT ENERGY      -231.461063465727
Dispersion correction           -0.000287305
FINAL SINGLE POINT ENERGY      -115.728159270316

CARTESIAN COORDINATES (ANGSTROEM)
---------------------------------
  C     10.841088   -7.127061   -6.891285
  O     10.495546   -7.092162   -5.484353
  H      9.956987   -6.291068   -5.245316
  H      9.927392   -6.872766   -7.502368
  H     11.640231   -6.359361   -7.120319
  H     11.277844   -8.122326   -7.267426
  C      7.484563   -7.813298   -0.080176
  O      7.970204   -7.814618   -1.412592
  H      7.379166   -7.968400   -2.111946
  H      8.308965   -7.504813    0.583477
  H      6.647479   -7.119770    0.045726
  H      7.206635   -8.850339    0.205564

 Multiplicity           Mult            ....    1
 Number of Electrons    NEL             ....   18
 Basis Dimension        Dim             ....  172

ORBITAL ENERGIES
----------------

  NO   OCC          E(Eh)            E(eV)
   0   2.0000     -19.219987      -523.0024
   1   2.0000     -10.318278      -280.7746
   2   2.0000      -1.132256       -30.8102
   3   2.0000      -0.801405       -21.8073
   4   2.0000      -0.611845       -16.6491
   5   2.0000      -0.542043       -14.7497
   6   2.0000      -0.528655       -14.3854
   7   2.0000      -0.418848       -11.3974
   8   2.0000      -0.372152       -10.1268
   9   0.0000       0.089244         2.4284
  10   0.0000       0.120035         3.2663
  11   0.0000       0.151747         4.1292
  12   0.0000       0.171470         4.6659
  13   0.0000       0.199887         5.4392

MULLIKEN ATOMIC CHARGES
-----------------------
   0 C :    0.000008
   1 O :   -0.000004
   2 H :   -0.000153
   3 H :   -0.000001
   4 H :   -0.000000
   5 H :    0.000001
   6 C :   -0.135230
   7 O :   -0.499745
   8 H :    0.313504
   9 H :    0.122827
  10 H :    0.101673
  11 H :    0.097122
Sum of atomic charges:   -0.0000000

LOEWDIN ATOMIC CHARGES
----------------------
   0 C :   -0.000002
   1 O :   -0.000013
   2 H :   -0.000085
   3 H :   -0.000000
   4 H :   -0.000000
   5 H :   -0.000000
   6 C :   -0.373495
   7 O :   -0.072606
   8 H :    0.142370
   9 H :    0.112344
  10 H :    0.094207
  11 H :    0.097280

  Mayer bond orders larger than 0.1
B(  6-C ,  7-O ) :   0.9866 B(  6-C ,  9-H ) :   0.9703 B(  6-C , 10-H ) :   0.9755
B(  6-C , 11-H ) :   0.9791 B(  7-O ,  8-H ) :   0.8983

Dispersion correction           -0.000263020
FINAL SINGLE POINT ENERGY      -115.733196338451

DIPOLE MOMENT
-------------
                                X             Y             Z
Electronic contribution:      0.62999       0.05962      -1.60552
Nuclear contribution   :     -1.23098      -0.15338       1.70280
                        -----------------------------------------
Total Dipole Moment    :     -0.60098      -0.09375       0.09728
                        -----------------------------------------
Magnitude (a.u.)       :      0.61598
Magnitude (Debye)      :      1.56570

Rotational constants in cm-1:     4.381946     0.814896     0.795788
Rotational constants in MHz : 131367.422365 24429.981191 23857.129579

                             ****ORCA TERMINATED NORMALLY****
TOTAL RUN TIME: 0 days 0 hours 0 minutes 57 seconds 380 msec
