                         Program Version 4.1.2  - RELEASE  -
|  1> #Run DFT-D3 single point of the dimer
|  2> ! wB97X-D3 def2-TZVP TIGHTSCF CHELPG PMODEL PAL8
|  3>
|  4> %base "16-122_DFT_AB"
|  5>
|  6> %scf
|  7> MaxIter 1000
|  8> end
|  9>
| 10> * xyz 0 1
| 11>   C                      9.332024             -7.825781            -3.804788
| 12>   O                      8.953421             -7.722838            -5.139420
| 13>   H                      8.371526             -8.481379            -5.322820
| 14>   H                      10.157458            -8.605935            -3.657025
| 15>   H                      9.700460             -6.873416            -3.434979
| 16>   H                      8.503247             -8.036935            -3.181149
| 17>   C                      9.837550             -10.704145           -7.969861
| 18>   O                      10.751761            -9.734307            -7.416163
| 19>   H                      10.618350            -9.662489            -6.446149
| 20>   H                      10.084871            -11.706342           -7.694545
| 21>   H                      8.787805             -10.439550           -7.704366
| 22>   H                      10.088406            -10.633210           -9.079807
| 23> *
| 24>
| 25> #Run DFT-D3 single point of the molecule with dimer basis set
| 26> $new_job
| 27> %base "16-122_DFT_A"
| 28> ! wB97X-D3 def2-TZVP TIGHTSCF CHELPG PMODEL
| 29>
| 30> %scf
| 31> MaxIter 1000
| 32> end
| 33>
| 34> * xyz 0 1
| 35>   C                      9.332024             -7.825781            -3.804788
| 36>   O                      8.953421             -7.722838            -5.139420
| 37>   H                      8.371526             -8.481379            -5.322820
| 38>   H                      10.157458            -8.605935            -3.657025
| 39>   H                      9.700460             -6.873416            -3.434979
| 40>   H                      8.503247             -8.036935            -3.181149
| 41>   C                    : 9.837550             -10.704145           -7.969861
| 42>   O                    : 10.751761            -9.734307            -7.416163
| 43>   H                    : 10.618350            -9.662489            -6.446149
| 44>   H                    : 10.084871            -11.706342           -7.694545
| 45>   H                    : 8.787805             -10.439550           -7.704366
| 46>   H                    : 10.088406            -10.633210           -9.079807
| 47> *
| 48>
| 49> #Run DFT-D3 single point of the particle with dimer basis set
| 50> $new_job
| 51> %base "16-122_DFT_B"
| 52> ! wB97X-D3 def2-TZVP TIGHTSCF CHELPG PMODEL
| 53>
| 54> %scf
| 55> MaxIter 1000
| 56> end
| 57>
| 58> * xyz 0 1
| 59>   C                    : 9.332024             -7.825781            -3.804788
| 60>   O                    : 8.953421             -7.722838            -5.139420
| 61>   H                    : 8.371526             -8.481379            -5.322820
| 62>   H                    : 10.157458            -8.605935            -3.657025
| 63>   H                    : 9.700460             -6.873416            -3.434979
| 64>   H                    : 8.503247             -8.036935            -3.181149
| 65>   C                      9.837550             -10.704145           -7.969861
| 66>   O                      10.751761            -9.734307            -7.416163
| 67>   H                      10.618350            -9.662489            -6.446149
| 68>   H                      10.084871            -11.706342           -7.694545
| 69>   H                      8.787805             -10.439550           -7.704366
| 70>   H                      10.088406            -10.633210           -9.079807
| 71> *
| 72>
| 73>                          ****END OF INPUT****
 Total Charge           Charge          ....    0
 Multiplicity           Mult            ....    1
 Number of Electrons    NEL             ....   36
Dispersion correction           -0.001520165
FINAL SINGLE POINT ENERGY      -231.466651182274
Dispersion correction           -0.000232792
FINAL SINGLE POINT ENERGY      -115.734174176598

CARTESIAN COORDINATES (ANGSTROEM)
---------------------------------
  C      9.332024   -7.825781   -3.804788
  O      8.953421   -7.722838   -5.139420
  H      8.371526   -8.481379   -5.322820
  H     10.157458   -8.605935   -3.657025
  H      9.700460   -6.873416   -3.434979
  H      8.503247   -8.036935   -3.181149
  C      9.837550  -10.704145   -7.969861
  O     10.751761   -9.734307   -7.416163
  H     10.618350   -9.662489   -6.446149
  H     10.084871  -11.706342   -7.694545
  H      8.787805  -10.439550   -7.704366
  H     10.088406  -10.633210   -9.079807

 Multiplicity           Mult            ....    1
 Number of Electrons    NEL             ....   18
 Basis Dimension        Dim             ....  172

ORBITAL ENERGIES
----------------

  NO   OCC          E(Eh)            E(eV)
   0   2.0000     -19.229342      -523.2570
   1   2.0000     -10.319829      -280.8168
   2   2.0000      -1.121426       -30.5156
   3   2.0000      -0.791374       -21.5344
   4   2.0000      -0.602939       -16.4068
   5   2.0000      -0.545090       -14.8327
   6   2.0000      -0.510545       -13.8926
   7   2.0000      -0.431101       -11.7309
   8   2.0000      -0.374407       -10.1881
   9   0.0000       0.072063         1.9609
  10   0.0000       0.125519         3.4156
  11   0.0000       0.148796         4.0490
  12   0.0000       0.166865         4.5406
  13   0.0000       0.189313         5.1515

MULLIKEN ATOMIC CHARGES
-----------------------
   0 C :   -0.000246
   1 O :   -0.001428
   2 H :   -0.001047
   3 H :   -0.000392
   4 H :    0.000044
   5 H :    0.000025
   6 C :   -0.163783
   7 O :   -0.483743
   8 H :    0.311437
   9 H :    0.108442
  10 H :    0.107195
  11 H :    0.123495
Sum of atomic charges:    0.0000000

LOEWDIN ATOMIC CHARGES
----------------------
   0 C :   -0.001190
   1 O :   -0.002172
   2 H :   -0.001318
   3 H :   -0.000529
   4 H :   -0.000012
   5 H :   -0.000009
   6 C :   -0.368322
   7 O :   -0.109005
   8 H :    0.173431
   9 H :    0.087237
  10 H :    0.099486
  11 H :    0.122404

  Mayer bond orders larger than 0.1
B(  6-C ,  7-O ) :   0.9907 B(  6-C ,  9-H ) :   0.9721 B(  6-C , 10-H ) :   0.9714
B(  6-C , 11-H ) :   0.9756 B(  7-O ,  8-H ) :   0.8995

Dispersion correction           -0.000256084
FINAL SINGLE POINT ENERGY      -115.732434563437

DIPOLE MOMENT
-------------
                                X             Y             Z
Electronic contribution:      1.07893       1.13446       0.62906
Nuclear contribution   :     -1.51837      -1.50272      -0.25098
                        -----------------------------------------
Total Dipole Moment    :     -0.43944      -0.36825       0.37808
                        -----------------------------------------
Magnitude (a.u.)       :      0.68677
Magnitude (Debye)      :      1.74564

Rotational constants in cm-1:     4.085519     0.811456     0.776655
Rotational constants in MHz : 122480.765187 24326.853625 23283.539464

                             ****ORCA TERMINATED NORMALLY****
TOTAL RUN TIME: 0 days 0 hours 0 minutes 52 seconds 986 msec
