                         Program Version 4.1.2  - RELEASE  -
|  1> #Run DFT-D3 single point of the dimer
|  2> ! wB97X-D3 def2-TZVP TIGHTSCF CHELPG PMODEL PAL8
|  3>
|  4> %base "16-126_DFT_AB"
|  5>
|  6> %scf
|  7> MaxIter 1000
|  8> end
|  9>
| 10> * xyz 0 1
| 11>   C                      -6.453457            -0.292748            3.025583
| 12>   O                      -7.118976            0.113840             4.133951
| 13>   H                      -6.482829            0.713591             4.577241
| 14>   H                      -7.026724            -1.111261            2.492437
| 15>   H                      -6.333896            0.490249             2.235554
| 16>   H                      -5.489757            -0.618275            3.381762
| 17>   C                      -10.552490           -1.297526            1.065318
| 18>   O                      -9.786420            -0.144467            1.203859
| 19>   H                      -10.338353           0.640395             1.205844
| 20>   H                      -10.625634           -1.588218            0.057080
| 21>   H                      -10.038204           -2.018390            1.649250
| 22>   H                      -11.536169           -1.009857            1.446093
| 23> *
| 24>
| 25> #Run DFT-D3 single point of the molecule with dimer basis set
| 26> $new_job
| 27> %base "16-126_DFT_A"
| 28> ! wB97X-D3 def2-TZVP TIGHTSCF CHELPG PMODEL
| 29>
| 30> %scf
| 31> MaxIter 1000
| 32> end
| 33>
| 34> * xyz 0 1
| 35>   C                      -6.453457            -0.292748            3.025583
| 36>   O                      -7.118976            0.113840             4.133951
| 37>   H                      -6.482829            0.713591             4.577241
| 38>   H                      -7.026724            -1.111261            2.492437
| 39>   H                      -6.333896            0.490249             2.235554
| 40>   H                      -5.489757            -0.618275            3.381762
| 41>   C                    : -10.552490           -1.297526            1.065318
| 42>   O                    : -9.786420            -0.144467            1.203859
| 43>   H                    : -10.338353           0.640395             1.205844
| 44>   H                    : -10.625634           -1.588218            0.057080
| 45>   H                    : -10.038204           -2.018390            1.649250
| 46>   H                    : -11.536169           -1.009857            1.446093
| 47> *
| 48>
| 49> #Run DFT-D3 single point of the particle with dimer basis set
| 50> $new_job
| 51> %base "16-126_DFT_B"
| 52> ! wB97X-D3 def2-TZVP TIGHTSCF CHELPG PMODEL
| 53>
| 54> %scf
| 55> MaxIter 1000
| 56> end
| 57>
| 58> * xyz 0 1
| 59>   C                    : -6.453457            -0.292748            3.025583
| 60>   O                    : -7.118976            0.113840             4.133951
| 61>   H                    : -6.482829            0.713591             4.577241
| 62>   H                    : -7.026724            -1.111261            2.492437
| 63>   H                    : -6.333896            0.490249             2.235554
| 64>   H                    : -5.489757            -0.618275            3.381762
| 65>   C                      -10.552490           -1.297526            1.065318
| 66>   O                      -9.786420            -0.144467            1.203859
| 67>   H                      -10.338353           0.640395             1.205844
| 68>   H                      -10.625634           -1.588218            0.057080
| 69>   H                      -10.038204           -2.018390            1.649250
| 70>   H                      -11.536169           -1.009857            1.446093
| 71> *
| 72>
| 73>                          ****END OF INPUT****
 Total Charge           Charge          ....    0
 Multiplicity           Mult            ....    1
 Number of Electrons    NEL             ....   36
Dispersion correction           -0.001203584
FINAL SINGLE POINT ENERGY      -231.459655644319
Dispersion correction           -0.000206607
FINAL SINGLE POINT ENERGY      -115.728916543401

CARTESIAN COORDINATES (ANGSTROEM)
---------------------------------
  C     -6.453457   -0.292748    3.025583
  O     -7.118976    0.113840    4.133951
  H     -6.482829    0.713591    4.577241
  H     -7.026724   -1.111261    2.492437
  H     -6.333896    0.490249    2.235554
  H     -5.489757   -0.618275    3.381762
  C    -10.552490   -1.297526    1.065318
  O     -9.786420   -0.144467    1.203859
  H    -10.338353    0.640395    1.205844
  H    -10.625634   -1.588218    0.057080
  H    -10.038204   -2.018390    1.649250
  H    -11.536169   -1.009857    1.446093

 Multiplicity           Mult            ....    1
 Number of Electrons    NEL             ....   18
 Basis Dimension        Dim             ....  172

ORBITAL ENERGIES
----------------

  NO   OCC          E(Eh)            E(eV)
   0   2.0000     -19.221314      -523.0385
   1   2.0000     -10.302617      -280.3485
   2   2.0000      -1.139404       -31.0048
   3   2.0000      -0.798488       -21.7280
   4   2.0000      -0.614091       -16.7103
   5   2.0000      -0.551724       -15.0132
   6   2.0000      -0.536090       -14.5877
   7   2.0000      -0.425745       -11.5851
   8   2.0000      -0.368997       -10.0409
   9   0.0000       0.096541         2.6270
  10   0.0000       0.116626         3.1736
  11   0.0000       0.161341         4.3903
  12   0.0000       0.176759         4.8098
  13   0.0000       0.191790         5.2189

MULLIKEN ATOMIC CHARGES
-----------------------
   0 C :   -0.000059
   1 O :   -0.000202
   2 H :   -0.000021
   3 H :   -0.002116
   4 H :   -0.001038
   5 H :   -0.000213
   6 C :   -0.128370
   7 O :   -0.484046
   8 H :    0.312266
   9 H :    0.098750
  10 H :    0.114903
  11 H :    0.090146
Sum of atomic charges:    0.0000000

LOEWDIN ATOMIC CHARGES
----------------------
   0 C :   -0.003793
   1 O :   -0.000255
   2 H :   -0.000019
   3 H :   -0.001473
   4 H :   -0.000619
   5 H :   -0.000061
   6 C :   -0.379933
   7 O :   -0.065349
   8 H :    0.165898
   9 H :    0.086042
  10 H :    0.101348
  11 H :    0.098214

  Mayer bond orders larger than 0.1
B(  6-C ,  7-O ) :   0.9938 B(  6-C ,  9-H ) :   0.9713 B(  6-C , 10-H ) :   0.9799
B(  6-C , 11-H ) :   0.9968 B(  7-O ,  8-H ) :   0.9004

Dispersion correction           -0.000206888
FINAL SINGLE POINT ENERGY      -115.730216213728

DIPOLE MOMENT
-------------
                                X             Y             Z
Electronic contribution:      1.02521       1.20905       0.12285
Nuclear contribution   :     -1.69895      -1.15695      -0.17907
                        -----------------------------------------
Total Dipole Moment    :     -0.67373       0.05211      -0.05622
                        -----------------------------------------
Magnitude (a.u.)       :      0.67808
Magnitude (Debye)      :      1.72354

Rotational constants in cm-1:     4.323354     0.878163     0.839239
Rotational constants in MHz : 129610.902631 26326.673334 25159.751723

                             ****ORCA TERMINATED NORMALLY****
TOTAL RUN TIME: 0 days 0 hours 0 minutes 52 seconds 851 msec
