                         Program Version 4.1.2  - RELEASE  -
|  1> #Run DFT-D3 single point of the dimer
|  2> ! wB97X-D3 def2-TZVP TIGHTSCF CHELPG PMODEL PAL8
|  3>
|  4> %base "20-93_DFT_AB"
|  5>
|  6> %scf
|  7> MaxIter 1000
|  8> end
|  9>
| 10> * xyz 0 1
| 11>   C                      -5.619514            -0.230082            9.710258
| 12>   O                      -5.919557            0.391140             10.949691
| 13>   H                      -5.148180            1.017697             11.036180
| 14>   H                      -6.402927            -0.922974            9.360529
| 15>   H                      -5.635728            0.617874             8.986753
| 16>   H                      -4.641547            -0.829193            9.755749
| 17>   C                      -0.964929            1.765584             8.833861
| 18>   O                      -1.717708            2.772433             9.460546
| 19>   H                      -1.454043            3.673651             9.111161
| 20>   H                      -1.455333            0.796565             9.025648
| 21>   H                      -1.064649            1.866882             7.749070
| 22>   H                      0.069803             1.756085             9.207566
| 23> *
| 24>
| 25> #Run DFT-D3 single point of the molecule with dimer basis set
| 26> $new_job
| 27> %base "20-93_DFT_A"
| 28> ! wB97X-D3 def2-TZVP TIGHTSCF CHELPG PMODEL
| 29>
| 30> %scf
| 31> MaxIter 1000
| 32> end
| 33>
| 34> * xyz 0 1
| 35>   C                      -5.619514            -0.230082            9.710258
| 36>   O                      -5.919557            0.391140             10.949691
| 37>   H                      -5.148180            1.017697             11.036180
| 38>   H                      -6.402927            -0.922974            9.360529
| 39>   H                      -5.635728            0.617874             8.986753
| 40>   H                      -4.641547            -0.829193            9.755749
| 41>   C                    : -0.964929            1.765584             8.833861
| 42>   O                    : -1.717708            2.772433             9.460546
| 43>   H                    : -1.454043            3.673651             9.111161
| 44>   H                    : -1.455333            0.796565             9.025648
| 45>   H                    : -1.064649            1.866882             7.749070
| 46>   H                    : 0.069803             1.756085             9.207566
| 47> *
| 48>
| 49> #Run DFT-D3 single point of the particle with dimer basis set
| 50> $new_job
| 51> %base "20-93_DFT_B"
| 52> ! wB97X-D3 def2-TZVP TIGHTSCF CHELPG PMODEL
| 53>
| 54> %scf
| 55> MaxIter 1000
| 56> end
| 57>
| 58> * xyz 0 1
| 59>   C                    : -5.619514            -0.230082            9.710258
| 60>   O                    : -5.919557            0.391140             10.949691
| 61>   H                    : -5.148180            1.017697             11.036180
| 62>   H                    : -6.402927            -0.922974            9.360529
| 63>   H                    : -5.635728            0.617874             8.986753
| 64>   H                    : -4.641547            -0.829193            9.755749
| 65>   C                      -0.964929            1.765584             8.833861
| 66>   O                      -1.717708            2.772433             9.460546
| 67>   H                      -1.454043            3.673651             9.111161
| 68>   H                      -1.455333            0.796565             9.025648
| 69>   H                      -1.064649            1.866882             7.749070
| 70>   H                      0.069803             1.756085             9.207566
| 71> *
| 72>
| 73>                          ****END OF INPUT****
 Total Charge           Charge          ....    0
 Multiplicity           Mult            ....    1
 Number of Electrons    NEL             ....   36
Dispersion correction           -0.000838789
FINAL SINGLE POINT ENERGY      -231.463586788268
Dispersion correction           -0.000228326
FINAL SINGLE POINT ENERGY      -115.728395564792

CARTESIAN COORDINATES (ANGSTROEM)
---------------------------------
  C     -5.619514   -0.230082    9.710258
  O     -5.919557    0.391140   10.949691
  H     -5.148180    1.017697   11.036180
  H     -6.402927   -0.922974    9.360529
  H     -5.635728    0.617874    8.986753
  H     -4.641547   -0.829193    9.755749
  C     -0.964929    1.765584    8.833861
  O     -1.717708    2.772433    9.460546
  H     -1.454043    3.673651    9.111161
  H     -1.455333    0.796565    9.025648
  H     -1.064649    1.866882    7.749070
  H      0.069803    1.756085    9.207566

 Multiplicity           Mult            ....    1
 Number of Electrons    NEL             ....   18
 Basis Dimension        Dim             ....  172

ORBITAL ENERGIES
----------------

  NO   OCC          E(Eh)            E(eV)
   0   2.0000     -19.230169      -523.2795
   1   2.0000     -10.312919      -280.6288
   2   2.0000      -1.128976       -30.7210
   3   2.0000      -0.790004       -21.4971
   4   2.0000      -0.602646       -16.3988
   5   2.0000      -0.551343       -15.0028
   6   2.0000      -0.523683       -14.2501
   7   2.0000      -0.421897       -11.4804
   8   2.0000      -0.372805       -10.1445
   9   0.0000       0.090623         2.4660
  10   0.0000       0.113509         3.0887
  11   0.0000       0.151621         4.1258
  12   0.0000       0.173867         4.7312
  13   0.0000       0.185327         5.0430

MULLIKEN ATOMIC CHARGES
-----------------------
   0 C :    0.000113
   1 O :    0.000073
   2 H :   -0.000464
   3 H :   -0.000009
   4 H :   -0.000218
   5 H :   -0.000134
   6 C :   -0.157140
   7 O :   -0.484826
   8 H :    0.318027
   9 H :    0.117269
  10 H :    0.103889
  11 H :    0.103421
Sum of atomic charges:    0.0000000

LOEWDIN ATOMIC CHARGES
----------------------
   0 C :   -0.000113
   1 O :   -0.000010
   2 H :   -0.000233
   3 H :   -0.000005
   4 H :   -0.000079
   5 H :   -0.000126
   6 C :   -0.397851
   7 O :   -0.094582
   8 H :    0.191240
   9 H :    0.110487
  10 H :    0.095318
  11 H :    0.095954

  Mayer bond orders larger than 0.1
B(  6-C ,  7-O ) :   0.9965 B(  6-C ,  9-H ) :   0.9711 B(  6-C , 10-H ) :   0.9814
B(  6-C , 11-H ) :   0.9735 B(  7-O ,  8-H ) :   0.8901

Dispersion correction           -0.000240615
FINAL SINGLE POINT ENERGY      -115.733649853687

DIPOLE MOMENT
-------------
                                X             Y             Z
Electronic contribution:     -0.92459       1.19002       0.89004
Nuclear contribution   :      1.36849      -1.03421      -1.36798
                        -----------------------------------------
Total Dipole Moment    :      0.44389       0.15581      -0.47794
                        -----------------------------------------
Magnitude (a.u.)       :      0.67063
Magnitude (Debye)      :      1.70460

Rotational constants in cm-1:     4.172863     0.834435     0.813241
Rotational constants in MHz : 125099.297817 25015.731259 24380.337569

                             ****ORCA TERMINATED NORMALLY****
TOTAL RUN TIME: 0 days 0 hours 0 minutes 49 seconds 762 msec
