                         Program Version 4.1.2  - RELEASE  -
|  1> #Run DFT-D3 single point of the dimer
|  2> ! wB97X-D3 def2-TZVP TIGHTSCF CHELPG PMODEL PAL8
|  3>
|  4> %base "22-24_DFT_AB"
|  5>
|  6> %scf
|  7> MaxIter 1000
|  8> end
|  9>
| 10> * xyz 0 1
| 11>   C                      -0.754698            -4.429643            3.939378
| 12>   O                      -1.196798            -4.428082            5.254249
| 13>   H                      -0.395699            -4.752719            5.779728
| 14>   H                      -0.383757            -5.340087            3.635676
| 15>   H                      -1.507620            -4.118996            3.190048
| 16>   H                      0.031200             -3.762485            3.769299
| 17>   C                      3.075295             -2.827477            5.639292
| 18>   O                      3.897030             -3.892923            5.118715
| 19>   H                      3.291712             -4.647159            5.201886
| 20>   H                      2.228805             -3.120906            6.294508
| 21>   H                      3.704886             -2.050128            6.061457
| 22>   H                      2.606120             -2.342759            4.806780
| 23> *
| 24>
| 25> #Run DFT-D3 single point of the molecule with dimer basis set
| 26> $new_job
| 27> %base "22-24_DFT_A"
| 28> ! wB97X-D3 def2-TZVP TIGHTSCF CHELPG PMODEL
| 29>
| 30> %scf
| 31> MaxIter 1000
| 32> end
| 33>
| 34> * xyz 0 1
| 35>   C                      -0.754698            -4.429643            3.939378
| 36>   O                      -1.196798            -4.428082            5.254249
| 37>   H                      -0.395699            -4.752719            5.779728
| 38>   H                      -0.383757            -5.340087            3.635676
| 39>   H                      -1.507620            -4.118996            3.190048
| 40>   H                      0.031200             -3.762485            3.769299
| 41>   C                    : 3.075295             -2.827477            5.639292
| 42>   O                    : 3.897030             -3.892923            5.118715
| 43>   H                    : 3.291712             -4.647159            5.201886
| 44>   H                    : 2.228805             -3.120906            6.294508
| 45>   H                    : 3.704886             -2.050128            6.061457
| 46>   H                    : 2.606120             -2.342759            4.806780
| 47> *
| 48>
| 49> #Run DFT-D3 single point of the particle with dimer basis set
| 50> $new_job
| 51> %base "22-24_DFT_B"
| 52> ! wB97X-D3 def2-TZVP TIGHTSCF CHELPG PMODEL
| 53>
| 54> %scf
| 55> MaxIter 1000
| 56> end
| 57>
| 58> * xyz 0 1
| 59>   C                    : -0.754698            -4.429643            3.939378
| 60>   O                    : -1.196798            -4.428082            5.254249
| 61>   H                    : -0.395699            -4.752719            5.779728
| 62>   H                    : -0.383757            -5.340087            3.635676
| 63>   H                    : -1.507620            -4.118996            3.190048
| 64>   H                    : 0.031200             -3.762485            3.769299
| 65>   C                      3.075295             -2.827477            5.639292
| 66>   O                      3.897030             -3.892923            5.118715
| 67>   H                      3.291712             -4.647159            5.201886
| 68>   H                      2.228805             -3.120906            6.294508
| 69>   H                      3.704886             -2.050128            6.061457
| 70>   H                      2.606120             -2.342759            4.806780
| 71> *
| 72>
| 73>                          ****END OF INPUT****
 Total Charge           Charge          ....    0
 Multiplicity           Mult            ....    1
 Number of Electrons    NEL             ....   36
Dispersion correction           -0.001331818
FINAL SINGLE POINT ENERGY      -231.457173542825
Dispersion correction           -0.000214268
FINAL SINGLE POINT ENERGY      -115.726407577724

CARTESIAN COORDINATES (ANGSTROEM)
---------------------------------
  C     -0.754698   -4.429643    3.939378
  O     -1.196798   -4.428082    5.254249
  H     -0.395699   -4.752719    5.779728
  H     -0.383757   -5.340087    3.635676
  H     -1.507620   -4.118996    3.190048
  H      0.031200   -3.762485    3.769299
  C      3.075295   -2.827477    5.639292
  O      3.897030   -3.892923    5.118715
  H      3.291712   -4.647159    5.201886
  H      2.228805   -3.120906    6.294508
  H      3.704886   -2.050128    6.061457
  H      2.606120   -2.342759    4.806780

 Multiplicity           Mult            ....    1
 Number of Electrons    NEL             ....   18
 Basis Dimension        Dim             ....  172

ORBITAL ENERGIES
----------------

  NO   OCC          E(Eh)            E(eV)
   0   2.0000     -19.233571      -523.3721
   1   2.0000     -10.313006      -280.6312
   2   2.0000      -1.130401       -30.7598
   3   2.0000      -0.795411       -21.6442
   4   2.0000      -0.606743       -16.5103
   5   2.0000      -0.531388       -14.4598
   6   2.0000      -0.523587       -14.2475
   7   2.0000      -0.450979       -12.2718
   8   2.0000      -0.371238       -10.1019
   9   0.0000       0.071592         1.9481
  10   0.0000       0.122613         3.3365
  11   0.0000       0.147471         4.0129
  12   0.0000       0.158371         4.3095
  13   0.0000       0.197328         5.3696

MULLIKEN ATOMIC CHARGES
-----------------------
   0 C :    0.000134
   1 O :   -0.000038
   2 H :   -0.000131
   3 H :   -0.000077
   4 H :    0.000043
   5 H :    0.000055
   6 C :   -0.194376
   7 O :   -0.465272
   8 H :    0.313157
   9 H :    0.112169
  10 H :    0.124840
  11 H :    0.109497
Sum of atomic charges:    0.0000000

LOEWDIN ATOMIC CHARGES
----------------------
   0 C :   -0.000405
   1 O :   -0.000047
   2 H :   -0.000483
   3 H :   -0.000021
   4 H :   -0.000004
   5 H :   -0.000557
   6 C :   -0.373444
   7 O :   -0.100068
   8 H :    0.176003
   9 H :    0.101139
  10 H :    0.105160
  11 H :    0.092728

  Mayer bond orders larger than 0.1
B(  6-C ,  7-O ) :   1.0013 B(  6-C ,  9-H ) :   0.9737 B(  6-C , 10-H ) :   0.9770
B(  6-C , 11-H ) :   0.9787 B(  7-O ,  8-H ) :   0.9041

Dispersion correction           -0.000243810
FINAL SINGLE POINT ENERGY      -115.730815367111

DIPOLE MOMENT
-------------
                                X             Y             Z
Electronic contribution:      1.20807      -1.32094      -0.57072
Nuclear contribution   :     -1.91862       1.29095       0.81378
                        -----------------------------------------
Total Dipole Moment    :     -0.71055      -0.02998       0.24306
                        -----------------------------------------
Magnitude (a.u.)       :      0.75157
Magnitude (Debye)      :      1.91034

Rotational constants in cm-1:     4.277529     0.817041     0.773611
Rotational constants in MHz : 128237.091407 24494.282620 23192.279532

                             ****ORCA TERMINATED NORMALLY****
TOTAL RUN TIME: 0 days 0 hours 0 minutes 58 seconds 159 msec
