                         Program Version 4.1.2  - RELEASE  -
|  1> #Run DFT-D3 single point of the dimer
|  2> ! wB97X-D3 def2-TZVP TIGHTSCF CHELPG PMODEL PAL8
|  3>
|  4> %base "19-139_DFT_AB"
|  5>
|  6> %scf
|  7> MaxIter 1000
|  8> end
|  9>
| 10> * xyz 0 1
| 11>   C                      4.711834             -8.345417            -1.787665
| 12>   O                      4.351505             -9.380712            -2.640933
| 13>   H                      4.436691             -10.246070           -2.192788
| 14>   H                      5.247250             -7.520029            -2.200052
| 15>   H                      3.785953             -7.910492            -1.349305
| 16>   H                      5.296892             -8.815568            -0.964432
| 17>   C                      3.916509             -3.508539            -1.803295
| 18>   O                      4.339217             -4.813427            -1.423874
| 19>   H                      5.103131             -4.768572            -0.766740
| 20>   H                      4.574510             -3.094460            -2.572110
| 21>   H                      2.850939             -3.502246            -2.171347
| 22>   H                      3.965013             -2.881718            -0.988602
| 23> *
| 24>
| 25> #Run DFT-D3 single point of the molecule with dimer basis set
| 26> $new_job
| 27> %base "19-139_DFT_A"
| 28> ! wB97X-D3 def2-TZVP TIGHTSCF CHELPG PMODEL
| 29>
| 30> %scf
| 31> MaxIter 1000
| 32> end
| 33>
| 34> * xyz 0 1
| 35>   C                      4.711834             -8.345417            -1.787665
| 36>   O                      4.351505             -9.380712            -2.640933
| 37>   H                      4.436691             -10.246070           -2.192788
| 38>   H                      5.247250             -7.520029            -2.200052
| 39>   H                      3.785953             -7.910492            -1.349305
| 40>   H                      5.296892             -8.815568            -0.964432
| 41>   C                    : 3.916509             -3.508539            -1.803295
| 42>   O                    : 4.339217             -4.813427            -1.423874
| 43>   H                    : 5.103131             -4.768572            -0.766740
| 44>   H                    : 4.574510             -3.094460            -2.572110
| 45>   H                    : 2.850939             -3.502246            -2.171347
| 46>   H                    : 3.965013             -2.881718            -0.988602
| 47> *
| 48>
| 49> #Run DFT-D3 single point of the particle with dimer basis set
| 50> $new_job
| 51> %base "19-139_DFT_B"
| 52> ! wB97X-D3 def2-TZVP TIGHTSCF CHELPG PMODEL
| 53>
| 54> %scf
| 55> MaxIter 1000
| 56> end
| 57>
| 58> * xyz 0 1
| 59>   C                    : 4.711834             -8.345417            -1.787665
| 60>   O                    : 4.351505             -9.380712            -2.640933
| 61>   H                    : 4.436691             -10.246070           -2.192788
| 62>   H                    : 5.247250             -7.520029            -2.200052
| 63>   H                    : 3.785953             -7.910492            -1.349305
| 64>   H                    : 5.296892             -8.815568            -0.964432
| 65>   C                      3.916509             -3.508539            -1.803295
| 66>   O                      4.339217             -4.813427            -1.423874
| 67>   H                      5.103131             -4.768572            -0.766740
| 68>   H                      4.574510             -3.094460            -2.572110
| 69>   H                      2.850939             -3.502246            -2.171347
| 70>   H                      3.965013             -2.881718            -0.988602
| 71> *
| 72>
| 73>                          ****END OF INPUT****
 Total Charge           Charge          ....    0
 Multiplicity           Mult            ....    1
 Number of Electrons    NEL             ....   36
Dispersion correction           -0.001267628
FINAL SINGLE POINT ENERGY      -231.461059923356
Dispersion correction           -0.000234336
FINAL SINGLE POINT ENERGY      -115.730152937020

CARTESIAN COORDINATES (ANGSTROEM)
---------------------------------
  C      4.711834   -8.345417   -1.787665
  O      4.351505   -9.380712   -2.640933
  H      4.436691  -10.246070   -2.192788
  H      5.247250   -7.520029   -2.200052
  H      3.785953   -7.910492   -1.349305
  H      5.296892   -8.815568   -0.964432
  C      3.916509   -3.508539   -1.803295
  O      4.339217   -4.813427   -1.423874
  H      5.103131   -4.768572   -0.766740
  H      4.574510   -3.094460   -2.572110
  H      2.850939   -3.502246   -2.171347
  H      3.965013   -2.881718   -0.988602

 Multiplicity           Mult            ....    1
 Number of Electrons    NEL             ....   18
 Basis Dimension        Dim             ....  172

ORBITAL ENERGIES
----------------

  NO   OCC          E(Eh)            E(eV)
   0   2.0000     -19.231729      -523.3220
   1   2.0000     -10.309501      -280.5358
   2   2.0000      -1.122334       -30.5403
   3   2.0000      -0.795329       -21.6420
   4   2.0000      -0.607066       -16.5191
   5   2.0000      -0.541788       -14.7428
   6   2.0000      -0.525205       -14.2916
   7   2.0000      -0.428781       -11.6677
   8   2.0000      -0.371610       -10.1120
   9   0.0000       0.094817         2.5801
  10   0.0000       0.116985         3.1833
  11   0.0000       0.150624         4.0987
  12   0.0000       0.187113         5.0916
  13   0.0000       0.197690         5.3794

MULLIKEN ATOMIC CHARGES
-----------------------
   0 C :    0.005287
   1 O :   -0.000098
   2 H :   -0.000011
   3 H :   -0.007607
   4 H :   -0.003896
   5 H :   -0.000430
   6 C :   -0.160288
   7 O :   -0.479960
   8 H :    0.318355
   9 H :    0.101306
  10 H :    0.117495
  11 H :    0.109847
Sum of atomic charges:   -0.0000000

LOEWDIN ATOMIC CHARGES
----------------------
   0 C :   -0.005187
   1 O :   -0.000029
   2 H :   -0.000010
   3 H :   -0.004500
   4 H :   -0.002450
   5 H :   -0.000038
   6 C :   -0.374862
   7 O :   -0.100101
   8 H :    0.195437
   9 H :    0.095253
  10 H :    0.115886
  11 H :    0.080599

  Mayer bond orders larger than 0.1
B(  6-C ,  7-O ) :   0.9957 B(  6-C ,  9-H ) :   0.9751 B(  6-C , 10-H ) :   0.9712
B(  6-C , 11-H ) :   0.9815 B(  7-O ,  8-H ) :   0.8884

Dispersion correction           -0.000245335
FINAL SINGLE POINT ENERGY      -115.729871334882

DIPOLE MOMENT
-------------
                                X             Y             Z
Electronic contribution:      0.41192      -1.66295       0.41585
Nuclear contribution   :     -0.11062       2.26095      -0.12259
                        -----------------------------------------
Total Dipole Moment    :      0.30130       0.59800       0.29326
                        -----------------------------------------
Magnitude (a.u.)       :      0.73102
Magnitude (Debye)      :      1.85811

Rotational constants in cm-1:     4.322870     0.819408     0.787707
Rotational constants in MHz : 129596.376276 24565.244026 23614.861438

                             ****ORCA TERMINATED NORMALLY****
TOTAL RUN TIME: 0 days 0 hours 0 minutes 45 seconds 445 msec
