                         Program Version 4.1.2  - RELEASE  -
|  1> #Run DFT-D3 single point of the dimer
|  2> ! wB97X-D3 def2-TZVP TIGHTSCF CHELPG PMODEL PAL8
|  3>
|  4> %base "13-181_DFT_AB"
|  5>
|  6> %scf
|  7> MaxIter 1000
|  8> end
|  9>
| 10> * xyz 0 1
| 11>   C                      9.438769             1.972816             6.617335
| 12>   O                      8.623969             3.030773             6.251968
| 13>   H                      8.260408             3.600270             7.019287
| 14>   H                      9.315507             1.715100             7.682329
| 15>   H                      9.288691             1.007495             6.008580
| 16>   H                      10.478213            2.223850             6.555681
| 17>   C                      6.861492             5.774178             7.525657
| 18>   O                      6.956524             4.517735             8.196952
| 19>   H                      6.060962             4.250020             8.503476
| 20>   H                      7.551092             5.818147             6.732101
| 21>   H                      5.883654             5.990460             7.144270
| 22>   H                      7.087526             6.610111             8.264832
| 23> *
| 24>
| 25> #Run DFT-D3 single point of the molecule with dimer basis set
| 26> $new_job
| 27> %base "13-181_DFT_A"
| 28> ! wB97X-D3 def2-TZVP TIGHTSCF CHELPG PMODEL
| 29>
| 30> %scf
| 31> MaxIter 1000
| 32> end
| 33>
| 34> * xyz 0 1
| 35>   C                      9.438769             1.972816             6.617335
| 36>   O                      8.623969             3.030773             6.251968
| 37>   H                      8.260408             3.600270             7.019287
| 38>   H                      9.315507             1.715100             7.682329
| 39>   H                      9.288691             1.007495             6.008580
| 40>   H                      10.478213            2.223850             6.555681
| 41>   C                    : 6.861492             5.774178             7.525657
| 42>   O                    : 6.956524             4.517735             8.196952
| 43>   H                    : 6.060962             4.250020             8.503476
| 44>   H                    : 7.551092             5.818147             6.732101
| 45>   H                    : 5.883654             5.990460             7.144270
| 46>   H                    : 7.087526             6.610111             8.264832
| 47> *
| 48>
| 49> #Run DFT-D3 single point of the particle with dimer basis set
| 50> $new_job
| 51> %base "13-181_DFT_B"
| 52> ! wB97X-D3 def2-TZVP TIGHTSCF CHELPG PMODEL
| 53>
| 54> %scf
| 55> MaxIter 1000
| 56> end
| 57>
| 58> * xyz 0 1
| 59>   C                    : 9.438769             1.972816             6.617335
| 60>   O                    : 8.623969             3.030773             6.251968
| 61>   H                    : 8.260408             3.600270             7.019287
| 62>   H                    : 9.315507             1.715100             7.682329
| 63>   H                    : 9.288691             1.007495             6.008580
| 64>   H                    : 10.478213            2.223850             6.555681
| 65>   C                      6.861492             5.774178             7.525657
| 66>   O                      6.956524             4.517735             8.196952
| 67>   H                      6.060962             4.250020             8.503476
| 68>   H                      7.551092             5.818147             6.732101
| 69>   H                      5.883654             5.990460             7.144270
| 70>   H                      7.087526             6.610111             8.264832
| 71> *
| 72>
| 73>                          ****END OF INPUT****
 Total Charge           Charge          ....    0
 Multiplicity           Mult            ....    1
 Number of Electrons    NEL             ....   36
Dispersion correction           -0.001615301
FINAL SINGLE POINT ENERGY      -231.469154535844
Dispersion correction           -0.000263145
FINAL SINGLE POINT ENERGY      -115.726785818153

CARTESIAN COORDINATES (ANGSTROEM)
---------------------------------
  C      9.438769    1.972816    6.617335
  O      8.623969    3.030773    6.251968
  H      8.260408    3.600270    7.019287
  H      9.315507    1.715100    7.682329
  H      9.288691    1.007495    6.008580
  H     10.478213    2.223850    6.555681
  C      6.861492    5.774178    7.525657
  O      6.956524    4.517735    8.196952
  H      6.060962    4.250020    8.503476
  H      7.551092    5.818147    6.732101
  H      5.883654    5.990460    7.144270
  H      7.087526    6.610111    8.264832

 Multiplicity           Mult            ....    1
 Number of Electrons    NEL             ....   18
 Basis Dimension        Dim             ....  172

ORBITAL ENERGIES
----------------

  NO   OCC          E(Eh)            E(eV)
   0   2.0000     -19.232448      -523.3415
   1   2.0000     -10.312338      -280.6130
   2   2.0000      -1.127242       -30.6738
   3   2.0000      -0.797095       -21.6901
   4   2.0000      -0.609596       -16.5879
   5   2.0000      -0.538445       -14.6518
   6   2.0000      -0.524383       -14.2692
   7   2.0000      -0.438059       -11.9202
   8   2.0000      -0.371451       -10.1077
   9   0.0000       0.098507         2.6805
  10   0.0000       0.118227         3.2171
  11   0.0000       0.151593         4.1251
  12   0.0000       0.184317         5.0155
  13   0.0000       0.198619         5.4047

MULLIKEN ATOMIC CHARGES
-----------------------
   0 C :   -0.000554
   1 O :   -0.003067
   2 H :    0.000964
   3 H :   -0.000935
   4 H :    0.000034
   5 H :   -0.000077
   6 C :   -0.158152
   7 O :   -0.480901
   8 H :    0.316729
   9 H :    0.121907
  10 H :    0.106014
  11 H :    0.098037
Sum of atomic charges:   -0.0000000

LOEWDIN ATOMIC CHARGES
----------------------
   0 C :   -0.001169
   1 O :   -0.004381
   2 H :   -0.034920
   3 H :   -0.000340
   4 H :   -0.000006
   5 H :   -0.000016
   6 C :   -0.366424
   7 O :   -0.067022
   8 H :    0.181471
   9 H :    0.096563
  10 H :    0.091271
  11 H :    0.104974

  Mayer bond orders larger than 0.1
B(  6-C ,  7-O ) :   0.9946 B(  6-C ,  9-H ) :   0.9792 B(  6-C , 10-H ) :   0.9779
B(  6-C , 11-H ) :   0.9759 B(  7-O ,  8-H ) :   0.8941

Dispersion correction           -0.000254314
FINAL SINGLE POINT ENERGY      -115.733391715137

DIPOLE MOMENT
-------------
                                X             Y             Z
Electronic contribution:      0.25594      -1.66233       0.70624
Nuclear contribution   :     -0.88451       1.99420      -0.80859
                        -----------------------------------------
Total Dipole Moment    :     -0.62857       0.33187      -0.10235
                        -----------------------------------------
Magnitude (a.u.)       :      0.71813
Magnitude (Debye)      :      1.82534

Rotational constants in cm-1:     4.310856     0.814265     0.788542
Rotational constants in MHz : 129236.196672 24411.060193 23639.891584

                             ****ORCA TERMINATED NORMALLY****
TOTAL RUN TIME: 0 days 0 hours 1 minutes 14 seconds 9 msec
