                         Program Version 4.1.2  - RELEASE  -
|  1> #Run DFT-D3 single point of the dimer
|  2> ! wB97X-D3 def2-TZVP TIGHTSCF CHELPG PMODEL PAL8
|  3>
|  4> %base "6-50_DFT_AB"
|  5>
|  6> %scf
|  7> MaxIter 1000
|  8> end
|  9>
| 10> * xyz 0 1
| 11>   C                      -8.291909            -9.824663            -9.417989
| 12>   O                      -7.835395            -10.309451           -10.671300
| 13>   H                      -6.842935            -10.248512           -10.710201
| 14>   H                      -8.071282            -8.713678            -9.406191
| 15>   H                      -9.310220            -9.973369            -9.239578
| 16>   H                      -7.730536            -10.313792           -8.609002
| 17>   C                      -8.445493            -8.970130            -4.854206
| 18>   O                      -8.017802            -7.780102            -4.192858
| 19>   H                      -7.371794            -8.082310            -3.518202
| 20>   H                      -7.667037            -9.755791            -4.931403
| 21>   H                      -9.267876            -9.327560            -4.164710
| 22>   H                      -8.935685            -8.943218            -5.800736
| 23> *
| 24>
| 25> #Run DFT-D3 single point of the molecule with dimer basis set
| 26> $new_job
| 27> %base "6-50_DFT_A"
| 28> ! wB97X-D3 def2-TZVP TIGHTSCF CHELPG PMODEL
| 29>
| 30> %scf
| 31> MaxIter 1000
| 32> end
| 33>
| 34> * xyz 0 1
| 35>   C                      -8.291909            -9.824663            -9.417989
| 36>   O                      -7.835395            -10.309451           -10.671300
| 37>   H                      -6.842935            -10.248512           -10.710201
| 38>   H                      -8.071282            -8.713678            -9.406191
| 39>   H                      -9.310220            -9.973369            -9.239578
| 40>   H                      -7.730536            -10.313792           -8.609002
| 41>   C                    : -8.445493            -8.970130            -4.854206
| 42>   O                    : -8.017802            -7.780102            -4.192858
| 43>   H                    : -7.371794            -8.082310            -3.518202
| 44>   H                    : -7.667037            -9.755791            -4.931403
| 45>   H                    : -9.267876            -9.327560            -4.164710
| 46>   H                    : -8.935685            -8.943218            -5.800736
| 47> *
| 48>
| 49> #Run DFT-D3 single point of the particle with dimer basis set
| 50> $new_job
| 51> %base "6-50_DFT_B"
| 52> ! wB97X-D3 def2-TZVP TIGHTSCF CHELPG PMODEL
| 53>
| 54> %scf
| 55> MaxIter 1000
| 56> end
| 57>
| 58> * xyz 0 1
| 59>   C                    : -8.291909            -9.824663            -9.417989
| 60>   O                    : -7.835395            -10.309451           -10.671300
| 61>   H                    : -6.842935            -10.248512           -10.710201
| 62>   H                    : -8.071282            -8.713678            -9.406191
| 63>   H                    : -9.310220            -9.973369            -9.239578
| 64>   H                    : -7.730536            -10.313792           -8.609002
| 65>   C                      -8.445493            -8.970130            -4.854206
| 66>   O                      -8.017802            -7.780102            -4.192858
| 67>   H                      -7.371794            -8.082310            -3.518202
| 68>   H                      -7.667037            -9.755791            -4.931403
| 69>   H                      -9.267876            -9.327560            -4.164710
| 70>   H                      -8.935685            -8.943218            -5.800736
| 71> *
| 72>
| 73>                          ****END OF INPUT****
 Total Charge           Charge          ....    0
 Multiplicity           Mult            ....    1
 Number of Electrons    NEL             ....   36
Dispersion correction           -0.000942637
FINAL SINGLE POINT ENERGY      -231.456579068795
Dispersion correction           -0.000234114
FINAL SINGLE POINT ENERGY      -115.731237922639

CARTESIAN COORDINATES (ANGSTROEM)
---------------------------------
  C     -8.291909   -9.824663   -9.417989
  O     -7.835395  -10.309451  -10.671300
  H     -6.842935  -10.248512  -10.710201
  H     -8.071282   -8.713678   -9.406191
  H     -9.310220   -9.973369   -9.239578
  H     -7.730536  -10.313792   -8.609002
  C     -8.445493   -8.970130   -4.854206
  O     -8.017802   -7.780102   -4.192858
  H     -7.371794   -8.082310   -3.518202
  H     -7.667037   -9.755791   -4.931403
  H     -9.267876   -9.327560   -4.164710
  H     -8.935685   -8.943218   -5.800736

 Multiplicity           Mult            ....    1
 Number of Electrons    NEL             ....   18
 Basis Dimension        Dim             ....  172

ORBITAL ENERGIES
----------------

  NO   OCC          E(Eh)            E(eV)
   0   2.0000     -19.233446      -523.3687
   1   2.0000     -10.317079      -280.7420
   2   2.0000      -1.130881       -30.7728
   3   2.0000      -0.793273       -21.5861
   4   2.0000      -0.604756       -16.4562
   5   2.0000      -0.537353       -14.6221
   6   2.0000      -0.531799       -14.4710
   7   2.0000      -0.434977       -11.8363
   8   2.0000      -0.366645        -9.9769
   9   0.0000       0.082330         2.2403
  10   0.0000       0.111431         3.0322
  11   0.0000       0.140517         3.8237
  12   0.0000       0.169945         4.6244
  13   0.0000       0.184621         5.0238

MULLIKEN ATOMIC CHARGES
-----------------------
   0 C :    0.000388
   1 O :   -0.000007
   2 H :   -0.000002
   3 H :   -0.000063
   4 H :   -0.000110
   5 H :   -0.000644
   6 C :   -0.192202
   7 O :   -0.468478
   8 H :    0.321396
   9 H :    0.105357
  10 H :    0.104318
  11 H :    0.130049
Sum of atomic charges:   -0.0000000

LOEWDIN ATOMIC CHARGES
----------------------
   0 C :   -0.000737
   1 O :   -0.000005
   2 H :   -0.000001
   3 H :   -0.000065
   4 H :   -0.000105
   5 H :   -0.000342
   6 C :   -0.388338
   7 O :   -0.098769
   8 H :    0.185526
   9 H :    0.097721
  10 H :    0.105210
  11 H :    0.099906

  Mayer bond orders larger than 0.1
B(  6-C ,  7-O ) :   0.9954 B(  6-C ,  9-H ) :   0.9756 B(  6-C , 10-H ) :   0.9894
B(  6-C , 11-H ) :   0.9680 B(  7-O ,  8-H ) :   0.8943

Dispersion correction           -0.000243911
FINAL SINGLE POINT ENERGY      -115.724940858413

DIPOLE MOMENT
-------------
                                X             Y             Z
Electronic contribution:      0.58619       1.75416       0.55265
Nuclear contribution   :     -0.35596      -2.40821      -0.41321
                        -----------------------------------------
Total Dipole Moment    :      0.23023      -0.65405       0.13943
                        -----------------------------------------
Magnitude (a.u.)       :      0.70727
Magnitude (Debye)      :      1.79773

Rotational constants in cm-1:     4.309664     0.812741     0.784176
Rotational constants in MHz : 129200.491099 24365.375399 23509.003510

                             ****ORCA TERMINATED NORMALLY****
TOTAL RUN TIME: 0 days 0 hours 0 minutes 52 seconds 578 msec
