                         Program Version 4.1.2  - RELEASE  -
|  1> #Run DFT-D3 single point of the dimer
|  2> ! wB97X-D3 def2-TZVP TIGHTSCF CHELPG PMODEL PAL8
|  3>
|  4> %base "13-50_DFT_AB"
|  5>
|  6> %scf
|  7> MaxIter 1000
|  8> end
|  9>
| 10> * xyz 0 1
| 11>   C                      8.962663             8.231957             5.425827
| 12>   O                      9.949730             9.224172             5.452284
| 13>   H                      10.724420            8.779643             5.024574
| 14>   H                      9.107767             7.617741             6.368248
| 15>   H                      7.926964             8.624352             5.397204
| 16>   H                      9.010763             7.567590             4.507931
| 17>   C                      6.065520             6.820496             3.350757
| 18>   O                      5.557544             5.519585             3.128299
| 19>   H                      5.541761             5.251409             2.194050
| 20>   H                      6.034227             7.196697             4.359763
| 21>   H                      7.174992             6.845973             3.143740
| 22>   H                      5.535883             7.584865             2.777882
| 23> *
| 24>
| 25> #Run DFT-D3 single point of the molecule with dimer basis set
| 26> $new_job
| 27> %base "13-50_DFT_A"
| 28> ! wB97X-D3 def2-TZVP TIGHTSCF CHELPG PMODEL
| 29>
| 30> %scf
| 31> MaxIter 1000
| 32> end
| 33>
| 34> * xyz 0 1
| 35>   C                      8.962663             8.231957             5.425827
| 36>   O                      9.949730             9.224172             5.452284
| 37>   H                      10.724420            8.779643             5.024574
| 38>   H                      9.107767             7.617741             6.368248
| 39>   H                      7.926964             8.624352             5.397204
| 40>   H                      9.010763             7.567590             4.507931
| 41>   C                    : 6.065520             6.820496             3.350757
| 42>   O                    : 5.557544             5.519585             3.128299
| 43>   H                    : 5.541761             5.251409             2.194050
| 44>   H                    : 6.034227             7.196697             4.359763
| 45>   H                    : 7.174992             6.845973             3.143740
| 46>   H                    : 5.535883             7.584865             2.777882
| 47> *
| 48>
| 49> #Run DFT-D3 single point of the particle with dimer basis set
| 50> $new_job
| 51> %base "13-50_DFT_B"
| 52> ! wB97X-D3 def2-TZVP TIGHTSCF CHELPG PMODEL
| 53>
| 54> %scf
| 55> MaxIter 1000
| 56> end
| 57>
| 58> * xyz 0 1
| 59>   C                    : 8.962663             8.231957             5.425827
| 60>   O                    : 9.949730             9.224172             5.452284
| 61>   H                    : 10.724420            8.779643             5.024574
| 62>   H                    : 9.107767             7.617741             6.368248
| 63>   H                    : 7.926964             8.624352             5.397204
| 64>   H                    : 9.010763             7.567590             4.507931
| 65>   C                      6.065520             6.820496             3.350757
| 66>   O                      5.557544             5.519585             3.128299
| 67>   H                      5.541761             5.251409             2.194050
| 68>   H                      6.034227             7.196697             4.359763
| 69>   H                      7.174992             6.845973             3.143740
| 70>   H                      5.535883             7.584865             2.777882
| 71> *
| 72>
| 73>                          ****END OF INPUT****
 Total Charge           Charge          ....    0
 Multiplicity           Mult            ....    1
 Number of Electrons    NEL             ....   36
Dispersion correction           -0.001501030
FINAL SINGLE POINT ENERGY      -231.461972995124
Dispersion correction           -0.000239272
FINAL SINGLE POINT ENERGY      -115.730654438100

CARTESIAN COORDINATES (ANGSTROEM)
---------------------------------
  C      8.962663    8.231957    5.425827
  O      9.949730    9.224172    5.452284
  H     10.724420    8.779643    5.024574
  H      9.107767    7.617741    6.368248
  H      7.926964    8.624352    5.397204
  H      9.010763    7.567590    4.507931
  C      6.065520    6.820496    3.350757
  O      5.557544    5.519585    3.128299
  H      5.541761    5.251409    2.194050
  H      6.034227    7.196697    4.359763
  H      7.174992    6.845973    3.143740
  H      5.535883    7.584865    2.777882

 Multiplicity           Mult            ....    1
 Number of Electrons    NEL             ....   18
 Basis Dimension        Dim             ....  172

ORBITAL ENERGIES
----------------

  NO   OCC          E(Eh)            E(eV)
   0   2.0000     -19.230529      -523.2893
   1   2.0000     -10.315589      -280.7014
   2   2.0000      -1.130131       -30.7524
   3   2.0000      -0.798294       -21.7227
   4   2.0000      -0.609541       -16.5865
   5   2.0000      -0.540965       -14.7204
   6   2.0000      -0.530971       -14.4485
   7   2.0000      -0.419805       -11.4235
   8   2.0000      -0.373149       -10.1539
   9   0.0000       0.085743         2.3332
  10   0.0000       0.116295         3.1645
  11   0.0000       0.147303         4.0083
  12   0.0000       0.176771         4.8102
  13   0.0000       0.186443         5.0734

MULLIKEN ATOMIC CHARGES
-----------------------
   0 C :   -0.002691
   1 O :   -0.000043
   2 H :   -0.000026
   3 H :    0.000045
   4 H :    0.000415
   5 H :    0.000147
   6 C :   -0.155096
   7 O :   -0.488265
   8 H :    0.323441
   9 H :    0.124581
  10 H :    0.097989
  11 H :    0.099503
Sum of atomic charges:    0.0000000

LOEWDIN ATOMIC CHARGES
----------------------
   0 C :   -0.004611
   1 O :   -0.000017
   2 H :   -0.000003
   3 H :   -0.000044
   4 H :   -0.001987
   5 H :   -0.004795
   6 C :   -0.386879
   7 O :   -0.084195
   8 H :    0.176836
   9 H :    0.106710
  10 H :    0.104691
  11 H :    0.094294

  Mayer bond orders larger than 0.1
B(  6-C ,  7-O ) :   0.9978 B(  6-C ,  9-H ) :   0.9688 B(  6-C , 10-H ) :   0.9813
B(  6-C , 11-H ) :   0.9730 B(  7-O ,  8-H ) :   0.8881

Dispersion correction           -0.000269726
FINAL SINGLE POINT ENERGY      -115.730932261371

DIPOLE MOMENT
-------------
                                X             Y             Z
Electronic contribution:     -0.78836      -1.73318      -0.14852
Nuclear contribution   :      0.96839       2.09763      -0.34512
                        -----------------------------------------
Total Dipole Moment    :      0.18002       0.36445      -0.49364
                        -----------------------------------------
Magnitude (a.u.)       :      0.63946
Magnitude (Debye)      :      1.62538

Rotational constants in cm-1:     4.461680     0.804993     0.790033
Rotational constants in MHz : 133757.787523 24133.076222 23684.578931

                             ****ORCA TERMINATED NORMALLY****
TOTAL RUN TIME: 0 days 0 hours 1 minutes 8 seconds 657 msec
