                         Program Version 4.1.2  - RELEASE  -
|  1> #Run DFT-D3 single point of the dimer
|  2> ! wB97X-D3 def2-TZVP TIGHTSCF CHELPG PMODEL PAL8
|  3>
|  4> %base "7-115_DFT_AB"
|  5>
|  6> %scf
|  7> MaxIter 1000
|  8> end
|  9>
| 10> * xyz 0 1
| 11>   C                      8.231847             4.812904             2.218231
| 12>   O                      7.857317             4.358539             3.507066
| 13>   H                      8.511085             3.740002             3.820354
| 14>   H                      9.259510             4.563071             1.868465
| 15>   H                      7.425748             4.418321             1.520043
| 16>   H                      8.132544             5.888729             2.119775
| 17>   C                      5.305242             7.472009             1.861864
| 18>   O                      6.199992             8.212790             2.567288
| 19>   H                      5.975370             9.196190             2.499247
| 20>   H                      4.443922             7.265338             2.520954
| 21>   H                      5.093631             7.957993             0.872282
| 22>   H                      5.719928             6.478794             1.738003
| 23> *
| 24>
| 25> #Run DFT-D3 single point of the molecule with dimer basis set
| 26> $new_job
| 27> %base "7-115_DFT_A"
| 28> ! wB97X-D3 def2-TZVP TIGHTSCF CHELPG PMODEL
| 29>
| 30> %scf
| 31> MaxIter 1000
| 32> end
| 33>
| 34> * xyz 0 1
| 35>   C                      8.231847             4.812904             2.218231
| 36>   O                      7.857317             4.358539             3.507066
| 37>   H                      8.511085             3.740002             3.820354
| 38>   H                      9.259510             4.563071             1.868465
| 39>   H                      7.425748             4.418321             1.520043
| 40>   H                      8.132544             5.888729             2.119775
| 41>   C                    : 5.305242             7.472009             1.861864
| 42>   O                    : 6.199992             8.212790             2.567288
| 43>   H                    : 5.975370             9.196190             2.499247
| 44>   H                    : 4.443922             7.265338             2.520954
| 45>   H                    : 5.093631             7.957993             0.872282
| 46>   H                    : 5.719928             6.478794             1.738003
| 47> *
| 48>
| 49> #Run DFT-D3 single point of the particle with dimer basis set
| 50> $new_job
| 51> %base "7-115_DFT_B"
| 52> ! wB97X-D3 def2-TZVP TIGHTSCF CHELPG PMODEL
| 53>
| 54> %scf
| 55> MaxIter 1000
| 56> end
| 57>
| 58> * xyz 0 1
| 59>   C                    : 8.231847             4.812904             2.218231
| 60>   O                    : 7.857317             4.358539             3.507066
| 61>   H                    : 8.511085             3.740002             3.820354
| 62>   H                    : 9.259510             4.563071             1.868465
| 63>   H                    : 7.425748             4.418321             1.520043
| 64>   H                    : 8.132544             5.888729             2.119775
| 65>   C                      5.305242             7.472009             1.861864
| 66>   O                      6.199992             8.212790             2.567288
| 67>   H                      5.975370             9.196190             2.499247
| 68>   H                      4.443922             7.265338             2.520954
| 69>   H                      5.093631             7.957993             0.872282
| 70>   H                      5.719928             6.478794             1.738003
| 71> *
| 72>
| 73>                          ****END OF INPUT****
 Total Charge           Charge          ....    0
 Multiplicity           Mult            ....    1
 Number of Electrons    NEL             ....   36
Dispersion correction           -0.001576198
FINAL SINGLE POINT ENERGY      -231.461055898159
Dispersion correction           -0.000266412
FINAL SINGLE POINT ENERGY      -115.731932603008

CARTESIAN COORDINATES (ANGSTROEM)
---------------------------------
  C      8.231847    4.812904    2.218231
  O      7.857317    4.358539    3.507066
  H      8.511085    3.740002    3.820354
  H      9.259510    4.563071    1.868465
  H      7.425748    4.418321    1.520043
  H      8.132544    5.888729    2.119775
  C      5.305242    7.472009    1.861864
  O      6.199992    8.212790    2.567288
  H      5.975370    9.196190    2.499247
  H      4.443922    7.265338    2.520954
  H      5.093631    7.957993    0.872282
  H      5.719928    6.478794    1.738003

 Multiplicity           Mult            ....    1
 Number of Electrons    NEL             ....   18
 Basis Dimension        Dim             ....  172

ORBITAL ENERGIES
----------------

  NO   OCC          E(Eh)            E(eV)
   0   2.0000     -19.230109      -523.2779
   1   2.0000     -10.309321      -280.5309
   2   2.0000      -1.143630       -31.1198
   3   2.0000      -0.786380       -21.3985
   4   2.0000      -0.608141       -16.5484
   5   2.0000      -0.552886       -15.0448
   6   2.0000      -0.533524       -14.5179
   7   2.0000      -0.421543       -11.4708
   8   2.0000      -0.365080        -9.9343
   9   0.0000       0.092898         2.5279
  10   0.0000       0.110626         3.0103
  11   0.0000       0.155306         4.2261
  12   0.0000       0.174540         4.7495
  13   0.0000       0.193616         5.2686

MULLIKEN ATOMIC CHARGES
-----------------------
   0 C :    0.001613
   1 O :   -0.000266
   2 H :   -0.000009
   3 H :    0.000151
   4 H :   -0.000917
   5 H :   -0.000769
   6 C :   -0.145115
   7 O :   -0.465802
   8 H :    0.318190
   9 H :    0.091838
  10 H :    0.094051
  11 H :    0.107036
Sum of atomic charges:   -0.0000000

LOEWDIN ATOMIC CHARGES
----------------------
   0 C :   -0.004301
   1 O :   -0.000038
   2 H :   -0.000006
   3 H :   -0.000024
   4 H :   -0.001693
   5 H :   -0.002667
   6 C :   -0.433817
   7 O :   -0.059608
   8 H :    0.200356
   9 H :    0.095440
  10 H :    0.099850
  11 H :    0.106507

  Mayer bond orders larger than 0.1
B(  6-C ,  7-O ) :   1.0162 B(  6-C ,  9-H ) :   0.9800 B(  6-C , 10-H ) :   0.9826
B(  6-C , 11-H ) :   0.9751 B(  7-O ,  8-H ) :   0.8867

Dispersion correction           -0.000223324
FINAL SINGLE POINT ENERGY      -115.728260564118

DIPOLE MOMENT
-------------
                                X             Y             Z
Electronic contribution:      1.21911       0.89004       0.87292
Nuclear contribution   :     -1.66020      -0.55449      -1.16656
                        -----------------------------------------
Total Dipole Moment    :     -0.44108       0.33555      -0.29364
                        -----------------------------------------
Magnitude (a.u.)       :      0.62719
Magnitude (Debye)      :      1.59419

Rotational constants in cm-1:     4.102802     0.890144     0.852681
Rotational constants in MHz : 122998.924417 26685.848089 25562.719108

                             ****ORCA TERMINATED NORMALLY****
TOTAL RUN TIME: 0 days 0 hours 1 minutes 14 seconds 38 msec
