                         Program Version 4.1.2  - RELEASE  -
|  1> #Run DFT-D3 single point of the dimer
|  2> ! wB97X-D3 def2-TZVP TIGHTSCF CHELPG PMODEL PAL8
|  3>
|  4> %base "20-110_DFT_AB"
|  5>
|  6> %scf
|  7> MaxIter 1000
|  8> end
|  9>
| 10> * xyz 0 1
| 11>   C                      8.561412             8.547478             4.824897
| 12>   O                      9.910336             8.738627             5.198127
| 13>   H                      10.345457            7.856624             5.169852
| 14>   H                      8.078113             7.916050             5.563454
| 15>   H                      7.927140             9.450870             4.820817
| 16>   H                      8.344884             8.088721             3.855047
| 17>   C                      9.477048             10.195755            0.693881
| 18>   O                      10.597564            9.537527             1.197290
| 19>   H                      10.687828            9.931837             2.084482
| 20>   H                      8.887491             10.779807            1.488048
| 21>   H                      9.691043             10.774447            -0.190741
| 22>   H                      8.744447             9.525715             0.349245
| 23> *
| 24>
| 25> #Run DFT-D3 single point of the molecule with dimer basis set
| 26> $new_job
| 27> %base "20-110_DFT_A"
| 28> ! wB97X-D3 def2-TZVP TIGHTSCF CHELPG PMODEL
| 29>
| 30> %scf
| 31> MaxIter 1000
| 32> end
| 33>
| 34> * xyz 0 1
| 35>   C                      8.561412             8.547478             4.824897
| 36>   O                      9.910336             8.738627             5.198127
| 37>   H                      10.345457            7.856624             5.169852
| 38>   H                      8.078113             7.916050             5.563454
| 39>   H                      7.927140             9.450870             4.820817
| 40>   H                      8.344884             8.088721             3.855047
| 41>   C                    : 9.477048             10.195755            0.693881
| 42>   O                    : 10.597564            9.537527             1.197290
| 43>   H                    : 10.687828            9.931837             2.084482
| 44>   H                    : 8.887491             10.779807            1.488048
| 45>   H                    : 9.691043             10.774447            -0.190741
| 46>   H                    : 8.744447             9.525715             0.349245
| 47> *
| 48>
| 49> #Run DFT-D3 single point of the particle with dimer basis set
| 50> $new_job
| 51> %base "20-110_DFT_B"
| 52> ! wB97X-D3 def2-TZVP TIGHTSCF CHELPG PMODEL
| 53>
| 54> %scf
| 55> MaxIter 1000
| 56> end
| 57>
| 58> * xyz 0 1
| 59>   C                    : 8.561412             8.547478             4.824897
| 60>   O                    : 9.910336             8.738627             5.198127
| 61>   H                    : 10.345457            7.856624             5.169852
| 62>   H                    : 8.078113             7.916050             5.563454
| 63>   H                    : 7.927140             9.450870             4.820817
| 64>   H                    : 8.344884             8.088721             3.855047
| 65>   C                      9.477048             10.195755            0.693881
| 66>   O                      10.597564            9.537527             1.197290
| 67>   H                      10.687828            9.931837             2.084482
| 68>   H                      8.887491             10.779807            1.488048
| 69>   H                      9.691043             10.774447            -0.190741
| 70>   H                      8.744447             9.525715             0.349245
| 71> *
| 72>
| 73>                          ****END OF INPUT****
 Total Charge           Charge          ....    0
 Multiplicity           Mult            ....    1
 Number of Electrons    NEL             ....   36
Dispersion correction           -0.001354480
FINAL SINGLE POINT ENERGY      -231.463093557919
Dispersion correction           -0.000255533
FINAL SINGLE POINT ENERGY      -115.732084816944

CARTESIAN COORDINATES (ANGSTROEM)
---------------------------------
  C      8.561412    8.547478    4.824897
  O      9.910336    8.738627    5.198127
  H     10.345457    7.856624    5.169852
  H      8.078113    7.916050    5.563454
  H      7.927140    9.450870    4.820817
  H      8.344884    8.088721    3.855047
  C      9.477048   10.195755    0.693881
  O     10.597564    9.537527    1.197290
  H     10.687828    9.931837    2.084482
  H      8.887491   10.779807    1.488048
  H      9.691043   10.774447   -0.190741
  H      8.744447    9.525715    0.349245

 Multiplicity           Mult            ....    1
 Number of Electrons    NEL             ....   18
 Basis Dimension        Dim             ....  172

ORBITAL ENERGIES
----------------

  NO   OCC          E(Eh)            E(eV)
   0   2.0000     -19.235466      -523.4236
   1   2.0000     -10.310233      -280.5557
   2   2.0000      -1.144912       -31.1546
   3   2.0000      -0.794759       -21.6265
   4   2.0000      -0.611928       -16.6514
   5   2.0000      -0.542865       -14.7721
   6   2.0000      -0.534127       -14.5343
   7   2.0000      -0.435596       -11.8532
   8   2.0000      -0.373263       -10.1570
   9   0.0000       0.072992         1.9862
  10   0.0000       0.123045         3.3482
  11   0.0000       0.142365         3.8739
  12   0.0000       0.171657         4.6710
  13   0.0000       0.181994         4.9523

MULLIKEN ATOMIC CHARGES
-----------------------
   0 C :   -0.001424
   1 O :    0.000165
   2 H :   -0.000023
   3 H :   -0.000109
   4 H :   -0.000005
   5 H :   -0.000572
   6 C :   -0.184564
   7 O :   -0.459565
   8 H :    0.322935
   9 H :    0.096644
  10 H :    0.112667
  11 H :    0.113851
Sum of atomic charges:   -0.0000000

LOEWDIN ATOMIC CHARGES
----------------------
   0 C :   -0.001374
   1 O :   -0.000245
   2 H :   -0.000111
   3 H :   -0.000044
   4 H :   -0.000084
   5 H :   -0.000515
   6 C :   -0.411614
   7 O :   -0.065197
   8 H :    0.185674
   9 H :    0.106561
  10 H :    0.096026
  11 H :    0.090923

  Mayer bond orders larger than 0.1
B(  6-C ,  7-O ) :   1.0127 B(  6-C ,  9-H ) :   0.9872 B(  6-C , 10-H ) :   0.9780
B(  6-C , 11-H ) :   0.9762 B(  7-O ,  8-H ) :   0.8978

Dispersion correction           -0.000241005
FINAL SINGLE POINT ENERGY      -115.728253314151

DIPOLE MOMENT
-------------
                                X             Y             Z
Electronic contribution:      1.62948      -0.95267       0.51230
Nuclear contribution   :     -2.00719       1.41602      -0.15636
                        -----------------------------------------
Total Dipole Moment    :     -0.37771       0.46335       0.35594
                        -----------------------------------------
Magnitude (a.u.)       :      0.69574
Magnitude (Debye)      :      1.76842

Rotational constants in cm-1:     4.317347     0.856404     0.810659
Rotational constants in MHz : 129430.792014 25674.341286 24302.946686

                             ****ORCA TERMINATED NORMALLY****
TOTAL RUN TIME: 0 days 0 hours 1 minutes 6 seconds 960 msec
