                         Program Version 4.1.2  - RELEASE  -
|  1> #Run DFT-D3 single point of the dimer
|  2> ! wB97X-D3 def2-TZVP TIGHTSCF CHELPG PMODEL PAL8
|  3>
|  4> %base "12-165_DFT_AB"
|  5>
|  6> %scf
|  7> MaxIter 1000
|  8> end
|  9>
| 10> * xyz 0 1
| 11>   C                      6.473592             9.706864             -10.771290
| 12>   O                      7.685691             9.380644             -11.309980
| 13>   H                      8.111181             8.755592             -10.815954
| 14>   H                      5.928419             10.423833            -11.402221
| 15>   H                      5.814521             8.813682             -10.683049
| 16>   H                      6.546990             10.228248            -9.831830
| 17>   C                      9.145848             8.446016             -8.697096
| 18>   O                      9.313922             7.626189             -9.795681
| 19>   H                      10.268414            7.654718             -9.918647
| 20>   H                      8.206314             8.395980             -8.233170
| 21>   H                      9.898711             8.080547             -7.931521
| 22>   H                      9.374946             9.509119             -8.878427
| 23> *
| 24>
| 25> #Run DFT-D3 single point of the molecule with dimer basis set
| 26> $new_job
| 27> %base "12-165_DFT_A"
| 28> ! wB97X-D3 def2-TZVP TIGHTSCF CHELPG PMODEL
| 29>
| 30> %scf
| 31> MaxIter 1000
| 32> end
| 33>
| 34> * xyz 0 1
| 35>   C                      6.473592             9.706864             -10.771290
| 36>   O                      7.685691             9.380644             -11.309980
| 37>   H                      8.111181             8.755592             -10.815954
| 38>   H                      5.928419             10.423833            -11.402221
| 39>   H                      5.814521             8.813682             -10.683049
| 40>   H                      6.546990             10.228248            -9.831830
| 41>   C                    : 9.145848             8.446016             -8.697096
| 42>   O                    : 9.313922             7.626189             -9.795681
| 43>   H                    : 10.268414            7.654718             -9.918647
| 44>   H                    : 8.206314             8.395980             -8.233170
| 45>   H                    : 9.898711             8.080547             -7.931521
| 46>   H                    : 9.374946             9.509119             -8.878427
| 47> *
| 48>
| 49> #Run DFT-D3 single point of the particle with dimer basis set
| 50> $new_job
| 51> %base "12-165_DFT_B"
| 52> ! wB97X-D3 def2-TZVP TIGHTSCF CHELPG PMODEL
| 53>
| 54> %scf
| 55> MaxIter 1000
| 56> end
| 57>
| 58> * xyz 0 1
| 59>   C                    : 6.473592             9.706864             -10.771290
| 60>   O                    : 7.685691             9.380644             -11.309980
| 61>   H                    : 8.111181             8.755592             -10.815954
| 62>   H                    : 5.928419             10.423833            -11.402221
| 63>   H                    : 5.814521             8.813682             -10.683049
| 64>   H                    : 6.546990             10.228248            -9.831830
| 65>   C                      9.145848             8.446016             -8.697096
| 66>   O                      9.313922             7.626189             -9.795681
| 67>   H                      10.268414            7.654718             -9.918647
| 68>   H                      8.206314             8.395980             -8.233170
| 69>   H                      9.898711             8.080547             -7.931521
| 70>   H                      9.374946             9.509119             -8.878427
| 71> *
| 72>
| 73>                          ****END OF INPUT****
 Total Charge           Charge          ....    0
 Multiplicity           Mult            ....    1
 Number of Electrons    NEL             ....   36
Dispersion correction           -0.002118925
FINAL SINGLE POINT ENERGY      -231.468411797689
Dispersion correction           -0.000228099
FINAL SINGLE POINT ENERGY      -115.732089282167

CARTESIAN COORDINATES (ANGSTROEM)
---------------------------------
  C      6.473592    9.706864  -10.771290
  O      7.685691    9.380644  -11.309980
  H      8.111181    8.755592  -10.815954
  H      5.928419   10.423833  -11.402221
  H      5.814521    8.813682  -10.683049
  H      6.546990   10.228248   -9.831830
  C      9.145848    8.446016   -8.697096
  O      9.313922    7.626189   -9.795681
  H     10.268414    7.654718   -9.918647
  H      8.206314    8.395980   -8.233170
  H      9.898711    8.080547   -7.931521
  H      9.374946    9.509119   -8.878427

 Multiplicity           Mult            ....    1
 Number of Electrons    NEL             ....   18
 Basis Dimension        Dim             ....  172

ORBITAL ENERGIES
----------------

  NO   OCC          E(Eh)            E(eV)
   0   2.0000     -19.233651      -523.3743
   1   2.0000     -10.311390      -280.5872
   2   2.0000      -1.152479       -31.3605
   3   2.0000      -0.792375       -21.5616
   4   2.0000      -0.615887       -16.7591
   5   2.0000      -0.543644       -14.7933
   6   2.0000      -0.541806       -14.7433
   7   2.0000      -0.436451       -11.8764
   8   2.0000      -0.370479       -10.0812
   9   0.0000       0.092602         2.5198
  10   0.0000       0.120901         3.2899
  11   0.0000       0.156225         4.2511
  12   0.0000       0.184694         5.0258
  13   0.0000       0.193777         5.2729

MULLIKEN ATOMIC CHARGES
-----------------------
   0 C :    0.001473
   1 O :   -0.003309
   2 H :   -0.001397
   3 H :    0.000044
   4 H :   -0.000390
   5 H :   -0.000661
   6 C :   -0.185960
   7 O :   -0.457334
   8 H :    0.318989
   9 H :    0.127296
  10 H :    0.099942
  11 H :    0.101307
Sum of atomic charges:   -0.0000000

LOEWDIN ATOMIC CHARGES
----------------------
   0 C :   -0.003410
   1 O :   -0.006860
   2 H :   -0.039915
   3 H :   -0.000013
   4 H :   -0.000089
   5 H :   -0.001046
   6 C :   -0.407157
   7 O :   -0.019769
   8 H :    0.180208
   9 H :    0.098157
  10 H :    0.103544
  11 H :    0.096350

  Mayer bond orders larger than 0.1
B(  6-C ,  7-O ) :   0.9824 B(  6-C ,  9-H ) :   0.9743 B(  6-C , 10-H ) :   0.9859
B(  6-C , 11-H ) :   0.9742 B(  7-O ,  8-H ) :   0.8981

Dispersion correction           -0.000208073
FINAL SINGLE POINT ENERGY      -115.730346004769

DIPOLE MOMENT
-------------
                                X             Y             Z
Electronic contribution:     -0.13295      -1.10985      -1.57144
Nuclear contribution   :      0.64120       1.41232       1.90825
                        -----------------------------------------
Total Dipole Moment    :      0.50825       0.30246       0.33682
                        -----------------------------------------
Magnitude (a.u.)       :      0.68062
Magnitude (Debye)      :      1.73001

Rotational constants in cm-1:     4.277911     0.867722     0.836297
Rotational constants in MHz : 128248.552043 26013.664268 25071.547036

                             ****ORCA TERMINATED NORMALLY****
TOTAL RUN TIME: 0 days 0 hours 1 minutes 17 seconds 95 msec
