                         Program Version 4.1.2  - RELEASE  -
|  1> #Run DFT-D3 single point of the dimer
|  2> ! wB97X-D3 def2-TZVP TIGHTSCF CHELPG PMODEL PAL8
|  3>
|  4> %base "13-178_DFT_AB"
|  5>
|  6> %scf
|  7> MaxIter 1000
|  8> end
|  9>
| 10> * xyz 0 1
| 11>   C                      5.169243             -9.493771            5.503406
| 12>   O                      3.942726             -9.233860            4.939729
| 13>   H                      3.428846             -8.678624            5.570812
| 14>   H                      5.209470             -9.584556            6.578923
| 15>   H                      5.409796             -10.512706           5.172332
| 16>   H                      5.951064             -8.839104            5.193346
| 17>   C                      3.340212             -5.103759            4.722729
| 18>   O                      4.198028             -6.160828            5.112848
| 19>   H                      3.740715             -6.406466            5.979021
| 20>   H                      3.726197             -4.540154            3.788894
| 21>   H                      2.411893             -5.543951            4.462794
| 22>   H                      3.177969             -4.407597            5.559392
| 23> *
| 24>
| 25> #Run DFT-D3 single point of the molecule with dimer basis set
| 26> $new_job
| 27> %base "13-178_DFT_A"
| 28> ! wB97X-D3 def2-TZVP TIGHTSCF CHELPG PMODEL
| 29>
| 30> %scf
| 31> MaxIter 1000
| 32> end
| 33>
| 34> * xyz 0 1
| 35>   C                      5.169243             -9.493771            5.503406
| 36>   O                      3.942726             -9.233860            4.939729
| 37>   H                      3.428846             -8.678624            5.570812
| 38>   H                      5.209470             -9.584556            6.578923
| 39>   H                      5.409796             -10.512706           5.172332
| 40>   H                      5.951064             -8.839104            5.193346
| 41>   C                    : 3.340212             -5.103759            4.722729
| 42>   O                    : 4.198028             -6.160828            5.112848
| 43>   H                    : 3.740715             -6.406466            5.979021
| 44>   H                    : 3.726197             -4.540154            3.788894
| 45>   H                    : 2.411893             -5.543951            4.462794
| 46>   H                    : 3.177969             -4.407597            5.559392
| 47> *
| 48>
| 49> #Run DFT-D3 single point of the particle with dimer basis set
| 50> $new_job
| 51> %base "13-178_DFT_B"
| 52> ! wB97X-D3 def2-TZVP TIGHTSCF CHELPG PMODEL
| 53>
| 54> %scf
| 55> MaxIter 1000
| 56> end
| 57>
| 58> * xyz 0 1
| 59>   C                    : 5.169243             -9.493771            5.503406
| 60>   O                    : 3.942726             -9.233860            4.939729
| 61>   H                    : 3.428846             -8.678624            5.570812
| 62>   H                    : 5.209470             -9.584556            6.578923
| 63>   H                    : 5.409796             -10.512706           5.172332
| 64>   H                    : 5.951064             -8.839104            5.193346
| 65>   C                      3.340212             -5.103759            4.722729
| 66>   O                      4.198028             -6.160828            5.112848
| 67>   H                      3.740715             -6.406466            5.979021
| 68>   H                      3.726197             -4.540154            3.788894
| 69>   H                      2.411893             -5.543951            4.462794
| 70>   H                      3.177969             -4.407597            5.559392
| 71> *
| 72>
| 73>                          ****END OF INPUT****
 Total Charge           Charge          ....    0
 Multiplicity           Mult            ....    1
 Number of Electrons    NEL             ....   36
Dispersion correction           -0.001683881
FINAL SINGLE POINT ENERGY      -231.457433550472
Dispersion correction           -0.000237899
FINAL SINGLE POINT ENERGY      -115.732505600842

CARTESIAN COORDINATES (ANGSTROEM)
---------------------------------
  C      5.169243   -9.493771    5.503406
  O      3.942726   -9.233860    4.939729
  H      3.428846   -8.678624    5.570812
  H      5.209470   -9.584556    6.578923
  H      5.409796  -10.512706    5.172332
  H      5.951064   -8.839104    5.193346
  C      3.340212   -5.103759    4.722729
  O      4.198028   -6.160828    5.112848
  H      3.740715   -6.406466    5.979021
  H      3.726197   -4.540154    3.788894
  H      2.411893   -5.543951    4.462794
  H      3.177969   -4.407597    5.559392

 Multiplicity           Mult            ....    1
 Number of Electrons    NEL             ....   18
 Basis Dimension        Dim             ....  172

ORBITAL ENERGIES
----------------

  NO   OCC          E(Eh)            E(eV)
   0   2.0000     -19.236969      -523.4646
   1   2.0000     -10.317282      -280.7475
   2   2.0000      -1.134289       -30.8656
   3   2.0000      -0.784405       -21.3447
   4   2.0000      -0.604379       -16.4460
   5   2.0000      -0.547877       -14.9085
   6   2.0000      -0.520775       -14.1710
   7   2.0000      -0.439387       -11.9563
   8   2.0000      -0.372251       -10.1295
   9   0.0000       0.086913         2.3650
  10   0.0000       0.120547         3.2802
  11   0.0000       0.155479         4.2308
  12   0.0000       0.178165         4.8481
  13   0.0000       0.192656         5.2424

MULLIKEN ATOMIC CHARGES
-----------------------
   0 C :    0.000876
   1 O :    0.001839
   2 H :   -0.009440
   3 H :   -0.000092
   4 H :   -0.000086
   5 H :   -0.002228
   6 C :   -0.186438
   7 O :   -0.453549
   8 H :    0.318521
   9 H :    0.115842
  10 H :    0.108492
  11 H :    0.106263
Sum of atomic charges:   -0.0000000

LOEWDIN ATOMIC CHARGES
----------------------
   0 C :   -0.005170
   1 O :   -0.004609
   2 H :   -0.008635
   3 H :   -0.000090
   4 H :   -0.000059
   5 H :   -0.001629
   6 C :   -0.399091
   7 O :   -0.086966
   8 H :    0.205342
   9 H :    0.119102
  10 H :    0.086626
  11 H :    0.095180

  Mayer bond orders larger than 0.1
B(  6-C ,  7-O ) :   0.9944 B(  6-C ,  9-H ) :   0.9700 B(  6-C , 10-H ) :   0.9790
B(  6-C , 11-H ) :   0.9791 B(  7-O ,  8-H ) :   0.8927

Dispersion correction           -0.000211904
FINAL SINGLE POINT ENERGY      -115.727585569496

DIPOLE MOMENT
-------------
                                X             Y             Z
Electronic contribution:      1.23750      -1.31183       0.35144
Nuclear contribution   :     -1.85024       1.57688       0.00892
                        -----------------------------------------
Total Dipole Moment    :     -0.61274       0.26505       0.36036
                        -----------------------------------------
Magnitude (a.u.)       :      0.75866
Magnitude (Debye)      :      1.92836

Rotational constants in cm-1:     4.037408     0.845458     0.800302
Rotational constants in MHz : 121038.434571 25346.188879 23992.463966

                             ****ORCA TERMINATED NORMALLY****
TOTAL RUN TIME: 0 days 0 hours 1 minutes 13 seconds 673 msec
