                         Program Version 4.1.2  - RELEASE  -
|  1> #Run DFT-D3 single point of the dimer
|  2> ! wB97X-D3 def2-TZVP TIGHTSCF  CHELPG PAL8
|  3>
|  4> %base "46_charges"
|  5>
|  6> %scf
|  7> MaxIter 1000
|  8> end
|  9> %output
| 10>   Print[ P_Mayer ] 1
| 11>   Print[ P_NatPop ] 1
| 12>   Print[ P_Hirshfeld ] 1
| 13>   Print[ P_Mulliken ] 1
| 14>   Print [ P_Loewdin ] 1
| 15> end
| 16>
| 17> * xyz 0 1
| 18>   C                      5.826561             -9.711384            7.290300
| 19>   O                      4.768460             -8.814863            7.445169
| 20>   H                      3.947357             -9.331510            7.406989
| 21>   H                      6.799070             -9.241065            7.128387
| 22>   H                      5.851815             -10.287929           8.231678
| 23>   H                      5.622700             -10.441449           6.473548
| 24> *
| 25>
| 26>                          ****END OF INPUT****

CARTESIAN COORDINATES (ANGSTROEM)
---------------------------------
  C      5.826561   -9.711384    7.290300
  O      4.768460   -8.814863    7.445169
  H      3.947357   -9.331510    7.406989
  H      6.799070   -9.241065    7.128387
  H      5.851815  -10.287929    8.231678
  H      5.622700  -10.441449    6.473548

 Total Charge           Charge          ....    0
 Multiplicity           Mult            ....    1
 Number of Electrons    NEL             ....   18
 Basis Dimension        Dim             ....   86

ORBITAL ENERGIES
----------------

  NO   OCC          E(Eh)            E(eV)
   0   2.0000     -19.228791      -523.2420
   1   2.0000     -10.314325      -280.6671
   2   2.0000      -1.140233       -31.0273
   3   2.0000      -0.789900       -21.4943
   4   2.0000      -0.610865       -16.6225
   5   2.0000      -0.542327       -14.7575
   6   2.0000      -0.533351       -14.5132
   7   2.0000      -0.432361       -11.7651
   8   2.0000      -0.366976        -9.9859
   9   0.0000       0.112034         3.0486
  10   0.0000       0.156942         4.2706
  11   0.0000       0.198043         5.3890
  12   0.0000       0.207383         5.6432
  13   0.0000       0.225748         6.1429

MULLIKEN ATOMIC CHARGES
-----------------------
   0 C :   -0.167426
   1 O :   -0.469866
   2 H :    0.317667
   3 H :    0.122117
   4 H :    0.099860
   5 H :    0.097648
Sum of atomic charges:    0.0000000

LOEWDIN ATOMIC CHARGES
----------------------
   0 C :   -0.403494
   1 O :   -0.074101
   2 H :    0.178483
   3 H :    0.106794
   4 H :    0.096191
   5 H :    0.096128

  Mayer bond orders larger than 0.1
B(  0-C ,  1-O ) :   0.9934 B(  0-C ,  3-H ) :   0.9679 B(  0-C ,  4-H ) :   0.9855
B(  0-C ,  5-H ) :   0.9791 B(  1-O ,  2-H ) :   0.8956

Dispersion correction           -0.000219213
FINAL SINGLE POINT ENERGY      -115.733247566548

DIPOLE MOMENT
-------------
                                X             Y             Z
Electronic contribution:     -1.19059       1.38297       0.13676
Nuclear contribution   :      1.08524      -2.04735      -0.22396
                        -----------------------------------------
Total Dipole Moment    :     -0.10535      -0.66437      -0.08720
                        -----------------------------------------
Magnitude (a.u.)       :      0.67830
Magnitude (Debye)      :      1.72411

Rotational constants in cm-1:     4.199657     0.852614     0.817732
Rotational constants in MHz : 125902.538476 25560.716542 24514.979953

                             ****ORCA TERMINATED NORMALLY****
TOTAL RUN TIME: 0 days 0 hours 0 minutes 40 seconds 562 msec
