                         Program Version 4.1.2  - RELEASE  -
|  1> #Run DFT-D3 single point of the dimer
|  2> ! wB97X-D3 def2-TZVP TIGHTSCF CHELPG PMODEL PAL8
|  3>
|  4> %base "9-210_DFT_AB"
|  5>
|  6> %scf
|  7> MaxIter 1000
|  8> end
|  9>
| 10> * xyz 0 1
| 11>   C                      -3.651352            -4.869490            6.049386
| 12>   O                      -3.686176            -3.708315            5.319492
| 13>   H                      -2.830199            -3.313455            5.220469
| 14>   H                      -3.150989            -5.673708            5.578949
| 15>   H                      -2.942356            -4.783845            6.895048
| 16>   H                      -4.594688            -5.242096            6.418377
| 17>   C                      -6.947420            -2.638629            6.020418
| 18>   O                      -5.855976            -2.041525            5.479451
| 19>   H                      -5.253015            -2.692802            5.068501
| 20>   H                      -6.845005            -3.713180            5.835701
| 21>   H                      -7.038232            -2.528567            7.063693
| 22>   H                      -7.817227            -2.309417            5.550734
| 23> *
| 24>
| 25> #Run DFT-D3 single point of the molecule with dimer basis set
| 26> $new_job
| 27> %base "9-210_DFT_A"
| 28> ! wB97X-D3 def2-TZVP TIGHTSCF CHELPG PMODEL
| 29>
| 30> %scf
| 31> MaxIter 1000
| 32> end
| 33>
| 34> * xyz 0 1
| 35>   C                      -3.651352            -4.869490            6.049386
| 36>   O                      -3.686176            -3.708315            5.319492
| 37>   H                      -2.830199            -3.313455            5.220469
| 38>   H                      -3.150989            -5.673708            5.578949
| 39>   H                      -2.942356            -4.783845            6.895048
| 40>   H                      -4.594688            -5.242096            6.418377
| 41>   C                    : -6.947420            -2.638629            6.020418
| 42>   O                    : -5.855976            -2.041525            5.479451
| 43>   H                    : -5.253015            -2.692802            5.068501
| 44>   H                    : -6.845005            -3.713180            5.835701
| 45>   H                    : -7.038232            -2.528567            7.063693
| 46>   H                    : -7.817227            -2.309417            5.550734
| 47> *
| 48>
| 49> #Run DFT-D3 single point of the particle with dimer basis set
| 50> $new_job
| 51> %base "9-210_DFT_B"
| 52> ! wB97X-D3 def2-TZVP TIGHTSCF CHELPG PMODEL
| 53>
| 54> %scf
| 55> MaxIter 1000
| 56> end
| 57>
| 58> * xyz 0 1
| 59>   C                    : -3.651352            -4.869490            6.049386
| 60>   O                    : -3.686176            -3.708315            5.319492
| 61>   H                    : -2.830199            -3.313455            5.220469
| 62>   H                    : -3.150989            -5.673708            5.578949
| 63>   H                    : -2.942356            -4.783845            6.895048
| 64>   H                    : -4.594688            -5.242096            6.418377
| 65>   C                      -6.947420            -2.638629            6.020418
| 66>   O                      -5.855976            -2.041525            5.479451
| 67>   H                      -5.253015            -2.692802            5.068501
| 68>   H                      -6.845005            -3.713180            5.835701
| 69>   H                      -7.038232            -2.528567            7.063693
| 70>   H                      -7.817227            -2.309417            5.550734
| 71> *
| 72>
| 73>                          ****END OF INPUT****
 Total Charge           Charge          ....    0
 Multiplicity           Mult            ....    1
 Number of Electrons    NEL             ....   36
Dispersion correction           -0.001908500
FINAL SINGLE POINT ENERGY      -231.463418770089
Dispersion correction           -0.000230307
FINAL SINGLE POINT ENERGY      -115.728615254800

CARTESIAN COORDINATES (ANGSTROEM)
---------------------------------
  C     -3.651352   -4.869490    6.049386
  O     -3.686176   -3.708315    5.319492
  H     -2.830199   -3.313455    5.220469
  H     -3.150989   -5.673708    5.578949
  H     -2.942356   -4.783845    6.895048
  H     -4.594688   -5.242096    6.418377
  C     -6.947420   -2.638629    6.020418
  O     -5.855976   -2.041525    5.479451
  H     -5.253015   -2.692802    5.068501
  H     -6.845005   -3.713180    5.835701
  H     -7.038232   -2.528567    7.063693
  H     -7.817227   -2.309417    5.550734

 Multiplicity           Mult            ....    1
 Number of Electrons    NEL             ....   18
 Basis Dimension        Dim             ....  172

ORBITAL ENERGIES
----------------

  NO   OCC          E(Eh)            E(eV)
   0   2.0000     -19.227570      -523.2088
   1   2.0000     -10.297492      -280.2090
   2   2.0000      -1.148817       -31.2609
   3   2.0000      -0.799227       -21.7481
   4   2.0000      -0.620997       -16.8982
   5   2.0000      -0.556031       -15.1304
   6   2.0000      -0.542209       -14.7543
   7   2.0000      -0.418289       -11.3822
   8   2.0000      -0.372203       -10.1282
   9   0.0000       0.070122         1.9081
  10   0.0000       0.133242         3.6257
  11   0.0000       0.143634         3.9085
  12   0.0000       0.179109         4.8738
  13   0.0000       0.195550         5.3212

MULLIKEN ATOMIC CHARGES
-----------------------
   0 C :   -0.004727
   1 O :   -0.005414
   2 H :   -0.000974
   3 H :   -0.000050
   4 H :    0.000315
   5 H :    0.000653
   6 C :   -0.142498
   7 O :   -0.470711
   8 H :    0.323934
   9 H :    0.090460
  10 H :    0.103656
  11 H :    0.105354
Sum of atomic charges:    0.0000000

LOEWDIN ATOMIC CHARGES
----------------------
   0 C :   -0.005713
   1 O :   -0.025805
   2 H :   -0.001805
   3 H :   -0.000129
   4 H :   -0.000090
   5 H :   -0.001209
   6 C :   -0.412281
   7 O :   -0.028876
   8 H :    0.196237
   9 H :    0.099654
  10 H :    0.090854
  11 H :    0.089162

  Mayer bond orders larger than 0.1
B(  6-C ,  7-O ) :   1.0051 B(  6-C ,  9-H ) :   1.0005 B(  6-C , 10-H ) :   0.9714
B(  6-C , 11-H ) :   0.9827 B(  7-O ,  8-H ) :   0.8937

Dispersion correction           -0.000214957
FINAL SINGLE POINT ENERGY      -115.728564102334

DIPOLE MOMENT
-------------
                                X             Y             Z
Electronic contribution:      1.32078       1.02599      -0.61150
Nuclear contribution   :     -1.35164      -1.67953       0.54814
                        -----------------------------------------
Total Dipole Moment    :     -0.03086      -0.65354      -0.06336
                        -----------------------------------------
Magnitude (a.u.)       :      0.65733
Magnitude (Debye)      :      1.67081

Rotational constants in cm-1:     4.513284     0.893794     0.858537
Rotational constants in MHz : 135304.858990 26795.284461 25738.300734

                             ****ORCA TERMINATED NORMALLY****
TOTAL RUN TIME: 0 days 0 hours 0 minutes 46 seconds 772 msec
