                         Program Version 4.1.2  - RELEASE  -
|  1> #Run DFT-D3 single point of the dimer
|  2> ! wB97X-D3 def2-TZVP TIGHTSCF CHELPG PMODEL PAL8
|  3>
|  4> %base "20-12_DFT_AB"
|  5>
|  6> %scf
|  7> MaxIter 1000
|  8> end
|  9>
| 10> * xyz 0 1
| 11>   C                      -3.541612            8.218738             -6.097579
| 12>   O                      -2.500026            7.841059             -5.165467
| 13>   H                      -2.808424            8.091062             -4.276652
| 14>   H                      -4.504519            8.175344             -5.636522
| 15>   H                      -3.270904            9.255707             -6.480989
| 16>   H                      -3.586497            7.616042             -6.948879
| 17>   C                      -7.167208            10.095770            -3.714431
| 18>   O                      -7.763152            11.317392            -4.150616
| 19>   H                      -7.193603            11.520236            -4.914687
| 20>   H                      -7.847696            9.690456             -2.955684
| 21>   H                      -7.204101            9.457529             -4.520610
| 22>   H                      -6.121541            10.163548            -3.417673
| 23> *
| 24>
| 25> #Run DFT-D3 single point of the molecule with dimer basis set
| 26> $new_job
| 27> %base "20-12_DFT_A"
| 28> ! wB97X-D3 def2-TZVP TIGHTSCF CHELPG PMODEL
| 29>
| 30> %scf
| 31> MaxIter 1000
| 32> end
| 33>
| 34> * xyz 0 1
| 35>   C                      -3.541612            8.218738             -6.097579
| 36>   O                      -2.500026            7.841059             -5.165467
| 37>   H                      -2.808424            8.091062             -4.276652
| 38>   H                      -4.504519            8.175344             -5.636522
| 39>   H                      -3.270904            9.255707             -6.480989
| 40>   H                      -3.586497            7.616042             -6.948879
| 41>   C                    : -7.167208            10.095770            -3.714431
| 42>   O                    : -7.763152            11.317392            -4.150616
| 43>   H                    : -7.193603            11.520236            -4.914687
| 44>   H                    : -7.847696            9.690456             -2.955684
| 45>   H                    : -7.204101            9.457529             -4.520610
| 46>   H                    : -6.121541            10.163548            -3.417673
| 47> *
| 48>
| 49> #Run DFT-D3 single point of the particle with dimer basis set
| 50> $new_job
| 51> %base "20-12_DFT_B"
| 52> ! wB97X-D3 def2-TZVP TIGHTSCF CHELPG PMODEL
| 53>
| 54> %scf
| 55> MaxIter 1000
| 56> end
| 57>
| 58> * xyz 0 1
| 59>   C                    : -3.541612            8.218738             -6.097579
| 60>   O                    : -2.500026            7.841059             -5.165467
| 61>   H                    : -2.808424            8.091062             -4.276652
| 62>   H                    : -4.504519            8.175344             -5.636522
| 63>   H                    : -3.270904            9.255707             -6.480989
| 64>   H                    : -3.586497            7.616042             -6.948879
| 65>   C                      -7.167208            10.095770            -3.714431
| 66>   O                      -7.763152            11.317392            -4.150616
| 67>   H                      -7.193603            11.520236            -4.914687
| 68>   H                      -7.847696            9.690456             -2.955684
| 69>   H                      -7.204101            9.457529             -4.520610
| 70>   H                      -6.121541            10.163548            -3.417673
| 71> *
| 72>
| 73>                          ****END OF INPUT****
 Total Charge           Charge          ....    0
 Multiplicity           Mult            ....    1
 Number of Electrons    NEL             ....   36
Dispersion correction           -0.000967906
FINAL SINGLE POINT ENERGY      -231.460050874192
Dispersion correction           -0.000249729
FINAL SINGLE POINT ENERGY      -115.730637186906

CARTESIAN COORDINATES (ANGSTROEM)
---------------------------------
  C     -3.541612    8.218738   -6.097579
  O     -2.500026    7.841059   -5.165467
  H     -2.808424    8.091062   -4.276652
  H     -4.504519    8.175344   -5.636522
  H     -3.270904    9.255707   -6.480989
  H     -3.586497    7.616042   -6.948879
  C     -7.167208   10.095770   -3.714431
  O     -7.763152   11.317392   -4.150616
  H     -7.193603   11.520236   -4.914687
  H     -7.847696    9.690456   -2.955684
  H     -7.204101    9.457529   -4.520610
  H     -6.121541   10.163548   -3.417673

 Multiplicity           Mult            ....    1
 Number of Electrons    NEL             ....   18
 Basis Dimension        Dim             ....  172

ORBITAL ENERGIES
----------------

  NO   OCC          E(Eh)            E(eV)
   0   2.0000     -19.230895      -523.2993
   1   2.0000     -10.305512      -280.4273
   2   2.0000      -1.134073       -30.8597
   3   2.0000      -0.795872       -21.6568
   4   2.0000      -0.610743       -16.6192
   5   2.0000      -0.546389       -14.8680
   6   2.0000      -0.518208       -14.1012
   7   2.0000      -0.446148       -12.1403
   8   2.0000      -0.373441       -10.1619
   9   0.0000       0.077354         2.1049
  10   0.0000       0.114760         3.1228
  11   0.0000       0.150452         4.0940
  12   0.0000       0.161140         4.3848
  13   0.0000       0.188623         5.1327

MULLIKEN ATOMIC CHARGES
-----------------------
   0 C :    0.000912
   1 O :   -0.000004
   2 H :   -0.000060
   3 H :   -0.001726
   4 H :   -0.000047
   5 H :   -0.000046
   6 C :   -0.173090
   7 O :   -0.465595
   8 H :    0.308888
   9 H :    0.118353
  10 H :    0.110910
  11 H :    0.101506
Sum of atomic charges:    0.0000000

LOEWDIN ATOMIC CHARGES
----------------------
   0 C :   -0.000233
   1 O :   -0.000006
   2 H :   -0.000056
   3 H :   -0.000698
   4 H :   -0.000009
   5 H :   -0.000002
   6 C :   -0.373200
   7 O :   -0.092324
   8 H :    0.177830
   9 H :    0.112541
  10 H :    0.081707
  11 H :    0.094451

  Mayer bond orders larger than 0.1
B(  6-C ,  7-O ) :   0.9958 B(  6-C ,  9-H ) :   0.9740 B(  6-C , 10-H ) :   0.9881
B(  6-C , 11-H ) :   0.9685 B(  7-O ,  8-H ) :   0.9059

Dispersion correction           -0.000206812
FINAL SINGLE POINT ENERGY      -115.729303533657

DIPOLE MOMENT
-------------
                                X             Y             Z
Electronic contribution:     -0.79260       1.53105      -0.35434
Nuclear contribution   :      1.35970      -1.91223       0.03465
                        -----------------------------------------
Total Dipole Moment    :      0.56710      -0.38118      -0.31969
                        -----------------------------------------
Magnitude (a.u.)       :      0.75439
Magnitude (Debye)      :      1.91751

Rotational constants in cm-1:     4.272610     0.844197     0.801698
Rotational constants in MHz : 128089.613181 25308.403147 24034.305777

                             ****ORCA TERMINATED NORMALLY****
TOTAL RUN TIME: 0 days 0 hours 0 minutes 56 seconds 843 msec
