                         Program Version 4.1.2  - RELEASE  -
|  1> #Run DFT-D3 single point of the dimer
|  2> ! wB97X-D3 def2-TZVP TIGHTSCF CHELPG PMODEL PAL8
|  3>
|  4> %base "7-8_DFT_AB"
|  5>
|  6> %scf
|  7> MaxIter 1000
|  8> end
|  9>
| 10> * xyz 0 1
| 11>   C                      0.107441             2.741054             -3.055841
| 12>   O                      0.093632             2.479985             -1.676650
| 13>   H                      -0.116713            3.352322             -1.369150
| 14>   H                      0.781831             3.560905             -3.329535
| 15>   H                      0.429337             1.873700             -3.602147
| 16>   H                      -0.921354            2.900499             -3.482296
| 17>   C                      -0.054853            -2.760449            -4.019701
| 18>   O                      1.160841             -3.032682            -4.713743
| 19>   H                      1.662629             -2.238347            -4.884516
| 20>   H                      0.122158             -2.158063            -3.125153
| 21>   H                      -0.722976            -2.123060            -4.581221
| 22>   H                      -0.512045            -3.724581            -3.800778
| 23> *
| 24>
| 25> #Run DFT-D3 single point of the molecule with dimer basis set
| 26> $new_job
| 27> %base "7-8_DFT_A"
| 28> ! wB97X-D3 def2-TZVP TIGHTSCF CHELPG PMODEL
| 29>
| 30> %scf
| 31> MaxIter 1000
| 32> end
| 33>
| 34> * xyz 0 1
| 35>   C                      0.107441             2.741054             -3.055841
| 36>   O                      0.093632             2.479985             -1.676650
| 37>   H                      -0.116713            3.352322             -1.369150
| 38>   H                      0.781831             3.560905             -3.329535
| 39>   H                      0.429337             1.873700             -3.602147
| 40>   H                      -0.921354            2.900499             -3.482296
| 41>   C                    : -0.054853            -2.760449            -4.019701
| 42>   O                    : 1.160841             -3.032682            -4.713743
| 43>   H                    : 1.662629             -2.238347            -4.884516
| 44>   H                    : 0.122158             -2.158063            -3.125153
| 45>   H                    : -0.722976            -2.123060            -4.581221
| 46>   H                    : -0.512045            -3.724581            -3.800778
| 47> *
| 48>
| 49> #Run DFT-D3 single point of the particle with dimer basis set
| 50> $new_job
| 51> %base "7-8_DFT_B"
| 52> ! wB97X-D3 def2-TZVP TIGHTSCF CHELPG PMODEL
| 53>
| 54> %scf
| 55> MaxIter 1000
| 56> end
| 57>
| 58> * xyz 0 1
| 59>   C                    : 0.107441             2.741054             -3.055841
| 60>   O                    : 0.093632             2.479985             -1.676650
| 61>   H                    : -0.116713            3.352322             -1.369150
| 62>   H                    : 0.781831             3.560905             -3.329535
| 63>   H                    : 0.429337             1.873700             -3.602147
| 64>   H                    : -0.921354            2.900499             -3.482296
| 65>   C                      -0.054853            -2.760449            -4.019701
| 66>   O                      1.160841             -3.032682            -4.713743
| 67>   H                      1.662629             -2.238347            -4.884516
| 68>   H                      0.122158             -2.158063            -3.125153
| 69>   H                      -0.722976            -2.123060            -4.581221
| 70>   H                      -0.512045            -3.724581            -3.800778
| 71> *
| 72>
| 73>                          ****END OF INPUT****
 Total Charge           Charge          ....    0
 Multiplicity           Mult            ....    1
 Number of Electrons    NEL             ....   36
Dispersion correction           -0.000664565
FINAL SINGLE POINT ENERGY      -231.468055251528
Dispersion correction           -0.000223019
FINAL SINGLE POINT ENERGY      -115.732557864673

CARTESIAN COORDINATES (ANGSTROEM)
---------------------------------
  C      0.107441    2.741054   -3.055841
  O      0.093632    2.479985   -1.676650
  H     -0.116713    3.352322   -1.369150
  H      0.781831    3.560905   -3.329535
  H      0.429337    1.873700   -3.602147
  H     -0.921354    2.900499   -3.482296
  C     -0.054853   -2.760449   -4.019701
  O      1.160841   -3.032682   -4.713743
  H      1.662629   -2.238347   -4.884516
  H      0.122158   -2.158063   -3.125153
  H     -0.722976   -2.123060   -4.581221
  H     -0.512045   -3.724581   -3.800778

 Multiplicity           Mult            ....    1
 Number of Electrons    NEL             ....   18
 Basis Dimension        Dim             ....  172

ORBITAL ENERGIES
----------------

  NO   OCC          E(Eh)            E(eV)
   0   2.0000     -19.226484      -523.1792
   1   2.0000     -10.312670      -280.6220
   2   2.0000      -1.129858       -30.7450
   3   2.0000      -0.799170       -21.7465
   4   2.0000      -0.615122       -16.7383
   5   2.0000      -0.531829       -14.4718
   6   2.0000      -0.528028       -14.3684
   7   2.0000      -0.436190       -11.8693
   8   2.0000      -0.370379       -10.0785
   9   0.0000       0.079339         2.1589
  10   0.0000       0.111839         3.0433
  11   0.0000       0.152707         4.1554
  12   0.0000       0.165853         4.5131
  13   0.0000       0.190016         5.1706

MULLIKEN ATOMIC CHARGES
-----------------------
   0 C :   -0.000096
   1 O :    0.000004
   2 H :   -0.000000
   3 H :    0.000001
   4 H :    0.000082
   5 H :    0.000005
   6 C :   -0.149063
   7 O :   -0.486492
   8 H :    0.312366
   9 H :    0.100082
  10 H :    0.099586
  11 H :    0.123525
Sum of atomic charges:    0.0000000

LOEWDIN ATOMIC CHARGES
----------------------
   0 C :   -0.000030
   1 O :   -0.000003
   2 H :   -0.000000
   3 H :   -0.000000
   4 H :   -0.000018
   5 H :   -0.000001
   6 C :   -0.369622
   7 O :   -0.086322
   8 H :    0.161102
   9 H :    0.094213
  10 H :    0.090156
  11 H :    0.110525

  Mayer bond orders larger than 0.1
B(  6-C ,  7-O ) :   0.9923 B(  6-C ,  9-H ) :   0.9770 B(  6-C , 10-H ) :   0.9737
B(  6-C , 11-H ) :   0.9744 B(  7-O ,  8-H ) :   0.8992

Dispersion correction           -0.000246214
FINAL SINGLE POINT ENERGY      -115.735195339401

DIPOLE MOMENT
-------------
                                X             Y             Z
Electronic contribution:      1.45899      -0.52820      -0.86107
Nuclear contribution   :     -1.63848       1.16196       1.03890
                        -----------------------------------------
Total Dipole Moment    :     -0.17948       0.63376       0.17782
                        -----------------------------------------
Magnitude (a.u.)       :      0.68227
Magnitude (Debye)      :      1.73419

Rotational constants in cm-1:     4.359231     0.824492     0.785506
Rotational constants in MHz : 130686.470425 24717.651221 23548.869723

                             ****ORCA TERMINATED NORMALLY****
TOTAL RUN TIME: 0 days 0 hours 0 minutes 59 seconds 337 msec
