                         Program Version 4.1.2  - RELEASE  -
|  1> #Run DFT-D3 single point of the dimer
|  2> ! wB97X-D3 def2-TZVP TIGHTSCF CHELPG PMODEL PAL8
|  3>
|  4> %base "22-208_DFT_AB"
|  5>
|  6> %scf
|  7> MaxIter 1000
|  8> end
|  9>
| 10> * xyz 0 1
| 11>   C                      8.253150             -0.381026            -4.914637
| 12>   O                      7.649367             0.751168             -5.503528
| 13>   H                      6.670793             0.918869             -5.362021
| 14>   H                      8.018873             -0.360801            -3.759233
| 15>   H                      7.836253             -1.266290            -5.414413
| 16>   H                      9.330935             -0.575877            -5.152643
| 17>   C                      6.151161             -1.735530            -8.769065
| 18>   O                      7.219285             -1.244227            -7.964567
| 19>   H                      6.934977             -0.470784            -7.466124
| 20>   H                      6.370894             -1.592989            -9.827518
| 21>   H                      6.054427             -2.841521            -8.626636
| 22>   H                      5.204015             -1.181408            -8.545412
| 23> *
| 24>
| 25> #Run DFT-D3 single point of the molecule with dimer basis set
| 26> $new_job
| 27> %base "22-208_DFT_A"
| 28> ! wB97X-D3 def2-TZVP TIGHTSCF CHELPG PMODEL
| 29>
| 30> %scf
| 31> MaxIter 1000
| 32> end
| 33>
| 34> * xyz 0 1
| 35>   C                      8.253150             -0.381026            -4.914637
| 36>   O                      7.649367             0.751168             -5.503528
| 37>   H                      6.670793             0.918869             -5.362021
| 38>   H                      8.018873             -0.360801            -3.759233
| 39>   H                      7.836253             -1.266290            -5.414413
| 40>   H                      9.330935             -0.575877            -5.152643
| 41>   C                    : 6.151161             -1.735530            -8.769065
| 42>   O                    : 7.219285             -1.244227            -7.964567
| 43>   H                    : 6.934977             -0.470784            -7.466124
| 44>   H                    : 6.370894             -1.592989            -9.827518
| 45>   H                    : 6.054427             -2.841521            -8.626636
| 46>   H                    : 5.204015             -1.181408            -8.545412
| 47> *
| 48>
| 49> #Run DFT-D3 single point of the particle with dimer basis set
| 50> $new_job
| 51> %base "22-208_DFT_B"
| 52> ! wB97X-D3 def2-TZVP TIGHTSCF CHELPG PMODEL
| 53>
| 54> %scf
| 55> MaxIter 1000
| 56> end
| 57>
| 58> * xyz 0 1
| 59>   C                    : 8.253150             -0.381026            -4.914637
| 60>   O                    : 7.649367             0.751168             -5.503528
| 61>   H                    : 6.670793             0.918869             -5.362021
| 62>   H                    : 8.018873             -0.360801            -3.759233
| 63>   H                    : 7.836253             -1.266290            -5.414413
| 64>   H                    : 9.330935             -0.575877            -5.152643
| 65>   C                      6.151161             -1.735530            -8.769065
| 66>   O                      7.219285             -1.244227            -7.964567
| 67>   H                      6.934977             -0.470784            -7.466124
| 68>   H                      6.370894             -1.592989            -9.827518
| 69>   H                      6.054427             -2.841521            -8.626636
| 70>   H                      5.204015             -1.181408            -8.545412
| 71> *
| 72>
| 73>                          ****END OF INPUT****
 Total Charge           Charge          ....    0
 Multiplicity           Mult            ....    1
 Number of Electrons    NEL             ....   36
Dispersion correction           -0.001780291
FINAL SINGLE POINT ENERGY      -231.458332889072
Dispersion correction           -0.000279751
FINAL SINGLE POINT ENERGY      -115.719626558906

CARTESIAN COORDINATES (ANGSTROEM)
---------------------------------
  C      8.253150   -0.381026   -4.914637
  O      7.649367    0.751168   -5.503528
  H      6.670793    0.918869   -5.362021
  H      8.018873   -0.360801   -3.759233
  H      7.836253   -1.266290   -5.414413
  H      9.330935   -0.575877   -5.152643
  C      6.151161   -1.735530   -8.769065
  O      7.219285   -1.244227   -7.964567
  H      6.934977   -0.470784   -7.466124
  H      6.370894   -1.592989   -9.827518
  H      6.054427   -2.841521   -8.626636
  H      5.204015   -1.181408   -8.545412

 Multiplicity           Mult            ....    1
 Number of Electrons    NEL             ....   18
 Basis Dimension        Dim             ....  172

ORBITAL ENERGIES
----------------

  NO   OCC          E(Eh)            E(eV)
   0   2.0000     -19.229542      -523.2624
   1   2.0000     -10.319968      -280.8206
   2   2.0000      -1.131188       -30.7812
   3   2.0000      -0.793061       -21.5803
   4   2.0000      -0.608591       -16.5606
   5   2.0000      -0.533912       -14.5285
   6   2.0000      -0.530465       -14.4347
   7   2.0000      -0.432270       -11.7627
   8   2.0000      -0.371564       -10.1108
   9   0.0000       0.078885         2.1466
  10   0.0000       0.127974         3.4823
  11   0.0000       0.152574         4.1518
  12   0.0000       0.172178         4.6852
  13   0.0000       0.196029         5.3342

MULLIKEN ATOMIC CHARGES
-----------------------
   0 C :    0.005143
   1 O :    0.000354
   2 H :   -0.000547
   3 H :   -0.000061
   4 H :   -0.014173
   5 H :   -0.000562
   6 C :   -0.169964
   7 O :   -0.467203
   8 H :    0.315459
   9 H :    0.111744
  10 H :    0.115766
  11 H :    0.104043
Sum of atomic charges:    0.0000000

LOEWDIN ATOMIC CHARGES
----------------------
   0 C :   -0.008033
   1 O :   -0.004066
   2 H :   -0.001437
   3 H :   -0.000041
   4 H :   -0.010044
   5 H :   -0.000278
   6 C :   -0.379585
   7 O :   -0.075956
   8 H :    0.173358
   9 H :    0.096941
  10 H :    0.107313
  11 H :    0.101829

  Mayer bond orders larger than 0.1
B(  6-C ,  7-O ) :   1.0028 B(  6-C ,  9-H ) :   0.9725 B(  6-C , 10-H ) :   0.9744
B(  6-C , 11-H ) :   0.9832 B(  7-O ,  8-H ) :   0.8995

Dispersion correction           -0.000258813
FINAL SINGLE POINT ENERGY      -115.734751051203

DIPOLE MOMENT
-------------
                                X             Y             Z
Electronic contribution:      1.40375       0.52891       0.97942
Nuclear contribution   :     -2.02657      -0.21581      -1.00103
                        -----------------------------------------
Total Dipole Moment    :     -0.62283       0.31310      -0.02162
                        -----------------------------------------
Magnitude (a.u.)       :      0.69743
Magnitude (Debye)      :      1.77273

Rotational constants in cm-1:     4.191575     0.821118     0.784778
Rotational constants in MHz : 125660.267952 24616.499631 23527.045273

                             ****ORCA TERMINATED NORMALLY****
TOTAL RUN TIME: 0 days 0 hours 1 minutes 5 seconds 787 msec
