                         Program Version 4.1.2  - RELEASE  -
|  1> #Run DFT-D3 single point of the dimer
|  2> ! wB97X-D3 def2-TZVP TIGHTSCF CHELPG PMODEL PAL8
|  3>
|  4> %base "2-6_DFT_AB"
|  5>
|  6> %scf
|  7> MaxIter 1000
|  8> end
|  9>
| 10> * xyz 0 1
| 11>   C                      8.949076             -5.978823            1.374421
| 12>   O                      8.061541             -5.195316            2.119433
| 13>   H                      7.149420             -5.531842            2.087189
| 14>   H                      8.545516             -6.842409            0.887766
| 15>   H                      9.373425             -5.345801            0.537664
| 16>   H                      9.797121             -6.359743            1.900939
| 17>   C                      10.075003            -5.369550            -1.701341
| 18>   O                      10.966355            -5.894968            -0.762528
| 19>   H                      10.837473            -6.806595            -0.593211
| 20>   H                      8.989269             -5.571708            -1.521119
| 21>   H                      10.054936            -4.273271            -1.759322
| 22>   H                      10.144655            -5.691776            -2.762107
| 23> *
| 24>
| 25> #Run DFT-D3 single point of the molecule with dimer basis set
| 26> $new_job
| 27> %base "2-6_DFT_A"
| 28> ! wB97X-D3 def2-TZVP TIGHTSCF CHELPG PMODEL
| 29>
| 30> %scf
| 31> MaxIter 1000
| 32> end
| 33>
| 34> * xyz 0 1
| 35>   C                      8.949076             -5.978823            1.374421
| 36>   O                      8.061541             -5.195316            2.119433
| 37>   H                      7.149420             -5.531842            2.087189
| 38>   H                      8.545516             -6.842409            0.887766
| 39>   H                      9.373425             -5.345801            0.537664
| 40>   H                      9.797121             -6.359743            1.900939
| 41>   C                    : 10.075003            -5.369550            -1.701341
| 42>   O                    : 10.966355            -5.894968            -0.762528
| 43>   H                    : 10.837473            -6.806595            -0.593211
| 44>   H                    : 8.989269             -5.571708            -1.521119
| 45>   H                    : 10.054936            -4.273271            -1.759322
| 46>   H                    : 10.144655            -5.691776            -2.762107
| 47> *
| 48>
| 49> #Run DFT-D3 single point of the particle with dimer basis set
| 50> $new_job
| 51> %base "2-6_DFT_B"
| 52> ! wB97X-D3 def2-TZVP TIGHTSCF CHELPG PMODEL
| 53>
| 54> %scf
| 55> MaxIter 1000
| 56> end
| 57>
| 58> * xyz 0 1
| 59>   C                    : 8.949076             -5.978823            1.374421
| 60>   O                    : 8.061541             -5.195316            2.119433
| 61>   H                    : 7.149420             -5.531842            2.087189
| 62>   H                    : 8.545516             -6.842409            0.887766
| 63>   H                    : 9.373425             -5.345801            0.537664
| 64>   H                    : 9.797121             -6.359743            1.900939
| 65>   C                      10.075003            -5.369550            -1.701341
| 66>   O                      10.966355            -5.894968            -0.762528
| 67>   H                      10.837473            -6.806595            -0.593211
| 68>   H                      8.989269             -5.571708            -1.521119
| 69>   H                      10.054936            -4.273271            -1.759322
| 70>   H                      10.144655            -5.691776            -2.762107
| 71> *
| 72>
| 73>                          ****END OF INPUT****
 Total Charge           Charge          ....    0
 Multiplicity           Mult            ....    1
 Number of Electrons    NEL             ....   36
Dispersion correction           -0.002112549
FINAL SINGLE POINT ENERGY      -231.456673474838
Dispersion correction           -0.000265437
FINAL SINGLE POINT ENERGY      -115.731476746513

CARTESIAN COORDINATES (ANGSTROEM)
---------------------------------
  C      8.949076   -5.978823    1.374421
  O      8.061541   -5.195316    2.119433
  H      7.149420   -5.531842    2.087189
  H      8.545516   -6.842409    0.887766
  H      9.373425   -5.345801    0.537664
  H      9.797121   -6.359743    1.900939
  C     10.075003   -5.369550   -1.701341
  O     10.966355   -5.894968   -0.762528
  H     10.837473   -6.806595   -0.593211
  H      8.989269   -5.571708   -1.521119
  H     10.054936   -4.273271   -1.759322
  H     10.144655   -5.691776   -2.762107

 Multiplicity           Mult            ....    1
 Number of Electrons    NEL             ....   18
 Basis Dimension        Dim             ....  172

ORBITAL ENERGIES
----------------

  NO   OCC          E(Eh)            E(eV)
   0   2.0000     -19.236850      -523.4613
   1   2.0000     -10.318573      -280.7826
   2   2.0000      -1.147533       -31.2260
   3   2.0000      -0.802207       -21.8292
   4   2.0000      -0.628454       -17.1011
   5   2.0000      -0.533955       -14.5296
   6   2.0000      -0.528037       -14.3686
   7   2.0000      -0.429512       -11.6876
   8   2.0000      -0.376108       -10.2344
   9   0.0000       0.084950         2.3116
  10   0.0000       0.134526         3.6606
  11   0.0000       0.142329         3.8730
  12   0.0000       0.188213         5.1215
  13   0.0000       0.194327         5.2879

MULLIKEN ATOMIC CHARGES
-----------------------
   0 C :   -0.024886
   1 O :   -0.000366
   2 H :   -0.000064
   3 H :    0.000629
   4 H :    0.016893
   5 H :    0.000850
   6 C :   -0.190860
   7 O :   -0.462439
   8 H :    0.320853
   9 H :    0.099581
  10 H :    0.127946
  11 H :    0.111861
Sum of atomic charges:   -0.0000000

LOEWDIN ATOMIC CHARGES
----------------------
   0 C :   -0.026709
   1 O :   -0.000077
   2 H :   -0.000036
   3 H :   -0.001720
   4 H :   -0.023858
   5 H :   -0.002664
   6 C :   -0.403191
   7 O :   -0.013819
   8 H :    0.159912
   9 H :    0.102822
  10 H :    0.111889
  11 H :    0.097452

  Mayer bond orders larger than 0.1
B(  6-C ,  7-O ) :   1.0030 B(  6-C ,  9-H ) :   0.9763 B(  6-C , 10-H ) :   0.9755
B(  6-C , 11-H ) :   0.9702 B(  7-O ,  8-H ) :   0.8951

Dispersion correction           -0.000287328
FINAL SINGLE POINT ENERGY      -115.730405955835

DIPOLE MOMENT
-------------
                                X             Y             Z
Electronic contribution:      1.45453      -0.65602       1.35715
Nuclear contribution   :     -1.88792       0.27150      -1.61316
                        -----------------------------------------
Total Dipole Moment    :     -0.43338      -0.38452      -0.25601
                        -----------------------------------------
Magnitude (a.u.)       :      0.63342
Magnitude (Debye)      :      1.61002

Rotational constants in cm-1:     4.644494     0.814228     0.787993
Rotational constants in MHz : 139238.418826 24409.932862 23623.439260

                             ****ORCA TERMINATED NORMALLY****
TOTAL RUN TIME: 0 days 0 hours 6 minutes 8 seconds 643 msec
