                         Program Version 4.1.2  - RELEASE  -
|  1> #Run DFT-D3 single point of the dimer
|  2> ! wB97X-D3 def2-TZVP TIGHTSCF CHELPG PMODEL PAL8
|  3>
|  4> %base "5-47_DFT_AB"
|  5>
|  6> %scf
|  7> MaxIter 1000
|  8> end
|  9>
| 10> * xyz 0 1
| 11>   C                      -2.327879            -1.689422            -8.778547
| 12>   O                      -1.414397            -2.216028            -7.842568
| 13>   H                      -1.431879            -3.135477            -8.159358
| 14>   H                      -1.907718            -1.481460            -9.705796
| 15>   H                      -3.138934            -2.311804            -8.966968
| 16>   H                      -2.843604            -0.810400            -8.339234
| 17>   C                      -1.210733            0.053605             -4.813509
| 18>   O                      -0.885088            0.429170             -6.126763
| 19>   H                      -1.162535            -0.243581            -6.799587
| 20>   H                      -1.991848            -0.573983            -4.809923
| 21>   H                      -0.444943            -0.527498            -4.388669
| 22>   H                      -1.344714            0.886712             -4.154341
| 23> *
| 24>
| 25> #Run DFT-D3 single point of the molecule with dimer basis set
| 26> $new_job
| 27> %base "5-47_DFT_A"
| 28> ! wB97X-D3 def2-TZVP TIGHTSCF CHELPG PMODEL
| 29>
| 30> %scf
| 31> MaxIter 1000
| 32> end
| 33>
| 34> * xyz 0 1
| 35>   C                      -2.327879            -1.689422            -8.778547
| 36>   O                      -1.414397            -2.216028            -7.842568
| 37>   H                      -1.431879            -3.135477            -8.159358
| 38>   H                      -1.907718            -1.481460            -9.705796
| 39>   H                      -3.138934            -2.311804            -8.966968
| 40>   H                      -2.843604            -0.810400            -8.339234
| 41>   C                    : -1.210733            0.053605             -4.813509
| 42>   O                    : -0.885088            0.429170             -6.126763
| 43>   H                    : -1.162535            -0.243581            -6.799587
| 44>   H                    : -1.991848            -0.573983            -4.809923
| 45>   H                    : -0.444943            -0.527498            -4.388669
| 46>   H                    : -1.344714            0.886712             -4.154341
| 47> *
| 48>
| 49> #Run DFT-D3 single point of the particle with dimer basis set
| 50> $new_job
| 51> %base "5-47_DFT_B"
| 52> ! wB97X-D3 def2-TZVP TIGHTSCF CHELPG PMODEL
| 53>
| 54> %scf
| 55> MaxIter 1000
| 56> end
| 57>
| 58> * xyz 0 1
| 59>   C                    : -2.327879            -1.689422            -8.778547
| 60>   O                    : -1.414397            -2.216028            -7.842568
| 61>   H                    : -1.431879            -3.135477            -8.159358
| 62>   H                    : -1.907718            -1.481460            -9.705796
| 63>   H                    : -3.138934            -2.311804            -8.966968
| 64>   H                    : -2.843604            -0.810400            -8.339234
| 65>   C                      -1.210733            0.053605             -4.813509
| 66>   O                      -0.885088            0.429170             -6.126763
| 67>   H                      -1.162535            -0.243581            -6.799587
| 68>   H                      -1.991848            -0.573983            -4.809923
| 69>   H                      -0.444943            -0.527498            -4.388669
| 70>   H                      -1.344714            0.886712             -4.154341
| 71> *
| 72>
| 73>                          ****END OF INPUT****
 Total Charge           Charge          ....    0
 Multiplicity           Mult            ....    1
 Number of Electrons    NEL             ....   36
Dispersion correction           -0.001642450
FINAL SINGLE POINT ENERGY      -231.456656859076
Dispersion correction           -0.000207047
FINAL SINGLE POINT ENERGY      -115.726754278727

CARTESIAN COORDINATES (ANGSTROEM)
---------------------------------
  C     -2.327879   -1.689422   -8.778547
  O     -1.414397   -2.216028   -7.842568
  H     -1.431879   -3.135477   -8.159358
  H     -1.907718   -1.481460   -9.705796
  H     -3.138934   -2.311804   -8.966968
  H     -2.843604   -0.810400   -8.339234
  C     -1.210733    0.053605   -4.813509
  O     -0.885088    0.429170   -6.126763
  H     -1.162535   -0.243581   -6.799587
  H     -1.991848   -0.573983   -4.809923
  H     -0.444943   -0.527498   -4.388669
  H     -1.344714    0.886712   -4.154341

 Multiplicity           Mult            ....    1
 Number of Electrons    NEL             ....   18
 Basis Dimension        Dim             ....  172

ORBITAL ENERGIES
----------------

  NO   OCC          E(Eh)            E(eV)
   0   2.0000     -19.228246      -523.2272
   1   2.0000     -10.294062      -280.1157
   2   2.0000      -1.128903       -30.7190
   3   2.0000      -0.807550       -21.9745
   4   2.0000      -0.617778       -16.8106
   5   2.0000      -0.541911       -14.7462
   6   2.0000      -0.537161       -14.6169
   7   2.0000      -0.431746       -11.7484
   8   2.0000      -0.368455       -10.0262
   9   0.0000       0.068370         1.8604
  10   0.0000       0.134848         3.6694
  11   0.0000       0.153397         4.1741
  12   0.0000       0.163549         4.4504
  13   0.0000       0.190510         5.1840

MULLIKEN ATOMIC CHARGES
-----------------------
   0 C :    0.000482
   1 O :   -0.002070
   2 H :   -0.000113
   3 H :   -0.000217
   4 H :    0.000031
   5 H :   -0.005087
   6 C :   -0.148539
   7 O :   -0.487073
   8 H :    0.318398
   9 H :    0.108569
  10 H :    0.099583
  11 H :    0.116036
Sum of atomic charges:   -0.0000000

LOEWDIN ATOMIC CHARGES
----------------------
   0 C :   -0.006417
   1 O :   -0.008904
   2 H :   -0.000352
   3 H :   -0.000123
   4 H :   -0.000062
   5 H :   -0.003255
   6 C :   -0.369743
   7 O :   -0.076450
   8 H :    0.192665
   9 H :    0.077226
  10 H :    0.090171
  11 H :    0.105244

  Mayer bond orders larger than 0.1
B(  6-C ,  7-O ) :   0.9886 B(  6-C ,  9-H ) :   0.9866 B(  6-C , 10-H ) :   0.9821
B(  6-C , 11-H ) :   0.9755 B(  7-O ,  8-H ) :   0.8992

Dispersion correction           -0.000227985
FINAL SINGLE POINT ENERGY      -115.725071470250

DIPOLE MOMENT
-------------
                                X             Y             Z
Electronic contribution:      0.36408       0.64510      -1.58692
Nuclear contribution   :     -0.69065      -1.25238       1.71457
                        -----------------------------------------
Total Dipole Moment    :     -0.32657      -0.60728       0.12766
                        -----------------------------------------
Magnitude (a.u.)       :      0.70124
Magnitude (Debye)      :      1.78241

Rotational constants in cm-1:     4.710967     0.845224     0.807273
Rotational constants in MHz : 141231.248357 25339.174230 24201.438765

                             ****ORCA TERMINATED NORMALLY****
TOTAL RUN TIME: 0 days 0 hours 0 minutes 58 seconds 968 msec
