                         Program Version 4.1.2  - RELEASE  -
|  1> #Run DFT-D3 single point of the dimer
|  2> ! wB97X-D3 def2-TZVP TIGHTSCF CHELPG PMODEL PAL8
|  3>
|  4> %base "16-131_DFT_AB"
|  5>
|  6> %scf
|  7> MaxIter 1000
|  8> end
|  9>
| 10> * xyz 0 1
| 11>   C                      -5.423742            -0.385399            -2.568477
| 12>   O                      -6.072185            -0.124848            -3.822119
| 13>   H                      -6.889635            0.328356             -3.630966
| 14>   H                      -5.797947            -1.302258            -2.110480
| 15>   H                      -4.343157            -0.522965            -2.760718
| 16>   H                      -5.495436            0.461736             -1.828739
| 17>   C                      -9.138662            -0.854459            -2.718519
| 18>   O                      -8.785156            0.313220             -3.419192
| 19>   H                      -9.518352            0.917862             -3.590544
| 20>   H                      -9.971583            -1.408177            -3.173794
| 21>   H                      -8.266306            -1.577687            -2.643014
| 22>   H                      -9.458797            -0.554735            -1.694439
| 23> *
| 24>
| 25> #Run DFT-D3 single point of the molecule with dimer basis set
| 26> $new_job
| 27> %base "16-131_DFT_A"
| 28> ! wB97X-D3 def2-TZVP TIGHTSCF CHELPG PMODEL
| 29>
| 30> %scf
| 31> MaxIter 1000
| 32> end
| 33>
| 34> * xyz 0 1
| 35>   C                      -5.423742            -0.385399            -2.568477
| 36>   O                      -6.072185            -0.124848            -3.822119
| 37>   H                      -6.889635            0.328356             -3.630966
| 38>   H                      -5.797947            -1.302258            -2.110480
| 39>   H                      -4.343157            -0.522965            -2.760718
| 40>   H                      -5.495436            0.461736             -1.828739
| 41>   C                    : -9.138662            -0.854459            -2.718519
| 42>   O                    : -8.785156            0.313220             -3.419192
| 43>   H                    : -9.518352            0.917862             -3.590544
| 44>   H                    : -9.971583            -1.408177            -3.173794
| 45>   H                    : -8.266306            -1.577687            -2.643014
| 46>   H                    : -9.458797            -0.554735            -1.694439
| 47> *
| 48>
| 49> #Run DFT-D3 single point of the particle with dimer basis set
| 50> $new_job
| 51> %base "16-131_DFT_B"
| 52> ! wB97X-D3 def2-TZVP TIGHTSCF CHELPG PMODEL
| 53>
| 54> %scf
| 55> MaxIter 1000
| 56> end
| 57>
| 58> * xyz 0 1
| 59>   C                    : -5.423742            -0.385399            -2.568477
| 60>   O                    : -6.072185            -0.124848            -3.822119
| 61>   H                    : -6.889635            0.328356             -3.630966
| 62>   H                    : -5.797947            -1.302258            -2.110480
| 63>   H                    : -4.343157            -0.522965            -2.760718
| 64>   H                    : -5.495436            0.461736             -1.828739
| 65>   C                      -9.138662            -0.854459            -2.718519
| 66>   O                      -8.785156            0.313220             -3.419192
| 67>   H                      -9.518352            0.917862             -3.590544
| 68>   H                      -9.971583            -1.408177            -3.173794
| 69>   H                      -8.266306            -1.577687            -2.643014
| 70>   H                      -9.458797            -0.554735            -1.694439
| 71> *
| 72>
| 73>                          ****END OF INPUT****
 Total Charge           Charge          ....    0
 Multiplicity           Mult            ....    1
 Number of Electrons    NEL             ....   36
Dispersion correction           -0.002107106
FINAL SINGLE POINT ENERGY      -231.477798527132
Dispersion correction           -0.000261530
FINAL SINGLE POINT ENERGY      -115.736486393762

CARTESIAN COORDINATES (ANGSTROEM)
---------------------------------
  C     -5.423742   -0.385399   -2.568477
  O     -6.072185   -0.124848   -3.822119
  H     -6.889635    0.328356   -3.630966
  H     -5.797947   -1.302258   -2.110480
  H     -4.343157   -0.522965   -2.760718
  H     -5.495436    0.461736   -1.828739
  C     -9.138662   -0.854459   -2.718519
  O     -8.785156    0.313220   -3.419192
  H     -9.518352    0.917862   -3.590544
  H     -9.971583   -1.408177   -3.173794
  H     -8.266306   -1.577687   -2.643014
  H     -9.458797   -0.554735   -1.694439

 Multiplicity           Mult            ....    1
 Number of Electrons    NEL             ....   18
 Basis Dimension        Dim             ....  172

ORBITAL ENERGIES
----------------

  NO   OCC          E(Eh)            E(eV)
   0   2.0000     -19.228602      -523.2369
   1   2.0000     -10.320979      -280.8481
   2   2.0000      -1.133561       -30.8458
   3   2.0000      -0.792721       -21.5710
   4   2.0000      -0.612450       -16.6656
   5   2.0000      -0.539463       -14.6795
   6   2.0000      -0.526254       -14.3201
   7   2.0000      -0.424095       -11.5402
   8   2.0000      -0.370837       -10.0910
   9   0.0000       0.097346         2.6489
  10   0.0000       0.122577         3.3355
  11   0.0000       0.152589         4.1522
  12   0.0000       0.188990         5.1427
  13   0.0000       0.200594         5.4584

MULLIKEN ATOMIC CHARGES
-----------------------
   0 C :    0.002781
   1 O :   -0.000215
   2 H :   -0.008586
   3 H :   -0.000930
   4 H :    0.000002
   5 H :   -0.001158
   6 C :   -0.148710
   7 O :   -0.482511
   8 H :    0.316361
   9 H :    0.103248
  10 H :    0.123463
  11 H :    0.096254
Sum of atomic charges:    0.0000000

LOEWDIN ATOMIC CHARGES
----------------------
   0 C :   -0.004684
   1 O :   -0.006417
   2 H :   -0.043157
   3 H :   -0.002275
   4 H :   -0.000024
   5 H :   -0.000274
   6 C :   -0.387278
   7 O :   -0.038130
   8 H :    0.170514
   9 H :    0.093790
  10 H :    0.120645
  11 H :    0.097291

  Mayer bond orders larger than 0.1
B(  6-C ,  7-O ) :   0.9801 B(  6-C ,  9-H ) :   0.9697 B(  6-C , 10-H ) :   0.9715
B(  6-C , 11-H ) :   0.9810 B(  7-O ,  8-H ) :   0.8902

Dispersion correction           -0.000258221
FINAL SINGLE POINT ENERGY      -115.733982134350

DIPOLE MOMENT
-------------
                                X             Y             Z
Electronic contribution:      0.56957       1.44641      -0.96093
Nuclear contribution   :     -1.20107      -1.52762       1.12107
                        -----------------------------------------
Total Dipole Moment    :     -0.63150      -0.08120       0.16014
                        -----------------------------------------
Magnitude (a.u.)       :      0.65653
Magnitude (Debye)      :      1.66876

Rotational constants in cm-1:     4.247367     0.824600     0.795143
Rotational constants in MHz : 127332.863719 24720.894230 23837.789166

                             ****ORCA TERMINATED NORMALLY****
TOTAL RUN TIME: 0 days 0 hours 1 minutes 9 seconds 164 msec
