                         Program Version 4.1.2  - RELEASE  -
|  1> #Run DFT-D3 single point of the dimer
|  2> ! wB97X-D3 def2-TZVP TIGHTSCF CHELPG PMODEL PAL8
|  3>
|  4> %base "1-107_DFT_AB"
|  5>
|  6> %scf
|  7> MaxIter 1000
|  8> end
|  9>
| 10> * xyz 0 1
| 11>   C                      -0.021919            8.009453             2.783988
| 12>   O                      -0.528219            7.199774             3.833651
| 13>   H                      0.125578             6.504699             4.084652
| 14>   H                      0.915588             8.444604             3.152632
| 15>   H                      0.145282             7.447361             1.830952
| 16>   H                      -0.773289            8.872872             2.476492
| 17>   C                      4.423346             9.794990             1.911556
| 18>   O                      4.461821             9.759707             3.374623
| 19>   H                      4.307610             8.886481             3.683218
| 20>   H                      4.804517             10.728253            1.457962
| 21>   H                      4.994910             8.932887             1.526791
| 22>   H                      3.371029             9.677512             1.573245
| 23> *
| 24>
| 25> #Run DFT-D3 single point of the molecule with dimer basis set
| 26> $new_job
| 27> %base "1-107_DFT_A"
| 28> ! wB97X-D3 def2-TZVP TIGHTSCF CHELPG PMODEL
| 29>
| 30> %scf
| 31> MaxIter 1000
| 32> end
| 33>
| 34> * xyz 0 1
| 35>   C                      -0.021919            8.009453             2.783988
| 36>   O                      -0.528219            7.199774             3.833651
| 37>   H                      0.125578             6.504699             4.084652
| 38>   H                      0.915588             8.444604             3.152632
| 39>   H                      0.145282             7.447361             1.830952
| 40>   H                      -0.773289            8.872872             2.476492
| 41>   C                    : 4.423346             9.794990             1.911556
| 42>   O                    : 4.461821             9.759707             3.374623
| 43>   H                    : 4.307610             8.886481             3.683218
| 44>   H                    : 4.804517             10.728253            1.457962
| 45>   H                    : 4.994910             8.932887             1.526791
| 46>   H                    : 3.371029             9.677512             1.573245
| 47> *
| 48>
| 49> #Run DFT-D3 single point of the particle with dimer basis set
| 50> $new_job
| 51> %base "1-107_DFT_B"
| 52> ! wB97X-D3 def2-TZVP TIGHTSCF CHELPG PMODEL
| 53>
| 54> %scf
| 55> MaxIter 1000
| 56> end
| 57>
| 58> * xyz 0 1
| 59>   C                    : -0.021919            8.009453             2.783988
| 60>   O                    : -0.528219            7.199774             3.833651
| 61>   H                    : 0.125578             6.504699             4.084652
| 62>   H                    : 0.915588             8.444604             3.152632
| 63>   H                    : 0.145282             7.447361             1.830952
| 64>   H                    : -0.773289            8.872872             2.476492
| 65>   C                      4.423346             9.794990             1.911556
| 66>   O                      4.461821             9.759707             3.374623
| 67>   H                      4.307610             8.886481             3.683218
| 68>   H                      4.804517             10.728253            1.457962
| 69>   H                      4.994910             8.932887             1.526791
| 70>   H                      3.371029             9.677512             1.573245
| 71> *
| 72>
| 73>                          ****END OF INPUT****
 Total Charge           Charge          ....    0
 Multiplicity           Mult            ....    1
 Number of Electrons    NEL             ....   36
Dispersion correction           -0.001037087
FINAL SINGLE POINT ENERGY      -231.461780149936
Dispersion correction           -0.000261686
FINAL SINGLE POINT ENERGY      -115.729120307458

CARTESIAN COORDINATES (ANGSTROEM)
---------------------------------
  C     -0.021919    8.009453    2.783988
  O     -0.528219    7.199774    3.833651
  H      0.125578    6.504699    4.084652
  H      0.915588    8.444604    3.152632
  H      0.145282    7.447361    1.830952
  H     -0.773289    8.872872    2.476492
  C      4.423346    9.794990    1.911556
  O      4.461821    9.759707    3.374623
  H      4.307610    8.886481    3.683218
  H      4.804517   10.728253    1.457962
  H      4.994910    8.932887    1.526791
  H      3.371029    9.677512    1.573245

 Multiplicity           Mult            ....    1
 Number of Electrons    NEL             ....   18
 Basis Dimension        Dim             ....  172

ORBITAL ENERGIES
----------------

  NO   OCC          E(Eh)            E(eV)
   0   2.0000     -19.226602      -523.1824
   1   2.0000     -10.323249      -280.9099
   2   2.0000      -1.124407       -30.5967
   3   2.0000      -0.797163       -21.6919
   4   2.0000      -0.602731       -16.4011
   5   2.0000      -0.533901       -14.5282
   6   2.0000      -0.528427       -14.3792
   7   2.0000      -0.432139       -11.7591
   8   2.0000      -0.373692       -10.1687
   9   0.0000       0.079993         2.1767
  10   0.0000       0.120846         3.2884
  11   0.0000       0.144074         3.9205
  12   0.0000       0.162610         4.4248
  13   0.0000       0.186656         5.0792

MULLIKEN ATOMIC CHARGES
-----------------------
   0 C :    0.000035
   1 O :   -0.000004
   2 H :   -0.000012
   3 H :   -0.001693
   4 H :    0.000010
   5 H :    0.000023
   6 C :   -0.174266
   7 O :   -0.483308
   8 H :    0.312396
   9 H :    0.128907
  10 H :    0.110571
  11 H :    0.107339
Sum of atomic charges:    0.0000000

LOEWDIN ATOMIC CHARGES
----------------------
   0 C :   -0.000436
   1 O :   -0.000009
   2 H :   -0.000001
   3 H :   -0.000846
   4 H :   -0.000049
   5 H :   -0.000007
   6 C :   -0.350398
   7 O :   -0.105705
   8 H :    0.149885
   9 H :    0.110632
  10 H :    0.098559
  11 H :    0.098376

  Mayer bond orders larger than 0.1
B(  6-C ,  7-O ) :   0.9892 B(  6-C ,  9-H ) :   0.9701 B(  6-C , 10-H ) :   0.9812
B(  6-C , 11-H ) :   0.9737 B(  7-O ,  8-H ) :   0.9022

Dispersion correction           -0.000263351
FINAL SINGLE POINT ENERGY      -115.732486672624

DIPOLE MOMENT
-------------
                                X             Y             Z
Electronic contribution:      0.14200       0.16731       1.80530
Nuclear contribution   :     -0.24830      -0.71678      -2.24294
                        -----------------------------------------
Total Dipole Moment    :     -0.10630      -0.54947      -0.43763
                        -----------------------------------------
Magnitude (a.u.)       :      0.71045
Magnitude (Debye)      :      1.80582

Rotational constants in cm-1:     4.286176     0.780261     0.754551
Rotational constants in MHz : 128496.333359 23391.629279 22620.863436

                             ****ORCA TERMINATED NORMALLY****
TOTAL RUN TIME: 0 days 0 hours 4 minutes 17 seconds 412 msec
