                         Program Version 4.1.2  - RELEASE  -
|  1> #Run DFT-D3 single point of the dimer
|  2> ! wB97X-D3 def2-TZVP TIGHTSCF CHELPG PMODEL PAL8
|  3>
|  4> %base "10-210_DFT_AB"
|  5>
|  6> %scf
|  7> MaxIter 1000
|  8> end
|  9>
| 10> * xyz 0 1
| 11>   C                      7.627756             -8.285923            -6.683459
| 12>   O                      8.961988             -7.889269            -7.122497
| 13>   H                      8.855676             -6.925130            -7.287756
| 14>   H                      6.814872             -8.049190            -7.415096
| 15>   H                      7.716530             -9.343361            -6.572529
| 16>   H                      7.367304             -7.829640            -5.696377
| 17>   C                      10.023771            -10.286522           -9.739660
| 18>   O                      10.617201            -10.202391           -8.395839
| 19>   H                      10.159955            -9.439116            -8.025711
| 20>   H                      8.981691             -10.357590           -9.573096
| 21>   H                      10.004867            -9.246787            -10.215997
| 22>   H                      10.421825            -10.998180           -10.401071
| 23> *
| 24>
| 25> #Run DFT-D3 single point of the molecule with dimer basis set
| 26> $new_job
| 27> %base "10-210_DFT_A"
| 28> ! wB97X-D3 def2-TZVP TIGHTSCF CHELPG PMODEL
| 29>
| 30> %scf
| 31> MaxIter 1000
| 32> end
| 33>
| 34> * xyz 0 1
| 35>   C                      7.627756             -8.285923            -6.683459
| 36>   O                      8.961988             -7.889269            -7.122497
| 37>   H                      8.855676             -6.925130            -7.287756
| 38>   H                      6.814872             -8.049190            -7.415096
| 39>   H                      7.716530             -9.343361            -6.572529
| 40>   H                      7.367304             -7.829640            -5.696377
| 41>   C                    : 10.023771            -10.286522           -9.739660
| 42>   O                    : 10.617201            -10.202391           -8.395839
| 43>   H                    : 10.159955            -9.439116            -8.025711
| 44>   H                    : 8.981691             -10.357590           -9.573096
| 45>   H                    : 10.004867            -9.246787            -10.215997
| 46>   H                    : 10.421825            -10.998180           -10.401071
| 47> *
| 48>
| 49> #Run DFT-D3 single point of the particle with dimer basis set
| 50> $new_job
| 51> %base "10-210_DFT_B"
| 52> ! wB97X-D3 def2-TZVP TIGHTSCF CHELPG PMODEL
| 53>
| 54> %scf
| 55> MaxIter 1000
| 56> end
| 57>
| 58> * xyz 0 1
| 59>   C                    : 7.627756             -8.285923            -6.683459
| 60>   O                    : 8.961988             -7.889269            -7.122497
| 61>   H                    : 8.855676             -6.925130            -7.287756
| 62>   H                    : 6.814872             -8.049190            -7.415096
| 63>   H                    : 7.716530             -9.343361            -6.572529
| 64>   H                    : 7.367304             -7.829640            -5.696377
| 65>   C                      10.023771            -10.286522           -9.739660
| 66>   O                      10.617201            -10.202391           -8.395839
| 67>   H                      10.159955            -9.439116            -8.025711
| 68>   H                      8.981691             -10.357590           -9.573096
| 69>   H                      10.004867            -9.246787            -10.215997
| 70>   H                      10.421825            -10.998180           -10.401071
| 71> *
| 72>
| 73>                          ****END OF INPUT****
 Total Charge           Charge          ....    0
 Multiplicity           Mult            ....    1
 Number of Electrons    NEL             ....   36
Dispersion correction           -0.001809290
FINAL SINGLE POINT ENERGY      -231.465109833877
Dispersion correction           -0.000255230
FINAL SINGLE POINT ENERGY      -115.733929275087

CARTESIAN COORDINATES (ANGSTROEM)
---------------------------------
  C      7.627756   -8.285923   -6.683459
  O      8.961988   -7.889269   -7.122497
  H      8.855676   -6.925130   -7.287756
  H      6.814872   -8.049190   -7.415096
  H      7.716530   -9.343361   -6.572529
  H      7.367304   -7.829640   -5.696377
  C     10.023771  -10.286522   -9.739660
  O     10.617201  -10.202391   -8.395839
  H     10.159955   -9.439116   -8.025711
  H      8.981691  -10.357590   -9.573096
  H     10.004867   -9.246787  -10.215997
  H     10.421825  -10.998180  -10.401071

 Multiplicity           Mult            ....    1
 Number of Electrons    NEL             ....   18
 Basis Dimension        Dim             ....  172

ORBITAL ENERGIES
----------------

  NO   OCC          E(Eh)            E(eV)
   0   2.0000     -19.231698      -523.3211
   1   2.0000     -10.316384      -280.7231
   2   2.0000      -1.123451       -30.5707
   3   2.0000      -0.799978       -21.7685
   4   2.0000      -0.604104       -16.4385
   5   2.0000      -0.542658       -14.7665
   6   2.0000      -0.518832       -14.1181
   7   2.0000      -0.448762       -12.2114
   8   2.0000      -0.368503       -10.0275
   9   0.0000       0.066794         1.8176
  10   0.0000       0.130806         3.5594
  11   0.0000       0.146580         3.9887
  12   0.0000       0.155555         4.2329
  13   0.0000       0.192316         5.2332

MULLIKEN ATOMIC CHARGES
-----------------------
   0 C :   -0.000834
   1 O :   -0.001327
   2 H :   -0.000058
   3 H :    0.000006
   4 H :   -0.001925
   5 H :   -0.000094
   6 C :   -0.207625
   7 O :   -0.469130
   8 H :    0.311978
   9 H :    0.122856
  10 H :    0.103457
  11 H :    0.142695
Sum of atomic charges:    0.0000000

LOEWDIN ATOMIC CHARGES
----------------------
   0 C :   -0.002718
   1 O :   -0.011108
   2 H :   -0.000520
   3 H :   -0.000045
   4 H :   -0.001091
   5 H :   -0.000048
   6 C :   -0.342616
   7 O :   -0.111947
   8 H :    0.173420
   9 H :    0.091872
  10 H :    0.106653
  11 H :    0.098150

  Mayer bond orders larger than 0.1
B(  6-C ,  7-O ) :   0.9777 B(  6-C ,  9-H ) :   0.9778 B(  6-C , 10-H ) :   0.9803
B(  6-C , 11-H ) :   0.9692 B(  7-O ,  8-H ) :   0.9104

Dispersion correction           -0.000227334
FINAL SINGLE POINT ENERGY      -115.723181493408

DIPOLE MOMENT
-------------
                                X             Y             Z
Electronic contribution:      0.98762      -0.32628       1.55907
Nuclear contribution   :     -1.53931       0.74822      -1.89926
                        -----------------------------------------
Total Dipole Moment    :     -0.55169       0.42194      -0.34019
                        -----------------------------------------
Magnitude (a.u.)       :      0.77339
Magnitude (Debye)      :      1.96579

Rotational constants in cm-1:     4.302215     0.795777     0.752237
Rotational constants in MHz : 128977.155123 23856.790803 22551.495579

                             ****ORCA TERMINATED NORMALLY****
TOTAL RUN TIME: 0 days 0 hours 1 minutes 7 seconds 260 msec
