                         Program Version 4.1.2  - RELEASE  -
|  1> #Run DFT-D3 single point of the dimer
|  2> ! wB97X-D3 def2-TZVP TIGHTSCF CHELPG PMODEL PAL8
|  3>
|  4> %base "13-149_DFT_AB"
|  5>
|  6> %scf
|  7> MaxIter 1000
|  8> end
|  9>
| 10> * xyz 0 1
| 11>   C                      9.891550             0.480431             3.243141
| 12>   O                      8.944325             0.051359             2.272123
| 13>   H                      9.402910             -0.576865            1.694396
| 14>   H                      9.507481             1.242253             3.932442
| 15>   H                      10.277829            -0.410366            3.756870
| 16>   H                      10.825653            0.996837             2.785037
| 17>   C                      6.434356             -0.699909            0.170540
| 18>   O                      5.365112             -0.900718            -0.728874
| 19>   H                      5.747872             -1.539752            -1.360051
| 20>   H                      7.251423             -0.122090            -0.272129
| 21>   H                      6.045687             -0.224587            1.058624
| 22>   H                      6.784626             -1.682548            0.522621
| 23> *
| 24>
| 25> #Run DFT-D3 single point of the molecule with dimer basis set
| 26> $new_job
| 27> %base "13-149_DFT_A"
| 28> ! wB97X-D3 def2-TZVP TIGHTSCF CHELPG PMODEL
| 29>
| 30> %scf
| 31> MaxIter 1000
| 32> end
| 33>
| 34> * xyz 0 1
| 35>   C                      9.891550             0.480431             3.243141
| 36>   O                      8.944325             0.051359             2.272123
| 37>   H                      9.402910             -0.576865            1.694396
| 38>   H                      9.507481             1.242253             3.932442
| 39>   H                      10.277829            -0.410366            3.756870
| 40>   H                      10.825653            0.996837             2.785037
| 41>   C                    : 6.434356             -0.699909            0.170540
| 42>   O                    : 5.365112             -0.900718            -0.728874
| 43>   H                    : 5.747872             -1.539752            -1.360051
| 44>   H                    : 7.251423             -0.122090            -0.272129
| 45>   H                    : 6.045687             -0.224587            1.058624
| 46>   H                    : 6.784626             -1.682548            0.522621
| 47> *
| 48>
| 49> #Run DFT-D3 single point of the particle with dimer basis set
| 50> $new_job
| 51> %base "13-149_DFT_B"
| 52> ! wB97X-D3 def2-TZVP TIGHTSCF CHELPG PMODEL
| 53>
| 54> %scf
| 55> MaxIter 1000
| 56> end
| 57>
| 58> * xyz 0 1
| 59>   C                    : 9.891550             0.480431             3.243141
| 60>   O                    : 8.944325             0.051359             2.272123
| 61>   H                    : 9.402910             -0.576865            1.694396
| 62>   H                    : 9.507481             1.242253             3.932442
| 63>   H                    : 10.277829            -0.410366            3.756870
| 64>   H                    : 10.825653            0.996837             2.785037
| 65>   C                      6.434356             -0.699909            0.170540
| 66>   O                      5.365112             -0.900718            -0.728874
| 67>   H                      5.747872             -1.539752            -1.360051
| 68>   H                      7.251423             -0.122090            -0.272129
| 69>   H                      6.045687             -0.224587            1.058624
| 70>   H                      6.784626             -1.682548            0.522621
| 71> *
| 72>
| 73>                          ****END OF INPUT****
 Total Charge           Charge          ....    0
 Multiplicity           Mult            ....    1
 Number of Electrons    NEL             ....   36
Dispersion correction           -0.001409670
FINAL SINGLE POINT ENERGY      -231.468376902866
Dispersion correction           -0.000251833
FINAL SINGLE POINT ENERGY      -115.732413205165

CARTESIAN COORDINATES (ANGSTROEM)
---------------------------------
  C      9.891550    0.480431    3.243141
  O      8.944325    0.051359    2.272123
  H      9.402910   -0.576865    1.694396
  H      9.507481    1.242253    3.932442
  H     10.277829   -0.410366    3.756870
  H     10.825653    0.996837    2.785037
  C      6.434356   -0.699909    0.170540
  O      5.365112   -0.900718   -0.728874
  H      5.747872   -1.539752   -1.360051
  H      7.251423   -0.122090   -0.272129
  H      6.045687   -0.224587    1.058624
  H      6.784626   -1.682548    0.522621

 Multiplicity           Mult            ....    1
 Number of Electrons    NEL             ....   18
 Basis Dimension        Dim             ....  172

ORBITAL ENERGIES
----------------

  NO   OCC          E(Eh)            E(eV)
   0   2.0000     -19.231569      -523.3176
   1   2.0000     -10.311548      -280.5915
   2   2.0000      -1.137458       -30.9518
   3   2.0000      -0.791060       -21.5258
   4   2.0000      -0.606625       -16.5071
   5   2.0000      -0.548869       -14.9355
   6   2.0000      -0.524495       -14.2722
   7   2.0000      -0.436437       -11.8761
   8   2.0000      -0.374113       -10.1801
   9   0.0000       0.082220         2.2373
  10   0.0000       0.112752         3.0681
  11   0.0000       0.139881         3.8064
  12   0.0000       0.179374         4.8810
  13   0.0000       0.191796         5.2190

MULLIKEN ATOMIC CHARGES
-----------------------
   0 C :    0.000106
   1 O :    0.000263
   2 H :   -0.000777
   3 H :   -0.000007
   4 H :   -0.000009
   5 H :   -0.000008
   6 C :   -0.167929
   7 O :   -0.463761
   8 H :    0.313838
   9 H :    0.103632
  10 H :    0.119887
  11 H :    0.094764
Sum of atomic charges:   -0.0000000

LOEWDIN ATOMIC CHARGES
----------------------
   0 C :   -0.000072
   1 O :   -0.001586
   2 H :   -0.001294
   3 H :   -0.000003
   4 H :   -0.000002
   5 H :   -0.000002
   6 C :   -0.392316
   7 O :   -0.082256
   8 H :    0.180890
   9 H :    0.095008
  10 H :    0.105702
  11 H :    0.095931

  Mayer bond orders larger than 0.1
B(  6-C ,  7-O ) :   1.0074 B(  6-C ,  9-H ) :   0.9701 B(  6-C , 10-H ) :   0.9736
B(  6-C , 11-H ) :   0.9843 B(  7-O ,  8-H ) :   0.9016

Dispersion correction           -0.000217383
FINAL SINGLE POINT ENERGY      -115.734846209695

DIPOLE MOMENT
-------------
                                X             Y             Z
Electronic contribution:     -1.43928      -0.06482      -1.10117
Nuclear contribution   :      2.07117      -0.25581       1.07775
                        -----------------------------------------
Total Dipole Moment    :      0.63188      -0.32063      -0.02342
                        -----------------------------------------
Magnitude (a.u.)       :      0.70896
Magnitude (Debye)      :      1.80203

Rotational constants in cm-1:     4.180320     0.842694     0.815318
Rotational constants in MHz : 125322.845311 25263.328122 24442.608645

                             ****ORCA TERMINATED NORMALLY****
TOTAL RUN TIME: 0 days 0 hours 1 minutes 7 seconds 204 msec
