                         Program Version 4.1.2  - RELEASE  -
|  1> #Run DFT-D3 single point of the dimer
|  2> ! wB97X-D3 def2-TZVP TIGHTSCF CHELPG PMODEL PAL8
|  3>
|  4> %base "6-13_DFT_AB"
|  5>
|  6> %scf
|  7> MaxIter 1000
|  8> end
|  9>
| 10> * xyz 0 1
| 11>   C                      -8.943252            -7.348248            2.064146
| 12>   O                      -8.854877            -8.616783            1.511822
| 13>   H                      -9.785357            -8.938947            1.557192
| 14>   H                      -7.983475            -6.876313            1.956709
| 15>   H                      -9.635888            -6.670991            1.500144
| 16>   H                      -9.236388            -7.364689            3.074729
| 17>   C                      -6.449756            -7.615354            -0.842301
| 18>   O                      -6.509052            -8.805502            -1.705923
| 19>   H                      -6.635960            -9.581778            -1.119752
| 20>   H                      -5.448720            -7.302162            -0.761370
| 21>   H                      -6.964512            -6.780777            -1.292883
| 22>   H                      -6.923662            -7.772756            0.107971
| 23> *
| 24>
| 25> #Run DFT-D3 single point of the molecule with dimer basis set
| 26> $new_job
| 27> %base "6-13_DFT_A"
| 28> ! wB97X-D3 def2-TZVP TIGHTSCF CHELPG PMODEL
| 29>
| 30> %scf
| 31> MaxIter 1000
| 32> end
| 33>
| 34> * xyz 0 1
| 35>   C                      -8.943252            -7.348248            2.064146
| 36>   O                      -8.854877            -8.616783            1.511822
| 37>   H                      -9.785357            -8.938947            1.557192
| 38>   H                      -7.983475            -6.876313            1.956709
| 39>   H                      -9.635888            -6.670991            1.500144
| 40>   H                      -9.236388            -7.364689            3.074729
| 41>   C                    : -6.449756            -7.615354            -0.842301
| 42>   O                    : -6.509052            -8.805502            -1.705923
| 43>   H                    : -6.635960            -9.581778            -1.119752
| 44>   H                    : -5.448720            -7.302162            -0.761370
| 45>   H                    : -6.964512            -6.780777            -1.292883
| 46>   H                    : -6.923662            -7.772756            0.107971
| 47> *
| 48>
| 49> #Run DFT-D3 single point of the particle with dimer basis set
| 50> $new_job
| 51> %base "6-13_DFT_B"
| 52> ! wB97X-D3 def2-TZVP TIGHTSCF CHELPG PMODEL
| 53>
| 54> %scf
| 55> MaxIter 1000
| 56> end
| 57>
| 58> * xyz 0 1
| 59>   C                    : -8.943252            -7.348248            2.064146
| 60>   O                    : -8.854877            -8.616783            1.511822
| 61>   H                    : -9.785357            -8.938947            1.557192
| 62>   H                    : -7.983475            -6.876313            1.956709
| 63>   H                    : -9.635888            -6.670991            1.500144
| 64>   H                    : -9.236388            -7.364689            3.074729
| 65>   C                      -6.449756            -7.615354            -0.842301
| 66>   O                      -6.509052            -8.805502            -1.705923
| 67>   H                      -6.635960            -9.581778            -1.119752
| 68>   H                      -5.448720            -7.302162            -0.761370
| 69>   H                      -6.964512            -6.780777            -1.292883
| 70>   H                      -6.923662            -7.772756            0.107971
| 71> *
| 72>
| 73>                          ****END OF INPUT****
 Total Charge           Charge          ....    0
 Multiplicity           Mult            ....    1
 Number of Electrons    NEL             ....   36
Dispersion correction           -0.001727542
FINAL SINGLE POINT ENERGY      -231.467608922420
Dispersion correction           -0.000214062
FINAL SINGLE POINT ENERGY      -115.733536531633

CARTESIAN COORDINATES (ANGSTROEM)
---------------------------------
  C     -8.943252   -7.348248    2.064146
  O     -8.854877   -8.616783    1.511822
  H     -9.785357   -8.938947    1.557192
  H     -7.983475   -6.876313    1.956709
  H     -9.635888   -6.670991    1.500144
  H     -9.236388   -7.364689    3.074729
  C     -6.449756   -7.615354   -0.842301
  O     -6.509052   -8.805502   -1.705923
  H     -6.635960   -9.581778   -1.119752
  H     -5.448720   -7.302162   -0.761370
  H     -6.964512   -6.780777   -1.292883
  H     -6.923662   -7.772756    0.107971

 Multiplicity           Mult            ....    1
 Number of Electrons    NEL             ....   18
 Basis Dimension        Dim             ....  172

ORBITAL ENERGIES
----------------

  NO   OCC          E(Eh)            E(eV)
   0   2.0000     -19.230178      -523.2797
   1   2.0000     -10.308995      -280.5220
   2   2.0000      -1.114405       -30.3245
   3   2.0000      -0.802712       -21.8429
   4   2.0000      -0.598236       -16.2788
   5   2.0000      -0.541355       -14.7310
   6   2.0000      -0.522514       -14.2183
   7   2.0000      -0.437656       -11.9092
   8   2.0000      -0.374458       -10.1895
   9   0.0000       0.078800         2.1442
  10   0.0000       0.114753         3.1226
  11   0.0000       0.149294         4.0625
  12   0.0000       0.175849         4.7851
  13   0.0000       0.184844         5.0299

MULLIKEN ATOMIC CHARGES
-----------------------
   0 C :    0.000797
   1 O :    0.001031
   2 H :    0.000031
   3 H :   -0.001334
   4 H :   -0.000091
   5 H :   -0.000138
   6 C :   -0.161214
   7 O :   -0.487604
   8 H :    0.315019
   9 H :    0.117062
  10 H :    0.115629
  11 H :    0.100813
Sum of atomic charges:   -0.0000000

LOEWDIN ATOMIC CHARGES
----------------------
   0 C :   -0.006974
   1 O :   -0.003467
   2 H :   -0.000139
   3 H :   -0.004203
   4 H :   -0.000184
   5 H :   -0.000069
   6 C :   -0.331376
   7 O :   -0.126463
   8 H :    0.176368
   9 H :    0.091477
  10 H :    0.104506
  11 H :    0.100524

  Mayer bond orders larger than 0.1
B(  6-C ,  7-O ) :   1.0042 B(  6-C ,  9-H ) :   0.9781 B(  6-C , 10-H ) :   0.9785
B(  6-C , 11-H ) :   0.9836 B(  7-O ,  8-H ) :   0.9006

Dispersion correction           -0.000261058
FINAL SINGLE POINT ENERGY      -115.731592141956

DIPOLE MOMENT
-------------
                                X             Y             Z
Electronic contribution:     -0.03199      -1.38460      -1.11511
Nuclear contribution   :     -0.03181       1.42123       1.86033
                        -----------------------------------------
Total Dipole Moment    :     -0.06380       0.03663       0.74523
                        -----------------------------------------
Magnitude (a.u.)       :      0.74885
Magnitude (Debye)      :      1.90343

Rotational constants in cm-1:     4.422389     0.783068     0.753214
Rotational constants in MHz : 132579.897717 23475.793079 22580.793795

                             ****ORCA TERMINATED NORMALLY****
TOTAL RUN TIME: 0 days 0 hours 1 minutes 5 seconds 112 msec
