                         Program Version 4.1.2  - RELEASE  -
|  1> #Run DFT-D3 single point of the dimer
|  2> ! wB97X-D3 def2-TZVP TIGHTSCF CHELPG PMODEL PAL8
|  3>
|  4> %base "11-106_DFT_AB"
|  5>
|  6> %scf
|  7> MaxIter 1000
|  8> end
|  9>
| 10> * xyz 0 1
| 11>   C                      -8.009871            -4.711269            -2.147200
| 12>   O                      -8.298918            -5.552520            -1.027599
| 13>   H                      -8.177552            -5.122342            -0.191332
| 14>   H                      -8.178726            -5.149591            -3.108748
| 15>   H                      -8.576040            -3.788171            -2.055177
| 16>   H                      -7.060665            -4.281000            -2.058181
| 17>   C                      -6.310086            -3.926838            1.277740
| 18>   O                      -7.731180            -4.197409            1.454962
| 19>   H                      -7.719201            -4.762087            2.278271
| 20>   H                      -5.742679            -4.812015            0.987931
| 21>   H                      -6.110303            -3.214105            0.491601
| 22>   H                      -5.883718            -3.606113            2.231377
| 23> *
| 24>
| 25> #Run DFT-D3 single point of the molecule with dimer basis set
| 26> $new_job
| 27> %base "11-106_DFT_A"
| 28> ! wB97X-D3 def2-TZVP TIGHTSCF CHELPG PMODEL
| 29>
| 30> %scf
| 31> MaxIter 1000
| 32> end
| 33>
| 34> * xyz 0 1
| 35>   C                      -8.009871            -4.711269            -2.147200
| 36>   O                      -8.298918            -5.552520            -1.027599
| 37>   H                      -8.177552            -5.122342            -0.191332
| 38>   H                      -8.178726            -5.149591            -3.108748
| 39>   H                      -8.576040            -3.788171            -2.055177
| 40>   H                      -7.060665            -4.281000            -2.058181
| 41>   C                    : -6.310086            -3.926838            1.277740
| 42>   O                    : -7.731180            -4.197409            1.454962
| 43>   H                    : -7.719201            -4.762087            2.278271
| 44>   H                    : -5.742679            -4.812015            0.987931
| 45>   H                    : -6.110303            -3.214105            0.491601
| 46>   H                    : -5.883718            -3.606113            2.231377
| 47> *
| 48>
| 49> #Run DFT-D3 single point of the particle with dimer basis set
| 50> $new_job
| 51> %base "11-106_DFT_B"
| 52> ! wB97X-D3 def2-TZVP TIGHTSCF CHELPG PMODEL
| 53>
| 54> %scf
| 55> MaxIter 1000
| 56> end
| 57>
| 58> * xyz 0 1
| 59>   C                    : -8.009871            -4.711269            -2.147200
| 60>   O                    : -8.298918            -5.552520            -1.027599
| 61>   H                    : -8.177552            -5.122342            -0.191332
| 62>   H                    : -8.178726            -5.149591            -3.108748
| 63>   H                    : -8.576040            -3.788171            -2.055177
| 64>   H                    : -7.060665            -4.281000            -2.058181
| 65>   C                      -6.310086            -3.926838            1.277740
| 66>   O                      -7.731180            -4.197409            1.454962
| 67>   H                      -7.719201            -4.762087            2.278271
| 68>   H                      -5.742679            -4.812015            0.987931
| 69>   H                      -6.110303            -3.214105            0.491601
| 70>   H                      -5.883718            -3.606113            2.231377
| 71> *
| 72>
| 73>                          ****END OF INPUT****
 Total Charge           Charge          ....    0
 Multiplicity           Mult            ....    1
 Number of Electrons    NEL             ....   36
Dispersion correction           -0.002075622
FINAL SINGLE POINT ENERGY      -231.469243955390
Dispersion correction           -0.000237372
FINAL SINGLE POINT ENERGY      -115.728309609070

CARTESIAN COORDINATES (ANGSTROEM)
---------------------------------
  C     -8.009871   -4.711269   -2.147200
  O     -8.298918   -5.552520   -1.027599
  H     -8.177552   -5.122342   -0.191332
  H     -8.178726   -5.149591   -3.108748
  H     -8.576040   -3.788171   -2.055177
  H     -7.060665   -4.281000   -2.058181
  C     -6.310086   -3.926838    1.277740
  O     -7.731180   -4.197409    1.454962
  H     -7.719201   -4.762087    2.278271
  H     -5.742679   -4.812015    0.987931
  H     -6.110303   -3.214105    0.491601
  H     -5.883718   -3.606113    2.231377

 Multiplicity           Mult            ....    1
 Number of Electrons    NEL             ....   18
 Basis Dimension        Dim             ....  172

ORBITAL ENERGIES
----------------

  NO   OCC          E(Eh)            E(eV)
   0   2.0000     -19.237174      -523.4701
   1   2.0000     -10.315293      -280.6934
   2   2.0000      -1.121294       -30.5120
   3   2.0000      -0.795098       -21.6357
   4   2.0000      -0.599370       -16.3097
   5   2.0000      -0.537176       -14.6173
   6   2.0000      -0.522945       -14.2301
   7   2.0000      -0.445231       -12.1154
   8   2.0000      -0.374264       -10.1843
   9   0.0000       0.093076         2.5327
  10   0.0000       0.120656         3.2832
  11   0.0000       0.149122         4.0578
  12   0.0000       0.184238         5.0134
  13   0.0000       0.191666         5.2155

MULLIKEN ATOMIC CHARGES
-----------------------
   0 C :    0.003400
   1 O :   -0.002682
   2 H :   -0.008000
   3 H :    0.000032
   4 H :   -0.000913
   5 H :   -0.000853
   6 C :   -0.190411
   7 O :   -0.467889
   8 H :    0.315487
   9 H :    0.111945
  10 H :    0.127994
  11 H :    0.111889
Sum of atomic charges:    0.0000000

LOEWDIN ATOMIC CHARGES
----------------------
   0 C :   -0.001835
   1 O :   -0.005528
   2 H :   -0.044179
   3 H :   -0.000016
   4 H :   -0.000189
   5 H :   -0.000718
   6 C :   -0.358538
   7 O :   -0.081042
   8 H :    0.191966
   9 H :    0.096268
  10 H :    0.106162
  11 H :    0.097648

  Mayer bond orders larger than 0.1
B(  6-C ,  7-O ) :   0.9801 B(  6-C ,  9-H ) :   0.9742 B(  6-C , 10-H ) :   0.9749
B(  6-C , 11-H ) :   0.9765 B(  7-O ,  8-H ) :   0.8973

Dispersion correction           -0.000242000
FINAL SINGLE POINT ENERGY      -115.732273026737

DIPOLE MOMENT
-------------
                                X             Y             Z
Electronic contribution:     -1.87534      -0.16322       0.03236
Nuclear contribution   :      2.47561      -0.05809       0.38908
                        -----------------------------------------
Total Dipole Moment    :      0.60026      -0.22131       0.42144
                        -----------------------------------------
Magnitude (a.u.)       :      0.76610
Magnitude (Debye)      :      1.94727

Rotational constants in cm-1:     4.241668     0.797868     0.761923
Rotational constants in MHz : 127162.016959 23919.478703 22841.875922

                             ****ORCA TERMINATED NORMALLY****
TOTAL RUN TIME: 0 days 0 hours 1 minutes 11 seconds 850 msec
