                         Program Version 4.1.2  - RELEASE  -
|  1> #Run DFT-D3 single point of the dimer
|  2> ! wB97X-D3 def2-TZVP TIGHTSCF CHELPG PMODEL PAL8
|  3>
|  4> %base "22-163_DFT_AB"
|  5>
|  6> %scf
|  7> MaxIter 1000
|  8> end
|  9>
| 10> * xyz 0 1
| 11>   C                      1.095944             8.166273             0.776603
| 12>   O                      0.517582             8.047650             -0.461068
| 13>   H                      0.706959             8.852177             -0.975110
| 14>   H                      0.550971             9.003790             1.328476
| 15>   H                      1.245504             7.247085             1.380575
| 16>   H                      2.087410             8.582038             0.714807
| 17>   C                      -2.712632            10.168565            0.735947
| 18>   O                      -1.306672            10.366043            0.611113
| 19>   H                      -1.090374            10.729616            -0.244116
| 20>   H                      -3.258851            11.101495            0.569971
| 21>   H                      -3.092900            9.536533             -0.103540
| 22>   H                      -2.984458            9.562569             1.653365
| 23> *
| 24>
| 25> #Run DFT-D3 single point of the molecule with dimer basis set
| 26> $new_job
| 27> %base "22-163_DFT_A"
| 28> ! wB97X-D3 def2-TZVP TIGHTSCF CHELPG PMODEL
| 29>
| 30> %scf
| 31> MaxIter 1000
| 32> end
| 33>
| 34> * xyz 0 1
| 35>   C                      1.095944             8.166273             0.776603
| 36>   O                      0.517582             8.047650             -0.461068
| 37>   H                      0.706959             8.852177             -0.975110
| 38>   H                      0.550971             9.003790             1.328476
| 39>   H                      1.245504             7.247085             1.380575
| 40>   H                      2.087410             8.582038             0.714807
| 41>   C                    : -2.712632            10.168565            0.735947
| 42>   O                    : -1.306672            10.366043            0.611113
| 43>   H                    : -1.090374            10.729616            -0.244116
| 44>   H                    : -3.258851            11.101495            0.569971
| 45>   H                    : -3.092900            9.536533             -0.103540
| 46>   H                    : -2.984458            9.562569             1.653365
| 47> *
| 48>
| 49> #Run DFT-D3 single point of the particle with dimer basis set
| 50> $new_job
| 51> %base "22-163_DFT_B"
| 52> ! wB97X-D3 def2-TZVP TIGHTSCF CHELPG PMODEL
| 53>
| 54> %scf
| 55> MaxIter 1000
| 56> end
| 57>
| 58> * xyz 0 1
| 59>   C                    : 1.095944             8.166273             0.776603
| 60>   O                    : 0.517582             8.047650             -0.461068
| 61>   H                    : 0.706959             8.852177             -0.975110
| 62>   H                    : 0.550971             9.003790             1.328476
| 63>   H                    : 1.245504             7.247085             1.380575
| 64>   H                    : 2.087410             8.582038             0.714807
| 65>   C                      -2.712632            10.168565            0.735947
| 66>   O                      -1.306672            10.366043            0.611113
| 67>   H                      -1.090374            10.729616            -0.244116
| 68>   H                      -3.258851            11.101495            0.569971
| 69>   H                      -3.092900            9.536533             -0.103540
| 70>   H                      -2.984458            9.562569             1.653365
| 71> *
| 72>
| 73>                          ****END OF INPUT****
 Total Charge           Charge          ....    0
 Multiplicity           Mult            ....    1
 Number of Electrons    NEL             ....   36
Dispersion correction           -0.001888169
FINAL SINGLE POINT ENERGY      -231.459240609848
Dispersion correction           -0.000223215
FINAL SINGLE POINT ENERGY      -115.727847260848

CARTESIAN COORDINATES (ANGSTROEM)
---------------------------------
  C      1.095944    8.166273    0.776603
  O      0.517582    8.047650   -0.461068
  H      0.706959    8.852177   -0.975110
  H      0.550971    9.003790    1.328476
  H      1.245504    7.247085    1.380575
  H      2.087410    8.582038    0.714807
  C     -2.712632   10.168565    0.735947
  O     -1.306672   10.366043    0.611113
  H     -1.090374   10.729616   -0.244116
  H     -3.258851   11.101495    0.569971
  H     -3.092900    9.536533   -0.103540
  H     -2.984458    9.562569    1.653365

 Multiplicity           Mult            ....    1
 Number of Electrons    NEL             ....   18
 Basis Dimension        Dim             ....  172

ORBITAL ENERGIES
----------------

  NO   OCC          E(Eh)            E(eV)
   0   2.0000     -19.230433      -523.2867
   1   2.0000     -10.321936      -280.8742
   2   2.0000      -1.133328       -30.8394
   3   2.0000      -0.793950       -21.6045
   4   2.0000      -0.613524       -16.6948
   5   2.0000      -0.541128       -14.7248
   6   2.0000      -0.518618       -14.1123
   7   2.0000      -0.433501       -11.7962
   8   2.0000      -0.370917       -10.0932
   9   0.0000       0.093663         2.5487
  10   0.0000       0.127647         3.4734
  11   0.0000       0.148296         4.0353
  12   0.0000       0.178786         4.8650
  13   0.0000       0.197704         5.3798

MULLIKEN ATOMIC CHARGES
-----------------------
   0 C :    0.002899
   1 O :   -0.000840
   2 H :   -0.004485
   3 H :   -0.008809
   4 H :    0.000192
   5 H :   -0.000353
   6 C :   -0.174383
   7 O :   -0.470074
   8 H :    0.315519
   9 H :    0.108580
  10 H :    0.100688
  11 H :    0.131067
Sum of atomic charges:    0.0000000

LOEWDIN ATOMIC CHARGES
----------------------
   0 C :   -0.010650
   1 O :   -0.003921
   2 H :   -0.003597
   3 H :   -0.014822
   4 H :   -0.000099
   5 H :   -0.000146
   6 C :   -0.385287
   7 O :   -0.058717
   8 H :    0.164762
   9 H :    0.095878
  10 H :    0.096925
  11 H :    0.119673

  Mayer bond orders larger than 0.1
B(  6-C ,  7-O ) :   0.9852 B(  6-C ,  9-H ) :   0.9713 B(  6-C , 10-H ) :   0.9763
B(  6-C , 11-H ) :   0.9693 B(  7-O ,  8-H ) :   0.8948

Dispersion correction           -0.000252444
FINAL SINGLE POINT ENERGY      -115.731651105334

DIPOLE MOMENT
-------------
                                X             Y             Z
Electronic contribution:      1.82514       0.30945       0.12630
Nuclear contribution   :     -2.27655      -0.15877      -0.64249
                        -----------------------------------------
Total Dipole Moment    :     -0.45141       0.15067      -0.51619
                        -----------------------------------------
Magnitude (a.u.)       :      0.70209
Magnitude (Debye)      :      1.78456

Rotational constants in cm-1:     4.232569     0.816711     0.778517
Rotational constants in MHz : 126889.227848 24484.390115 23339.337813

                             ****ORCA TERMINATED NORMALLY****
TOTAL RUN TIME: 0 days 0 hours 1 minutes 8 seconds 257 msec
