                         Program Version 4.1.2  - RELEASE  -
|  1> #Run DFT-D3 single point of the dimer
|  2> ! wB97X-D3 def2-TZVP TIGHTSCF CHELPG PMODEL PAL8
|  3>
|  4> %base "17-19_DFT_AB"
|  5>
|  6> %scf
|  7> MaxIter 1000
|  8> end
|  9>
| 10> * xyz 0 1
| 11>   C                      -4.021581            2.799748             -3.951247
| 12>   O                      -3.968984            3.408857             -2.693875
| 13>   H                      -3.428997            4.133400             -2.976944
| 14>   H                      -4.837682            2.116741             -4.115847
| 15>   H                      -4.388551            3.544017             -4.698766
| 16>   H                      -3.031499            2.512948             -4.232440
| 17>   C                      -6.293331            5.922444             -6.337270
| 18>   O                      -5.239159            5.976326             -5.451876
| 19>   H                      -5.602778            6.388008             -4.641175
| 20>   H                      -5.932133            5.994813             -7.388418
| 21>   H                      -6.916755            4.990908             -6.234256
| 22>   H                      -6.929012            6.738098             -6.146326
| 23> *
| 24>
| 25> #Run DFT-D3 single point of the molecule with dimer basis set
| 26> $new_job
| 27> %base "17-19_DFT_A"
| 28> ! wB97X-D3 def2-TZVP TIGHTSCF CHELPG PMODEL
| 29>
| 30> %scf
| 31> MaxIter 1000
| 32> end
| 33>
| 34> * xyz 0 1
| 35>   C                      -4.021581            2.799748             -3.951247
| 36>   O                      -3.968984            3.408857             -2.693875
| 37>   H                      -3.428997            4.133400             -2.976944
| 38>   H                      -4.837682            2.116741             -4.115847
| 39>   H                      -4.388551            3.544017             -4.698766
| 40>   H                      -3.031499            2.512948             -4.232440
| 41>   C                    : -6.293331            5.922444             -6.337270
| 42>   O                    : -5.239159            5.976326             -5.451876
| 43>   H                    : -5.602778            6.388008             -4.641175
| 44>   H                    : -5.932133            5.994813             -7.388418
| 45>   H                    : -6.916755            4.990908             -6.234256
| 46>   H                    : -6.929012            6.738098             -6.146326
| 47> *
| 48>
| 49> #Run DFT-D3 single point of the particle with dimer basis set
| 50> $new_job
| 51> %base "17-19_DFT_B"
| 52> ! wB97X-D3 def2-TZVP TIGHTSCF CHELPG PMODEL
| 53>
| 54> %scf
| 55> MaxIter 1000
| 56> end
| 57>
| 58> * xyz 0 1
| 59>   C                    : -4.021581            2.799748             -3.951247
| 60>   O                    : -3.968984            3.408857             -2.693875
| 61>   H                    : -3.428997            4.133400             -2.976944
| 62>   H                    : -4.837682            2.116741             -4.115847
| 63>   H                    : -4.388551            3.544017             -4.698766
| 64>   H                    : -3.031499            2.512948             -4.232440
| 65>   C                      -6.293331            5.922444             -6.337270
| 66>   O                      -5.239159            5.976326             -5.451876
| 67>   H                      -5.602778            6.388008             -4.641175
| 68>   H                      -5.932133            5.994813             -7.388418
| 69>   H                      -6.916755            4.990908             -6.234256
| 70>   H                      -6.929012            6.738098             -6.146326
| 71> *
| 72>
| 73>                          ****END OF INPUT****
 Total Charge           Charge          ....    0
 Multiplicity           Mult            ....    1
 Number of Electrons    NEL             ....   36
Dispersion correction           -0.001434527
FINAL SINGLE POINT ENERGY      -231.456762757032
Dispersion correction           -0.000191094
FINAL SINGLE POINT ENERGY      -115.721670960568

CARTESIAN COORDINATES (ANGSTROEM)
---------------------------------
  C     -4.021581    2.799748   -3.951247
  O     -3.968984    3.408857   -2.693875
  H     -3.428997    4.133400   -2.976944
  H     -4.837682    2.116741   -4.115847
  H     -4.388551    3.544017   -4.698766
  H     -3.031499    2.512948   -4.232440
  C     -6.293331    5.922444   -6.337270
  O     -5.239159    5.976326   -5.451876
  H     -5.602778    6.388008   -4.641175
  H     -5.932133    5.994813   -7.388418
  H     -6.916755    4.990908   -6.234256
  H     -6.929012    6.738098   -6.146326

 Multiplicity           Mult            ....    1
 Number of Electrons    NEL             ....   18
 Basis Dimension        Dim             ....  172

ORBITAL ENERGIES
----------------

  NO   OCC          E(Eh)            E(eV)
   0   2.0000     -19.233280      -523.3642
   1   2.0000     -10.310159      -280.5537
   2   2.0000      -1.147793       -31.2330
   3   2.0000      -0.789666       -21.4879
   4   2.0000      -0.620132       -16.8747
   5   2.0000      -0.542507       -14.7624
   6   2.0000      -0.532803       -14.4983
   7   2.0000      -0.433847       -11.8056
   8   2.0000      -0.370913       -10.0930
   9   0.0000       0.093643         2.5481
  10   0.0000       0.121100         3.2953
  11   0.0000       0.149668         4.0727
  12   0.0000       0.181598         4.9415
  13   0.0000       0.196432         5.3452

MULLIKEN ATOMIC CHARGES
-----------------------
   0 C :   -0.001439
   1 O :   -0.000032
   2 H :   -0.000940
   3 H :    0.000441
   4 H :   -0.003354
   5 H :   -0.000267
   6 C :   -0.165851
   7 O :   -0.458538
   8 H :    0.318740
   9 H :    0.113081
  10 H :    0.093253
  11 H :    0.104907
Sum of atomic charges:   -0.0000000

LOEWDIN ATOMIC CHARGES
----------------------
   0 C :   -0.003591
   1 O :   -0.000112
   2 H :   -0.000608
   3 H :   -0.000032
   4 H :   -0.009032
   5 H :   -0.000043
   6 C :   -0.418256
   7 O :   -0.048151
   8 H :    0.186692
   9 H :    0.109762
  10 H :    0.097414
  11 H :    0.085958

  Mayer bond orders larger than 0.1
B(  6-C ,  7-O ) :   1.0036 B(  6-C ,  9-H ) :   0.9736 B(  6-C , 10-H ) :   0.9712
B(  6-C , 11-H ) :   0.9872 B(  7-O ,  8-H ) :   0.8946

Dispersion correction           -0.000223142
FINAL SINGLE POINT ENERGY      -115.732385640674

DIPOLE MOMENT
-------------
                                X             Y             Z
Electronic contribution:      1.51554       0.04838       1.06611
Nuclear contribution   :     -2.13744       0.24537      -0.88290
                        -----------------------------------------
Total Dipole Moment    :     -0.62190       0.29375       0.18322
                        -----------------------------------------
Magnitude (a.u.)       :      0.71177
Magnitude (Debye)      :      1.80918

Rotational constants in cm-1:     4.231406     0.869310     0.835906
Rotational constants in MHz : 126854.350037 26061.244588 25059.841440

                             ****ORCA TERMINATED NORMALLY****
TOTAL RUN TIME: 0 days 0 hours 1 minutes 7 seconds 510 msec
