                         Program Version 4.1.2  - RELEASE  -
|  1> #Run DFT-D3 single point of the dimer
|  2> ! wB97X-D3 def2-TZVP TIGHTSCF CHELPG PMODEL PAL8
|  3>
|  4> %base "16-182_DFT_AB"
|  5>
|  6> %scf
|  7> MaxIter 1000
|  8> end
|  9>
| 10> * xyz 0 1
| 11>   C                      -10.437570           -7.691088            3.203041
| 12>   O                      -9.351927            -7.248831            3.985945
| 13>   H                      -9.736368            -6.954246            4.808212
| 14>   H                      -10.397779           -7.595246            2.129901
| 15>   H                      -10.486399           -8.739084            3.351331
| 16>   H                      -11.322131           -7.209878            3.542003
| 17>   C                      -9.562317            -5.281374            8.166314
| 18>   O                      -10.127318           -6.133071            7.157659
| 19>   H                      -9.389755            -6.622976            6.760071
| 20>   H                      -8.786559            -5.869834            8.759080
| 21>   H                      -8.888842            -4.470125            7.708908
| 22>   H                      -10.226890           -4.897641            8.880417
| 23> *
| 24>
| 25> #Run DFT-D3 single point of the molecule with dimer basis set
| 26> $new_job
| 27> %base "16-182_DFT_A"
| 28> ! wB97X-D3 def2-TZVP TIGHTSCF CHELPG PMODEL
| 29>
| 30> %scf
| 31> MaxIter 1000
| 32> end
| 33>
| 34> * xyz 0 1
| 35>   C                      -10.437570           -7.691088            3.203041
| 36>   O                      -9.351927            -7.248831            3.985945
| 37>   H                      -9.736368            -6.954246            4.808212
| 38>   H                      -10.397779           -7.595246            2.129901
| 39>   H                      -10.486399           -8.739084            3.351331
| 40>   H                      -11.322131           -7.209878            3.542003
| 41>   C                    : -9.562317            -5.281374            8.166314
| 42>   O                    : -10.127318           -6.133071            7.157659
| 43>   H                    : -9.389755            -6.622976            6.760071
| 44>   H                    : -8.786559            -5.869834            8.759080
| 45>   H                    : -8.888842            -4.470125            7.708908
| 46>   H                    : -10.226890           -4.897641            8.880417
| 47> *
| 48>
| 49> #Run DFT-D3 single point of the particle with dimer basis set
| 50> $new_job
| 51> %base "16-182_DFT_B"
| 52> ! wB97X-D3 def2-TZVP TIGHTSCF CHELPG PMODEL
| 53>
| 54> %scf
| 55> MaxIter 1000
| 56> end
| 57>
| 58> * xyz 0 1
| 59>   C                    : -10.437570           -7.691088            3.203041
| 60>   O                    : -9.351927            -7.248831            3.985945
| 61>   H                    : -9.736368            -6.954246            4.808212
| 62>   H                    : -10.397779           -7.595246            2.129901
| 63>   H                    : -10.486399           -8.739084            3.351331
| 64>   H                    : -11.322131           -7.209878            3.542003
| 65>   C                      -9.562317            -5.281374            8.166314
| 66>   O                      -10.127318           -6.133071            7.157659
| 67>   H                      -9.389755            -6.622976            6.760071
| 68>   H                      -8.786559            -5.869834            8.759080
| 69>   H                      -8.888842            -4.470125            7.708908
| 70>   H                      -10.226890           -4.897641            8.880417
| 71> *
| 72>
| 73>                          ****END OF INPUT****
 Total Charge           Charge          ....    0
 Multiplicity           Mult            ....    1
 Number of Electrons    NEL             ....   36
Dispersion correction           -0.001279590
FINAL SINGLE POINT ENERGY      -231.459001115566
Dispersion correction           -0.000218616
FINAL SINGLE POINT ENERGY      -115.728910339668

CARTESIAN COORDINATES (ANGSTROEM)
---------------------------------
  C    -10.437570   -7.691088    3.203041
  O     -9.351927   -7.248831    3.985945
  H     -9.736368   -6.954246    4.808212
  H    -10.397779   -7.595246    2.129901
  H    -10.486399   -8.739084    3.351331
  H    -11.322131   -7.209878    3.542003
  C     -9.562317   -5.281374    8.166314
  O    -10.127318   -6.133071    7.157659
  H     -9.389755   -6.622976    6.760071
  H     -8.786559   -5.869834    8.759080
  H     -8.888842   -4.470125    7.708908
  H    -10.226890   -4.897641    8.880417

 Multiplicity           Mult            ....    1
 Number of Electrons    NEL             ....   18
 Basis Dimension        Dim             ....  172

ORBITAL ENERGIES
----------------

  NO   OCC          E(Eh)            E(eV)
   0   2.0000     -19.235151      -523.4151
   1   2.0000     -10.322913      -280.9008
   2   2.0000      -1.130531       -30.7633
   3   2.0000      -0.794097       -21.6085
   4   2.0000      -0.606992       -16.5171
   5   2.0000      -0.542145       -14.7525
   6   2.0000      -0.520985       -14.1767
   7   2.0000      -0.438562       -11.9339
   8   2.0000      -0.370708       -10.0875
   9   0.0000       0.087834         2.3901
  10   0.0000       0.117678         3.2022
  11   0.0000       0.147842         4.0230
  12   0.0000       0.186657         5.0792
  13   0.0000       0.196011         5.3337

MULLIKEN ATOMIC CHARGES
-----------------------
   0 C :    0.002024
   1 O :    0.000864
   2 H :   -0.011181
   3 H :    0.000033
   4 H :   -0.000086
   5 H :   -0.000781
   6 C :   -0.191792
   7 O :   -0.461333
   8 H :    0.322685
   9 H :    0.100822
  10 H :    0.101503
  11 H :    0.137240
Sum of atomic charges:    0.0000000

LOEWDIN ATOMIC CHARGES
----------------------
   0 C :   -0.000290
   1 O :   -0.001140
   2 H :   -0.011074
   3 H :   -0.000004
   4 H :   -0.000003
   5 H :   -0.000194
   6 C :   -0.377029
   7 O :   -0.090524
   8 H :    0.179297
   9 H :    0.101590
  10 H :    0.103698
  11 H :    0.095674

  Mayer bond orders larger than 0.1
B(  6-C ,  7-O ) :   1.0020 B(  6-C ,  9-H ) :   0.9840 B(  6-C , 10-H ) :   0.9693
B(  6-C , 11-H ) :   0.9691 B(  7-O ,  8-H ) :   0.8921

Dispersion correction           -0.000254935
FINAL SINGLE POINT ENERGY      -115.728697834141

DIPOLE MOMENT
-------------
                                X             Y             Z
Electronic contribution:     -1.16255      -0.96570      -1.23926
Nuclear contribution   :      1.83909       0.98707       1.42616
                        -----------------------------------------
Total Dipole Moment    :      0.67655       0.02137       0.18690
                        -----------------------------------------
Magnitude (a.u.)       :      0.70221
Magnitude (Debye)      :      1.78488

Rotational constants in cm-1:     4.209765     0.803701     0.772762
Rotational constants in MHz : 126205.570130 24094.361032 23166.834785

                             ****ORCA TERMINATED NORMALLY****
TOTAL RUN TIME: 0 days 0 hours 1 minutes 4 seconds 838 msec
