                         Program Version 4.1.2  - RELEASE  -
|  1> #Run DFT-D3 single point of the dimer
|  2> ! wB97X-D3 def2-TZVP TIGHTSCF CHELPG PMODEL PAL8
|  3>
|  4> %base "17-114_DFT_AB"
|  5>
|  6> %scf
|  7> MaxIter 1000
|  8> end
|  9>
| 10> * xyz 0 1
| 11>   C                      -9.469355            -5.034915            5.023516
| 12>   O                      -9.137636            -6.276195            4.482305
| 13>   H                      -8.185798            -6.198072            4.385905
| 14>   H                      -10.343936           -5.070091            5.588574
| 15>   H                      -8.660249            -4.668172            5.713455
| 16>   H                      -9.621374            -4.272023            4.221521
| 17>   C                      -10.389428           -5.668474            0.886552
| 18>   O                      -9.427594            -5.129751            -0.008684
| 19>   H                      -8.619964            -5.665520            0.023088
| 20>   H                      -11.126881           -4.947132            1.176537
| 21>   H                      -10.780607           -6.594603            0.450729
| 22>   H                      -9.779254            -5.947587            1.825181
| 23> *
| 24>
| 25> #Run DFT-D3 single point of the molecule with dimer basis set
| 26> $new_job
| 27> %base "17-114_DFT_A"
| 28> ! wB97X-D3 def2-TZVP TIGHTSCF CHELPG PMODEL
| 29>
| 30> %scf
| 31> MaxIter 1000
| 32> end
| 33>
| 34> * xyz 0 1
| 35>   C                      -9.469355            -5.034915            5.023516
| 36>   O                      -9.137636            -6.276195            4.482305
| 37>   H                      -8.185798            -6.198072            4.385905
| 38>   H                      -10.343936           -5.070091            5.588574
| 39>   H                      -8.660249            -4.668172            5.713455
| 40>   H                      -9.621374            -4.272023            4.221521
| 41>   C                    : -10.389428           -5.668474            0.886552
| 42>   O                    : -9.427594            -5.129751            -0.008684
| 43>   H                    : -8.619964            -5.665520            0.023088
| 44>   H                    : -11.126881           -4.947132            1.176537
| 45>   H                    : -10.780607           -6.594603            0.450729
| 46>   H                    : -9.779254            -5.947587            1.825181
| 47> *
| 48>
| 49> #Run DFT-D3 single point of the particle with dimer basis set
| 50> $new_job
| 51> %base "17-114_DFT_B"
| 52> ! wB97X-D3 def2-TZVP TIGHTSCF CHELPG PMODEL
| 53>
| 54> %scf
| 55> MaxIter 1000
| 56> end
| 57>
| 58> * xyz 0 1
| 59>   C                    : -9.469355            -5.034915            5.023516
| 60>   O                    : -9.137636            -6.276195            4.482305
| 61>   H                    : -8.185798            -6.198072            4.385905
| 62>   H                    : -10.343936           -5.070091            5.588574
| 63>   H                    : -8.660249            -4.668172            5.713455
| 64>   H                    : -9.621374            -4.272023            4.221521
| 65>   C                      -10.389428           -5.668474            0.886552
| 66>   O                      -9.427594            -5.129751            -0.008684
| 67>   H                      -8.619964            -5.665520            0.023088
| 68>   H                      -11.126881           -4.947132            1.176537
| 69>   H                      -10.780607           -6.594603            0.450729
| 70>   H                      -9.779254            -5.947587            1.825181
| 71> *
| 72>
| 73>                          ****END OF INPUT****
 Total Charge           Charge          ....    0
 Multiplicity           Mult            ....    1
 Number of Electrons    NEL             ....   36
Dispersion correction           -0.001434273
FINAL SINGLE POINT ENERGY      -231.465330741622
Dispersion correction           -0.000220572
FINAL SINGLE POINT ENERGY      -115.732622958584

CARTESIAN COORDINATES (ANGSTROEM)
---------------------------------
  C     -9.469355   -5.034915    5.023516
  O     -9.137636   -6.276195    4.482305
  H     -8.185798   -6.198072    4.385905
  H    -10.343936   -5.070091    5.588574
  H     -8.660249   -4.668172    5.713455
  H     -9.621374   -4.272023    4.221521
  C    -10.389428   -5.668474    0.886552
  O     -9.427594   -5.129751   -0.008684
  H     -8.619964   -5.665520    0.023088
  H    -11.126881   -4.947132    1.176537
  H    -10.780607   -6.594603    0.450729
  H     -9.779254   -5.947587    1.825181

 Multiplicity           Mult            ....    1
 Number of Electrons    NEL             ....   18
 Basis Dimension        Dim             ....  172

ORBITAL ENERGIES
----------------

  NO   OCC          E(Eh)            E(eV)
   0   2.0000     -19.225714      -523.1583
   1   2.0000     -10.318616      -280.7838
   2   2.0000      -1.130154       -30.7531
   3   2.0000      -0.791012       -21.5245
   4   2.0000      -0.603002       -16.4085
   5   2.0000      -0.547081       -14.8868
   6   2.0000      -0.529287       -14.4026
   7   2.0000      -0.426112       -11.5951
   8   2.0000      -0.368612       -10.0304
   9   0.0000       0.080836         2.1997
  10   0.0000       0.115872         3.1530
  11   0.0000       0.157059         4.2738
  12   0.0000       0.160836         4.3766
  13   0.0000       0.190405         5.1812

MULLIKEN ATOMIC CHARGES
-----------------------
   0 C :   -0.002432
   1 O :    0.000454
   2 H :   -0.000125
   3 H :    0.000288
   4 H :   -0.000034
   5 H :    0.000868
   6 C :   -0.157039
   7 O :   -0.483859
   8 H :    0.318121
   9 H :    0.128850
  10 H :    0.104347
  11 H :    0.090561
Sum of atomic charges:    0.0000000

LOEWDIN ATOMIC CHARGES
----------------------
   0 C :   -0.002775
   1 O :   -0.003210
   2 H :   -0.000760
   3 H :   -0.000040
   4 H :   -0.000036
   5 H :   -0.000834
   6 C :   -0.376840
   7 O :   -0.095267
   8 H :    0.173124
   9 H :    0.102759
  10 H :    0.095165
  11 H :    0.108714

  Mayer bond orders larger than 0.1
B(  6-C ,  7-O ) :   0.9909 B(  6-C ,  9-H ) :   0.9672 B(  6-C , 10-H ) :   0.9715
B(  6-C , 11-H ) :   0.9952 B(  7-O ,  8-H ) :   0.8958

Dispersion correction           -0.000226562
FINAL SINGLE POINT ENERGY      -115.731019318114

DIPOLE MOMENT
-------------
                                X             Y             Z
Electronic contribution:      0.89122       0.85797      -1.23337
Nuclear contribution   :     -0.76975      -1.39967       1.61292
                        -----------------------------------------
Total Dipole Moment    :      0.12148      -0.54169       0.37955
                        -----------------------------------------
Magnitude (a.u.)       :      0.67249
Magnitude (Debye)      :      1.70933

Rotational constants in cm-1:     4.109217     0.830824     0.802350
Rotational constants in MHz : 123191.211643 24907.474937 24053.856669

                             ****ORCA TERMINATED NORMALLY****
TOTAL RUN TIME: 0 days 0 hours 1 minutes 2 seconds 471 msec
