                         Program Version 4.1.2  - RELEASE  -
|  1> #Run DFT geometry optimization
|  2> ! wB97X-D3 def2-TZVP TIGHTSCF Grid5 FinalGrid6 Opt CHELPG PAL4
|  3>
|  4> %base "9_geo_opt"
|  5> %geom MaxIter 500
|  6> end
|  7>
|  8> %geom
|  9>   Constraints
| 10>     { B 5 0 C }
| 11>   end
| 12> end
| 13>
| 14>
| 15> * xyz 0 1
| 16>   C                    3.011115             -1.180570            0.598619
| 17>   O                    4.394481             -1.127723            0.874434
| 18>   H                    4.772004             -0.378695            0.412620
| 19>   H                    2.806242             -1.318638            -0.469223
| 20>   H                    2.611440             -2.039938            1.136025
| 21>   H                    2.484949             -0.284818            0.945532
| 22> *
| 23>
| 24>                          ****END OF INPUT****
 Total Charge           Charge          ....    0
 Multiplicity           Mult            ....    1
 Number of Electrons    NEL             ....   18
Dispersion correction           -0.000239124
FINAL SINGLE POINT ENERGY      -115.738050931146
Dispersion correction            ... done
                    ***********************HURRAY********************

CARTESIAN COORDINATES (ANGSTROEM)
---------------------------------
  C      3.011146   -1.180583    0.598654
  O      4.394513   -1.127704    0.874401
  H      4.772005   -0.378655    0.412621
  H      2.806245   -1.318677   -0.469192
  H      2.611345   -2.039941    1.135984
  H      2.484977   -0.284822    0.945538

 Multiplicity           Mult            ....    1
 Number of Electrons    NEL             ....   18
 Basis Dimension        Dim             ....   86

ORBITAL ENERGIES
----------------

  NO   OCC          E(Eh)            E(eV)
   0   2.0000     -19.228076      -523.2225
   1   2.0000     -10.315019      -280.6859
   2   2.0000      -1.136796       -30.9338
   3   2.0000      -0.795401       -21.6440
   4   2.0000      -0.611617       -16.6430
   5   2.0000      -0.541836       -14.7441
   6   2.0000      -0.526324       -14.3220
   7   2.0000      -0.433797       -11.8042
   8   2.0000      -0.373616       -10.1666
   9   0.0000       0.116656         3.1744
  10   0.0000       0.156700         4.2640
  11   0.0000       0.202590         5.5128
  12   0.0000       0.205179         5.5832
  13   0.0000       0.226386         6.1603

MULLIKEN ATOMIC CHARGES
-----------------------
   0 C :   -0.150802
   1 O :   -0.477681
   2 H :    0.312996
   3 H :    0.098583
   4 H :    0.118192
   5 H :    0.098712
Sum of atomic charges:   -0.0000000

LOEWDIN ATOMIC CHARGES
----------------------
   0 C :   -0.385065
   1 O :   -0.076085
   2 H :    0.165774
   3 H :    0.093414
   4 H :    0.108706
   5 H :    0.093257

  Mayer bond orders larger than 0.1
B(  0-C ,  1-O ) :   0.9986 B(  0-C ,  3-H ) :   0.9756 B(  0-C ,  4-H ) :   0.9749
B(  0-C ,  5-H ) :   0.9756 B(  1-O ,  2-H ) :   0.9002

Dispersion correction           -0.000239131
FINAL SINGLE POINT ENERGY      -115.738050943582

DIPOLE MOMENT
-------------
                                X             Y             Z
Electronic contribution:      1.75546      -0.02745       0.42012
Nuclear contribution   :     -2.06550       0.47526      -0.81765
                        -----------------------------------------
Total Dipole Moment    :     -0.31004       0.44782      -0.39752
                        -----------------------------------------
Magnitude (a.u.)       :      0.67431
Magnitude (Debye)      :      1.71395

Rotational constants in cm-1:     4.294662     0.833868     0.804947
Rotational constants in MHz : 128750.717839 24998.727446 24131.712205

                             ****ORCA TERMINATED NORMALLY****
TOTAL RUN TIME: 0 days 0 hours 0 minutes 35 seconds 430 msec
