                         Program Version 4.1.2  - RELEASE  -
|  1> #Run DFT-D3 single point of the dimer
|  2> ! wB97X-D3 def2-TZVP TIGHTSCF CHELPG PMODEL PAL8
|  3>
|  4> %base "17-121_DFT_AB"
|  5>
|  6> %scf
|  7> MaxIter 1000
|  8> end
|  9>
| 10> * xyz 0 1
| 11>   C                      -4.988998            9.601026             -3.583272
| 12>   O                      -3.625614            9.389035             -3.176934
| 13>   H                      -3.637029            9.435312             -2.249069
| 14>   H                      -5.701993            9.682365             -2.747060
| 15>   H                      -5.095622            10.449238            -4.301233
| 16>   H                      -5.365626            8.684799             -4.130717
| 17>   C                      -8.877339            9.266009             -2.068696
| 18>   O                      -7.797559            8.549895             -1.538670
| 19>   H                      -7.596468            8.973117             -0.634894
| 20>   H                      -9.542508            8.540720             -2.635445
| 21>   H                      -9.628912            9.599043             -1.270512
| 22>   H                      -8.547660            10.072176            -2.649976
| 23> *
| 24>
| 25> #Run DFT-D3 single point of the molecule with dimer basis set
| 26> $new_job
| 27> %base "17-121_DFT_A"
| 28> ! wB97X-D3 def2-TZVP TIGHTSCF CHELPG PMODEL
| 29>
| 30> %scf
| 31> MaxIter 1000
| 32> end
| 33>
| 34> * xyz 0 1
| 35>   C                      -4.988998            9.601026             -3.583272
| 36>   O                      -3.625614            9.389035             -3.176934
| 37>   H                      -3.637029            9.435312             -2.249069
| 38>   H                      -5.701993            9.682365             -2.747060
| 39>   H                      -5.095622            10.449238            -4.301233
| 40>   H                      -5.365626            8.684799             -4.130717
| 41>   C                    : -8.877339            9.266009             -2.068696
| 42>   O                    : -7.797559            8.549895             -1.538670
| 43>   H                    : -7.596468            8.973117             -0.634894
| 44>   H                    : -9.542508            8.540720             -2.635445
| 45>   H                    : -9.628912            9.599043             -1.270512
| 46>   H                    : -8.547660            10.072176            -2.649976
| 47> *
| 48>
| 49> #Run DFT-D3 single point of the particle with dimer basis set
| 50> $new_job
| 51> %base "17-121_DFT_B"
| 52> ! wB97X-D3 def2-TZVP TIGHTSCF CHELPG PMODEL
| 53>
| 54> %scf
| 55> MaxIter 1000
| 56> end
| 57>
| 58> * xyz 0 1
| 59>   C                    : -4.988998            9.601026             -3.583272
| 60>   O                    : -3.625614            9.389035             -3.176934
| 61>   H                    : -3.637029            9.435312             -2.249069
| 62>   H                    : -5.701993            9.682365             -2.747060
| 63>   H                    : -5.095622            10.449238            -4.301233
| 64>   H                    : -5.365626            8.684799             -4.130717
| 65>   C                      -8.877339            9.266009             -2.068696
| 66>   O                      -7.797559            8.549895             -1.538670
| 67>   H                      -7.596468            8.973117             -0.634894
| 68>   H                      -9.542508            8.540720             -2.635445
| 69>   H                      -9.628912            9.599043             -1.270512
| 70>   H                      -8.547660            10.072176            -2.649976
| 71> *
| 72>
| 73>                          ****END OF INPUT****
 Total Charge           Charge          ....    0
 Multiplicity           Mult            ....    1
 Number of Electrons    NEL             ....   36
Dispersion correction           -0.001577462
FINAL SINGLE POINT ENERGY      -231.460982824596
Dispersion correction           -0.000269140
FINAL SINGLE POINT ENERGY      -115.731792817067

CARTESIAN COORDINATES (ANGSTROEM)
---------------------------------
  C     -4.988998    9.601026   -3.583272
  O     -3.625614    9.389035   -3.176934
  H     -3.637029    9.435312   -2.249069
  H     -5.701993    9.682365   -2.747060
  H     -5.095622   10.449238   -4.301233
  H     -5.365626    8.684799   -4.130717
  C     -8.877339    9.266009   -2.068696
  O     -7.797559    8.549895   -1.538670
  H     -7.596468    8.973117   -0.634894
  H     -9.542508    8.540720   -2.635445
  H     -9.628912    9.599043   -1.270512
  H     -8.547660   10.072176   -2.649976

 Multiplicity           Mult            ....    1
 Number of Electrons    NEL             ....   18
 Basis Dimension        Dim             ....  172

ORBITAL ENERGIES
----------------

  NO   OCC          E(Eh)            E(eV)
   0   2.0000     -19.237011      -523.4657
   1   2.0000     -10.316116      -280.7158
   2   2.0000      -1.132985       -30.8301
   3   2.0000      -0.786164       -21.3926
   4   2.0000      -0.604030       -16.4365
   5   2.0000      -0.557371       -15.1668
   6   2.0000      -0.517610       -14.0849
   7   2.0000      -0.421693       -11.4749
   8   2.0000      -0.376899       -10.2560
   9   0.0000       0.089721         2.4414
  10   0.0000       0.117372         3.1938
  11   0.0000       0.147760         4.0208
  12   0.0000       0.173352         4.7171
  13   0.0000       0.187776         5.1096

MULLIKEN ATOMIC CHARGES
-----------------------
   0 C :    0.008549
   1 O :   -0.000184
   2 H :   -0.000145
   3 H :   -0.015779
   4 H :   -0.000339
   5 H :   -0.001623
   6 C :   -0.175200
   7 O :   -0.465810
   8 H :    0.321348
   9 H :    0.111630
  10 H :    0.100463
  11 H :    0.117091
Sum of atomic charges:    0.0000000

LOEWDIN ATOMIC CHARGES
----------------------
   0 C :   -0.004178
   1 O :   -0.000017
   2 H :   -0.000038
   3 H :   -0.009296
   4 H :   -0.000037
   5 H :   -0.000533
   6 C :   -0.409993
   7 O :   -0.082087
   8 H :    0.204713
   9 H :    0.113563
  10 H :    0.103676
  11 H :    0.084227

  Mayer bond orders larger than 0.1
B(  6-C ,  7-O ) :   1.0048 B(  6-C ,  9-H ) :   0.9723 B(  6-C , 10-H ) :   0.9807
B(  6-C , 11-H ) :   0.9706 B(  7-O ,  8-H ) :   0.8892

Dispersion correction           -0.000244685
FINAL SINGLE POINT ENERGY      -115.727569053647

DIPOLE MOMENT
-------------
                                X             Y             Z
Electronic contribution:      1.55523      -0.91289       0.47272
Nuclear contribution   :     -1.85641       1.43573      -0.10075
                        -----------------------------------------
Total Dipole Moment    :     -0.30119       0.52284       0.37197
                        -----------------------------------------
Magnitude (a.u.)       :      0.70883
Magnitude (Debye)      :      1.80171

Rotational constants in cm-1:     4.081668     0.838269     0.812159
Rotational constants in MHz : 122365.339263 25130.663330 24347.923898

                             ****ORCA TERMINATED NORMALLY****
TOTAL RUN TIME: 0 days 0 hours 1 minutes 1 seconds 693 msec
