                         Program Version 4.1.2  - RELEASE  -
|  1> #Run DFT-D3 single point of the dimer
|  2> ! wB97X-D3 def2-TZVP TIGHTSCF CHELPG PMODEL PAL8
|  3>
|  4> %base "10-222_DFT_AB"
|  5>
|  6> %scf
|  7> MaxIter 1000
|  8> end
|  9>
| 10> * xyz 0 1
| 11>   C                      -1.641240            -3.725558            -6.177699
| 12>   O                      -0.270499            -3.593153            -5.977041
| 13>   H                      -0.002154            -4.134536            -5.291302
| 14>   H                      -2.040855            -4.591531            -5.660967
| 15>   H                      -2.103454            -2.829542            -5.842133
| 16>   H                      -1.862435            -3.762186            -7.224274
| 17>   C                      2.052238             -2.423676            -8.966001
| 18>   O                      1.824543             -3.739333            -8.398036
| 19>   H                      1.137843             -3.681050            -7.729025
| 20>   H                      1.261028             -1.726732            -8.568119
| 21>   H                      3.064639             -2.062793            -8.737179
| 22>   H                      2.089660             -2.461131            -10.045646
| 23> *
| 24>
| 25> #Run DFT-D3 single point of the molecule with dimer basis set
| 26> $new_job
| 27> %base "10-222_DFT_A"
| 28> ! wB97X-D3 def2-TZVP TIGHTSCF CHELPG PMODEL
| 29>
| 30> %scf
| 31> MaxIter 1000
| 32> end
| 33>
| 34> * xyz 0 1
| 35>   C                      -1.641240            -3.725558            -6.177699
| 36>   O                      -0.270499            -3.593153            -5.977041
| 37>   H                      -0.002154            -4.134536            -5.291302
| 38>   H                      -2.040855            -4.591531            -5.660967
| 39>   H                      -2.103454            -2.829542            -5.842133
| 40>   H                      -1.862435            -3.762186            -7.224274
| 41>   C                    : 2.052238             -2.423676            -8.966001
| 42>   O                    : 1.824543             -3.739333            -8.398036
| 43>   H                    : 1.137843             -3.681050            -7.729025
| 44>   H                    : 1.261028             -1.726732            -8.568119
| 45>   H                    : 3.064639             -2.062793            -8.737179
| 46>   H                    : 2.089660             -2.461131            -10.045646
| 47> *
| 48>
| 49> #Run DFT-D3 single point of the particle with dimer basis set
| 50> $new_job
| 51> %base "10-222_DFT_B"
| 52> ! wB97X-D3 def2-TZVP TIGHTSCF CHELPG PMODEL
| 53>
| 54> %scf
| 55> MaxIter 1000
| 56> end
| 57>
| 58> * xyz 0 1
| 59>   C                    : -1.641240            -3.725558            -6.177699
| 60>   O                    : -0.270499            -3.593153            -5.977041
| 61>   H                    : -0.002154            -4.134536            -5.291302
| 62>   H                    : -2.040855            -4.591531            -5.660967
| 63>   H                    : -2.103454            -2.829542            -5.842133
| 64>   H                    : -1.862435            -3.762186            -7.224274
| 65>   C                      2.052238             -2.423676            -8.966001
| 66>   O                      1.824543             -3.739333            -8.398036
| 67>   H                      1.137843             -3.681050            -7.729025
| 68>   H                      1.261028             -1.726732            -8.568119
| 69>   H                      3.064639             -2.062793            -8.737179
| 70>   H                      2.089660             -2.461131            -10.045646
| 71> *
| 72>
| 73>                          ****END OF INPUT****
 Total Charge           Charge          ....    0
 Multiplicity           Mult            ....    1
 Number of Electrons    NEL             ....   36
Dispersion correction           -0.001512455
FINAL SINGLE POINT ENERGY      -231.471776937222
Dispersion correction           -0.000221882
FINAL SINGLE POINT ENERGY      -115.732035763212

CARTESIAN COORDINATES (ANGSTROEM)
---------------------------------
  C     -1.641240   -3.725558   -6.177699
  O     -0.270499   -3.593153   -5.977041
  H     -0.002154   -4.134536   -5.291302
  H     -2.040855   -4.591531   -5.660967
  H     -2.103454   -2.829542   -5.842133
  H     -1.862435   -3.762186   -7.224274
  C      2.052238   -2.423676   -8.966001
  O      1.824543   -3.739333   -8.398036
  H      1.137843   -3.681050   -7.729025
  H      1.261028   -1.726732   -8.568119
  H      3.064639   -2.062793   -8.737179
  H      2.089660   -2.461131  -10.045646

 Multiplicity           Mult            ....    1
 Number of Electrons    NEL             ....   18
 Basis Dimension        Dim             ....  172

ORBITAL ENERGIES
----------------

  NO   OCC          E(Eh)            E(eV)
   0   2.0000     -19.228699      -523.2395
   1   2.0000     -10.320240      -280.8280
   2   2.0000      -1.123950       -30.5842
   3   2.0000      -0.796233       -21.6666
   4   2.0000      -0.601736       -16.3741
   5   2.0000      -0.537946       -14.6383
   6   2.0000      -0.526716       -14.3327
   7   2.0000      -0.433624       -11.7995
   8   2.0000      -0.371586       -10.1114
   9   0.0000       0.068860         1.8738
  10   0.0000       0.128362         3.4929
  11   0.0000       0.146963         3.9991
  12   0.0000       0.167611         4.5609
  13   0.0000       0.187951         5.1144

MULLIKEN ATOMIC CHARGES
-----------------------
   0 C :   -0.001200
   1 O :   -0.000686
   2 H :   -0.000351
   3 H :    0.000004
   4 H :    0.000043
   5 H :   -0.000655
   6 C :   -0.167794
   7 O :   -0.477827
   8 H :    0.311821
   9 H :    0.108021
  10 H :    0.108482
  11 H :    0.120140
Sum of atomic charges:    0.0000000

LOEWDIN ATOMIC CHARGES
----------------------
   0 C :   -0.001917
   1 O :   -0.008428
   2 H :   -0.000915
   3 H :   -0.000025
   4 H :   -0.000024
   5 H :   -0.000546
   6 C :   -0.358333
   7 O :   -0.101619
   8 H :    0.167765
   9 H :    0.105863
  10 H :    0.099120
  11 H :    0.099059

  Mayer bond orders larger than 0.1
B(  6-C ,  7-O ) :   0.9958 B(  6-C ,  9-H ) :   0.9829 B(  6-C , 10-H ) :   0.9749
B(  6-C , 11-H ) :   0.9751 B(  7-O ,  8-H ) :   0.9096

Dispersion correction           -0.000264356
FINAL SINGLE POINT ENERGY      -115.731981838703

DIPOLE MOMENT
-------------
                                X             Y             Z
Electronic contribution:     -0.22466      -1.67314       0.59859
Nuclear contribution   :     -0.11255       2.26124      -0.41739
                        -----------------------------------------
Total Dipole Moment    :     -0.33721       0.58810       0.18119
                        -----------------------------------------
Magnitude (a.u.)       :      0.70172
Magnitude (Debye)      :      1.78362

Rotational constants in cm-1:     4.240751     0.801825     0.761262
Rotational constants in MHz : 127134.528067 24038.113460 22822.051363

                             ****ORCA TERMINATED NORMALLY****
TOTAL RUN TIME: 0 days 0 hours 1 minutes 6 seconds 50 msec
