                         Program Version 4.1.2  - RELEASE  -
|  1> #Run DFT-D3 single point of the dimer
|  2> ! wB97X-D3 def2-TZVP TIGHTSCF CHELPG PMODEL PAL8
|  3>
|  4> %base "9-150_DFT_AB"
|  5>
|  6> %scf
|  7> MaxIter 1000
|  8> end
|  9>
| 10> * xyz 0 1
| 11>   C                      -6.479219            -1.361711            9.804237
| 12>   O                      -7.633055            -0.737605            10.280932
| 13>   H                      -7.871351            -1.024000            11.174917
| 14>   H                      -5.711295            -1.646732            10.593939
| 15>   H                      -6.731494            -2.359005            9.360139
| 16>   H                      -5.839508            -0.816338            9.086842
| 17>   C                      -10.058210           -2.708673            7.810617
| 18>   O                      -9.294148            -2.970554            8.993616
| 19>   H                      -9.375292            -2.210584            9.623569
| 20>   H                      -11.093265           -2.415261            8.091974
| 21>   H                      -9.757479            -1.929562            7.148214
| 22>   H                      -9.995265            -3.549433            7.215435
| 23> *
| 24>
| 25> #Run DFT-D3 single point of the molecule with dimer basis set
| 26> $new_job
| 27> %base "9-150_DFT_A"
| 28> ! wB97X-D3 def2-TZVP TIGHTSCF CHELPG PMODEL
| 29>
| 30> %scf
| 31> MaxIter 1000
| 32> end
| 33>
| 34> * xyz 0 1
| 35>   C                      -6.479219            -1.361711            9.804237
| 36>   O                      -7.633055            -0.737605            10.280932
| 37>   H                      -7.871351            -1.024000            11.174917
| 38>   H                      -5.711295            -1.646732            10.593939
| 39>   H                      -6.731494            -2.359005            9.360139
| 40>   H                      -5.839508            -0.816338            9.086842
| 41>   C                    : -10.058210           -2.708673            7.810617
| 42>   O                    : -9.294148            -2.970554            8.993616
| 43>   H                    : -9.375292            -2.210584            9.623569
| 44>   H                    : -11.093265           -2.415261            8.091974
| 45>   H                    : -9.757479            -1.929562            7.148214
| 46>   H                    : -9.995265            -3.549433            7.215435
| 47> *
| 48>
| 49> #Run DFT-D3 single point of the particle with dimer basis set
| 50> $new_job
| 51> %base "9-150_DFT_B"
| 52> ! wB97X-D3 def2-TZVP TIGHTSCF CHELPG PMODEL
| 53>
| 54> %scf
| 55> MaxIter 1000
| 56> end
| 57>
| 58> * xyz 0 1
| 59>   C                    : -6.479219            -1.361711            9.804237
| 60>   O                    : -7.633055            -0.737605            10.280932
| 61>   H                    : -7.871351            -1.024000            11.174917
| 62>   H                    : -5.711295            -1.646732            10.593939
| 63>   H                    : -6.731494            -2.359005            9.360139
| 64>   H                    : -5.839508            -0.816338            9.086842
| 65>   C                      -10.058210           -2.708673            7.810617
| 66>   O                      -9.294148            -2.970554            8.993616
| 67>   H                      -9.375292            -2.210584            9.623569
| 68>   H                      -11.093265           -2.415261            8.091974
| 69>   H                      -9.757479            -1.929562            7.148214
| 70>   H                      -9.995265            -3.549433            7.215435
| 71> *
| 72>
| 73>                          ****END OF INPUT****
 Total Charge           Charge          ....    0
 Multiplicity           Mult            ....    1
 Number of Electrons    NEL             ....   36
Dispersion correction           -0.001881026
FINAL SINGLE POINT ENERGY      -231.463867786189
Dispersion correction           -0.000274497
FINAL SINGLE POINT ENERGY      -115.730100464243

CARTESIAN COORDINATES (ANGSTROEM)
---------------------------------
  C     -6.479219   -1.361711    9.804237
  O     -7.633055   -0.737605   10.280932
  H     -7.871351   -1.024000   11.174917
  H     -5.711295   -1.646732   10.593939
  H     -6.731494   -2.359005    9.360139
  H     -5.839508   -0.816338    9.086842
  C    -10.058210   -2.708673    7.810617
  O     -9.294148   -2.970554    8.993616
  H     -9.375292   -2.210584    9.623569
  H    -11.093265   -2.415261    8.091974
  H     -9.757479   -1.929562    7.148214
  H     -9.995265   -3.549433    7.215435

 Multiplicity           Mult            ....    1
 Number of Electrons    NEL             ....   18
 Basis Dimension        Dim             ....  172

ORBITAL ENERGIES
----------------

  NO   OCC          E(Eh)            E(eV)
   0   2.0000     -19.235282      -523.4186
   1   2.0000     -10.307524      -280.4820
   2   2.0000      -1.125038       -30.6138
   3   2.0000      -0.803654       -21.8685
   4   2.0000      -0.610622       -16.6159
   5   2.0000      -0.542995       -14.7756
   6   2.0000      -0.520390       -14.1605
   7   2.0000      -0.440173       -11.9777
   8   2.0000      -0.373067       -10.1517
   9   0.0000       0.081477         2.2171
  10   0.0000       0.129404         3.5213
  11   0.0000       0.147318         4.0087
  12   0.0000       0.176626         4.8062
  13   0.0000       0.193325         5.2606

MULLIKEN ATOMIC CHARGES
-----------------------
   0 C :   -0.002818
   1 O :   -0.002452
   2 H :   -0.000290
   3 H :   -0.000272
   4 H :   -0.007142
   5 H :    0.000424
   6 C :   -0.161972
   7 O :   -0.473150
   8 H :    0.317356
   9 H :    0.099042
  10 H :    0.104406
  11 H :    0.126868
Sum of atomic charges:   -0.0000000

LOEWDIN ATOMIC CHARGES
----------------------
   0 C :   -0.009762
   1 O :   -0.007373
   2 H :   -0.001829
   3 H :   -0.000117
   4 H :   -0.009598
   5 H :   -0.000094
   6 C :   -0.365721
   7 O :   -0.080034
   8 H :    0.187874
   9 H :    0.100719
  10 H :    0.089565
  11 H :    0.096370

  Mayer bond orders larger than 0.1
B(  6-C ,  7-O ) :   1.0018 B(  6-C ,  9-H ) :   0.9835 B(  6-C , 10-H ) :   0.9633
B(  6-C , 11-H ) :   0.9785 B(  7-O ,  8-H ) :   0.8934

Dispersion correction           -0.000258975
FINAL SINGLE POINT ENERGY      -115.729800373293

DIPOLE MOMENT
-------------
                                X             Y             Z
Electronic contribution:      1.05103      -0.51508       1.40533
Nuclear contribution   :     -1.41657       1.08699      -1.52209
                        -----------------------------------------
Total Dipole Moment    :     -0.36554       0.57192      -0.11676
                        -----------------------------------------
Magnitude (a.u.)       :      0.68873
Magnitude (Debye)      :      1.75060

Rotational constants in cm-1:     4.491249     0.813824     0.776898
Rotational constants in MHz : 134644.260983 24397.833195 23290.827490

                             ****ORCA TERMINATED NORMALLY****
TOTAL RUN TIME: 0 days 0 hours 0 minutes 46 seconds 775 msec
