                         Program Version 4.1.2  - RELEASE  -
|  1> #Run DFT-D3 single point of the dimer
|  2> ! wB97X-D3 def2-TZVP TIGHTSCF CHELPG PMODEL PAL8
|  3>
|  4> %base "6-46_DFT_AB"
|  5>
|  6> %scf
|  7> MaxIter 1000
|  8> end
|  9>
| 10> * xyz 0 1
| 11>   C                      -8.806139            -3.804200            -0.537785
| 12>   O                      -9.024071            -2.496550            -1.017201
| 13>   H                      -9.353899            -2.559543            -1.944128
| 14>   H                      -8.922862            -3.712289            0.568426
| 15>   H                      -9.480058            -4.616308            -0.979368
| 16>   H                      -7.833328            -4.174835            -0.732438
| 17>   C                      -6.449756            -7.615354            -0.842301
| 18>   O                      -6.509052            -8.805502            -1.705923
| 19>   H                      -6.635960            -9.581778            -1.119752
| 20>   H                      -5.448720            -7.302162            -0.761370
| 21>   H                      -6.964512            -6.780777            -1.292883
| 22>   H                      -6.923662            -7.772756            0.107971
| 23> *
| 24>
| 25> #Run DFT-D3 single point of the molecule with dimer basis set
| 26> $new_job
| 27> %base "6-46_DFT_A"
| 28> ! wB97X-D3 def2-TZVP TIGHTSCF CHELPG PMODEL
| 29>
| 30> %scf
| 31> MaxIter 1000
| 32> end
| 33>
| 34> * xyz 0 1
| 35>   C                      -8.806139            -3.804200            -0.537785
| 36>   O                      -9.024071            -2.496550            -1.017201
| 37>   H                      -9.353899            -2.559543            -1.944128
| 38>   H                      -8.922862            -3.712289            0.568426
| 39>   H                      -9.480058            -4.616308            -0.979368
| 40>   H                      -7.833328            -4.174835            -0.732438
| 41>   C                    : -6.449756            -7.615354            -0.842301
| 42>   O                    : -6.509052            -8.805502            -1.705923
| 43>   H                    : -6.635960            -9.581778            -1.119752
| 44>   H                    : -5.448720            -7.302162            -0.761370
| 45>   H                    : -6.964512            -6.780777            -1.292883
| 46>   H                    : -6.923662            -7.772756            0.107971
| 47> *
| 48>
| 49> #Run DFT-D3 single point of the particle with dimer basis set
| 50> $new_job
| 51> %base "6-46_DFT_B"
| 52> ! wB97X-D3 def2-TZVP TIGHTSCF CHELPG PMODEL
| 53>
| 54> %scf
| 55> MaxIter 1000
| 56> end
| 57>
| 58> * xyz 0 1
| 59>   C                    : -8.806139            -3.804200            -0.537785
| 60>   O                    : -9.024071            -2.496550            -1.017201
| 61>   H                    : -9.353899            -2.559543            -1.944128
| 62>   H                    : -8.922862            -3.712289            0.568426
| 63>   H                    : -9.480058            -4.616308            -0.979368
| 64>   H                    : -7.833328            -4.174835            -0.732438
| 65>   C                      -6.449756            -7.615354            -0.842301
| 66>   O                      -6.509052            -8.805502            -1.705923
| 67>   H                      -6.635960            -9.581778            -1.119752
| 68>   H                      -5.448720            -7.302162            -0.761370
| 69>   H                      -6.964512            -6.780777            -1.292883
| 70>   H                      -6.923662            -7.772756            0.107971
| 71> *
| 72>
| 73>                          ****END OF INPUT****
 Total Charge           Charge          ....    0
 Multiplicity           Mult            ....    1
 Number of Electrons    NEL             ....   36
Dispersion correction           -0.001089356
FINAL SINGLE POINT ENERGY      -231.463684435321
Dispersion correction           -0.000258192
FINAL SINGLE POINT ENERGY      -115.731639666612

CARTESIAN COORDINATES (ANGSTROEM)
---------------------------------
  C     -8.806139   -3.804200   -0.537785
  O     -9.024071   -2.496550   -1.017201
  H     -9.353899   -2.559543   -1.944128
  H     -8.922862   -3.712289    0.568426
  H     -9.480058   -4.616308   -0.979368
  H     -7.833328   -4.174835   -0.732438
  C     -6.449756   -7.615354   -0.842301
  O     -6.509052   -8.805502   -1.705923
  H     -6.635960   -9.581778   -1.119752
  H     -5.448720   -7.302162   -0.761370
  H     -6.964512   -6.780777   -1.292883
  H     -6.923662   -7.772756    0.107971

 Multiplicity           Mult            ....    1
 Number of Electrons    NEL             ....   18
 Basis Dimension        Dim             ....  172

ORBITAL ENERGIES
----------------

  NO   OCC          E(Eh)            E(eV)
   0   2.0000     -19.229946      -523.2734
   1   2.0000     -10.308959      -280.5210
   2   2.0000      -1.114268       -30.3208
   3   2.0000      -0.802676       -21.8419
   4   2.0000      -0.598131       -16.2760
   5   2.0000      -0.541310       -14.7298
   6   2.0000      -0.522450       -14.2166
   7   2.0000      -0.437552       -11.9064
   8   2.0000      -0.374329       -10.1860
   9   0.0000       0.083614         2.2753
  10   0.0000       0.113394         3.0856
  11   0.0000       0.143950         3.9171
  12   0.0000       0.174156         4.7390
  13   0.0000       0.186125         5.0647

MULLIKEN ATOMIC CHARGES
-----------------------
   0 C :   -0.000434
   1 O :   -0.000009
   2 H :   -0.000004
   3 H :    0.000008
   4 H :   -0.000021
   5 H :    0.000021
   6 C :   -0.172223
   7 O :   -0.487317
   8 H :    0.314804
   9 H :    0.114824
  10 H :    0.118159
  11 H :    0.112194
Sum of atomic charges:    0.0000000

LOEWDIN ATOMIC CHARGES
----------------------
   0 C :   -0.001201
   1 O :   -0.000010
   2 H :   -0.000001
   3 H :   -0.000011
   4 H :   -0.000226
   5 H :   -0.001355
   6 C :   -0.336063
   7 O :   -0.128147
   8 H :    0.176294
   9 H :    0.091442
  10 H :    0.103676
  11 H :    0.095602

  Mayer bond orders larger than 0.1
B(  6-C ,  7-O ) :   1.0049 B(  6-C ,  9-H ) :   0.9773 B(  6-C , 10-H ) :   0.9769
B(  6-C , 11-H ) :   0.9805 B(  7-O ,  8-H ) :   0.9003

Dispersion correction           -0.000261058
FINAL SINGLE POINT ENERGY      -115.731513168634

DIPOLE MOMENT
-------------
                                X             Y             Z
Electronic contribution:     -0.03148      -1.38324      -1.11170
Nuclear contribution   :     -0.03181       1.42123       1.86033
                        -----------------------------------------
Total Dipole Moment    :     -0.06329       0.03799       0.74864
                        -----------------------------------------
Magnitude (a.u.)       :      0.75227
Magnitude (Debye)      :      1.91212

Rotational constants in cm-1:     4.422389     0.783068     0.753214
Rotational constants in MHz : 132579.897717 23475.793079 22580.793795

                             ****ORCA TERMINATED NORMALLY****
TOTAL RUN TIME: 0 days 0 hours 0 minutes 53 seconds 620 msec
