                         Program Version 4.1.2  - RELEASE  -
|  1> #Run DFT-D3 single point of the dimer
|  2> ! wB97X-D3 def2-TZVP TIGHTSCF CHELPG PMODEL PAL8
|  3>
|  4> %base "8-21_DFT_AB"
|  5>
|  6> %scf
|  7> MaxIter 1000
|  8> end
|  9>
| 10> * xyz 0 1
| 11>   C                      0.003535             -5.877715            10.140912
| 12>   O                      0.318346             -4.605744            10.783172
| 13>   H                      1.007645             -4.757691            11.420423
| 14>   H                      -0.478516            -5.721957            9.157673
| 15>   H                      0.881340             -6.498868            10.075310
| 16>   H                      -0.767575            -6.350094            10.780891
| 17>   C                      -0.290439            -5.175821            5.549866
| 18>   O                      0.225482             -4.442483            4.481468
| 19>   H                      0.245512             -4.926578            3.653445
| 20>   H                      0.327945             -6.084188            5.706868
| 21>   H                      -0.064656            -4.679792            6.488860
| 22>   H                      -1.417944            -5.373007            5.521078
| 23> *
| 24>
| 25> #Run DFT-D3 single point of the molecule with dimer basis set
| 26> $new_job
| 27> %base "8-21_DFT_A"
| 28> ! wB97X-D3 def2-TZVP TIGHTSCF CHELPG PMODEL
| 29>
| 30> %scf
| 31> MaxIter 1000
| 32> end
| 33>
| 34> * xyz 0 1
| 35>   C                      0.003535             -5.877715            10.140912
| 36>   O                      0.318346             -4.605744            10.783172
| 37>   H                      1.007645             -4.757691            11.420423
| 38>   H                      -0.478516            -5.721957            9.157673
| 39>   H                      0.881340             -6.498868            10.075310
| 40>   H                      -0.767575            -6.350094            10.780891
| 41>   C                    : -0.290439            -5.175821            5.549866
| 42>   O                    : 0.225482             -4.442483            4.481468
| 43>   H                    : 0.245512             -4.926578            3.653445
| 44>   H                    : 0.327945             -6.084188            5.706868
| 45>   H                    : -0.064656            -4.679792            6.488860
| 46>   H                    : -1.417944            -5.373007            5.521078
| 47> *
| 48>
| 49> #Run DFT-D3 single point of the particle with dimer basis set
| 50> $new_job
| 51> %base "8-21_DFT_B"
| 52> ! wB97X-D3 def2-TZVP TIGHTSCF CHELPG PMODEL
| 53>
| 54> %scf
| 55> MaxIter 1000
| 56> end
| 57>
| 58> * xyz 0 1
| 59>   C                    : 0.003535             -5.877715            10.140912
| 60>   O                    : 0.318346             -4.605744            10.783172
| 61>   H                    : 1.007645             -4.757691            11.420423
| 62>   H                    : -0.478516            -5.721957            9.157673
| 63>   H                    : 0.881340             -6.498868            10.075310
| 64>   H                    : -0.767575            -6.350094            10.780891
| 65>   C                      -0.290439            -5.175821            5.549866
| 66>   O                      0.225482             -4.442483            4.481468
| 67>   H                      0.245512             -4.926578            3.653445
| 68>   H                      0.327945             -6.084188            5.706868
| 69>   H                      -0.064656            -4.679792            6.488860
| 70>   H                      -1.417944            -5.373007            5.521078
| 71> *
| 72>
| 73>                          ****END OF INPUT****
 Total Charge           Charge          ....    0
 Multiplicity           Mult            ....    1
 Number of Electrons    NEL             ....   36
Dispersion correction           -0.001014946
FINAL SINGLE POINT ENERGY      -231.465128881623
Dispersion correction           -0.000249233
FINAL SINGLE POINT ENERGY      -115.733485994994

CARTESIAN COORDINATES (ANGSTROEM)
---------------------------------
  C      0.003535   -5.877715   10.140912
  O      0.318346   -4.605744   10.783172
  H      1.007645   -4.757691   11.420423
  H     -0.478516   -5.721957    9.157673
  H      0.881340   -6.498868   10.075310
  H     -0.767575   -6.350094   10.780891
  C     -0.290439   -5.175821    5.549866
  O      0.225482   -4.442483    4.481468
  H      0.245512   -4.926578    3.653445
  H      0.327945   -6.084188    5.706868
  H     -0.064656   -4.679792    6.488860
  H     -1.417944   -5.373007    5.521078

 Multiplicity           Mult            ....    1
 Number of Electrons    NEL             ....   18
 Basis Dimension        Dim             ....  172

ORBITAL ENERGIES
----------------

  NO   OCC          E(Eh)            E(eV)
   0   2.0000     -19.229736      -523.2677
   1   2.0000     -10.317588      -280.7558
   2   2.0000      -1.139201       -30.9992
   3   2.0000      -0.795530       -21.6475
   4   2.0000      -0.611057       -16.6277
   5   2.0000      -0.545658       -14.8481
   6   2.0000      -0.527947       -14.3662
   7   2.0000      -0.417349       -11.3566
   8   2.0000      -0.375132       -10.2079
   9   0.0000       0.084358         2.2955
  10   0.0000       0.117821         3.2061
  11   0.0000       0.140355         3.8192
  12   0.0000       0.171552         4.6682
  13   0.0000       0.188419         5.1271

MULLIKEN ATOMIC CHARGES
-----------------------
   0 C :   -0.000522
   1 O :    0.000013
   2 H :    0.000000
   3 H :    0.000667
   4 H :    0.000020
   5 H :    0.000002
   6 C :   -0.151267
   7 O :   -0.481486
   8 H :    0.319476
   9 H :    0.096294
  10 H :    0.119471
  11 H :    0.097334
Sum of atomic charges:   -0.0000000

LOEWDIN ATOMIC CHARGES
----------------------
   0 C :   -0.000477
   1 O :   -0.000004
   2 H :   -0.000000
   3 H :   -0.000856
   4 H :   -0.000013
   5 H :   -0.000002
   6 C :   -0.410599
   7 O :   -0.064375
   8 H :    0.168328
   9 H :    0.098328
  10 H :    0.106974
  11 H :    0.102698

  Mayer bond orders larger than 0.1
B(  6-C ,  7-O ) :   1.0085 B(  6-C ,  9-H ) :   0.9822 B(  6-C , 10-H ) :   0.9715
B(  6-C , 11-H ) :   0.9666 B(  7-O ,  8-H ) :   0.8929

Dispersion correction           -0.000266647
FINAL SINGLE POINT ENERGY      -115.731362924463

DIPOLE MOMENT
-------------
                                X             Y             Z
Electronic contribution:      0.60627       1.07271      -1.41169
Nuclear contribution   :     -0.75584      -1.66399       1.31436
                        -----------------------------------------
Total Dipole Moment    :     -0.14958      -0.59128      -0.09733
                        -----------------------------------------
Magnitude (a.u.)       :      0.61763
Magnitude (Debye)      :      1.56988

Rotational constants in cm-1:     4.308285     0.825236     0.813777
Rotational constants in MHz : 129159.149731 24739.954767 24396.431140

                             ****ORCA TERMINATED NORMALLY****
TOTAL RUN TIME: 0 days 0 hours 0 minutes 41 seconds 572 msec
