                         Program Version 4.1.2  - RELEASE  -
|  1> #Run DFT-D3 single point of the dimer
|  2> ! wB97X-D3 def2-TZVP TIGHTSCF CHELPG PMODEL PAL8
|  3>
|  4> %base "10-132_DFT_AB"
|  5>
|  6> %scf
|  7> MaxIter 1000
|  8> end
|  9>
| 10> * xyz 0 1
| 11>   C                      3.771709             8.520026             -2.309033
| 12>   O                      4.367163             8.443631             -3.620214
| 13>   H                      5.116592             9.031496             -3.647781
| 14>   H                      3.720613             9.562944             -1.984320
| 15>   H                      2.808419             8.065377             -2.246526
| 16>   H                      4.336444             7.999039             -1.611922
| 17>   C                      1.302535             10.071893            -0.494151
| 18>   O                      1.147358             11.007829            -1.489948
| 19>   H                      1.501920             11.742205            -0.993633
| 20>   H                      2.337597             10.126294            -0.141007
| 21>   H                      0.751451             10.156940            0.435406
| 22>   H                      1.196256             9.046492             -0.909938
| 23> *
| 24>
| 25> #Run DFT-D3 single point of the molecule with dimer basis set
| 26> $new_job
| 27> %base "10-132_DFT_A"
| 28> ! wB97X-D3 def2-TZVP TIGHTSCF CHELPG PMODEL
| 29>
| 30> %scf
| 31> MaxIter 1000
| 32> end
| 33>
| 34> * xyz 0 1
| 35>   C                      3.771709             8.520026             -2.309033
| 36>   O                      4.367163             8.443631             -3.620214
| 37>   H                      5.116592             9.031496             -3.647781
| 38>   H                      3.720613             9.562944             -1.984320
| 39>   H                      2.808419             8.065377             -2.246526
| 40>   H                      4.336444             7.999039             -1.611922
| 41>   C                    : 1.302535             10.071893            -0.494151
| 42>   O                    : 1.147358             11.007829            -1.489948
| 43>   H                    : 1.501920             11.742205            -0.993633
| 44>   H                    : 2.337597             10.126294            -0.141007
| 45>   H                    : 0.751451             10.156940            0.435406
| 46>   H                    : 1.196256             9.046492             -0.909938
| 47> *
| 48>
| 49> #Run DFT-D3 single point of the particle with dimer basis set
| 50> $new_job
| 51> %base "10-132_DFT_B"
| 52> ! wB97X-D3 def2-TZVP TIGHTSCF CHELPG PMODEL
| 53>
| 54> %scf
| 55> MaxIter 1000
| 56> end
| 57>
| 58> * xyz 0 1
| 59>   C                    : 3.771709             8.520026             -2.309033
| 60>   O                    : 4.367163             8.443631             -3.620214
| 61>   H                    : 5.116592             9.031496             -3.647781
| 62>   H                    : 3.720613             9.562944             -1.984320
| 63>   H                    : 2.808419             8.065377             -2.246526
| 64>   H                    : 4.336444             7.999039             -1.611922
| 65>   C                      1.302535             10.071893            -0.494151
| 66>   O                      1.147358             11.007829            -1.489948
| 67>   H                      1.501920             11.742205            -0.993633
| 68>   H                      2.337597             10.126294            -0.141007
| 69>   H                      0.751451             10.156940            0.435406
| 70>   H                      1.196256             9.046492             -0.909938
| 71> *
| 72>
| 73>                          ****END OF INPUT****
 Total Charge           Charge          ....    0
 Multiplicity           Mult            ....    1
 Number of Electrons    NEL             ....   36
Dispersion correction           -0.001870301
FINAL SINGLE POINT ENERGY      -231.458737607420
Dispersion correction           -0.000238944
FINAL SINGLE POINT ENERGY      -115.732203334710

CARTESIAN COORDINATES (ANGSTROEM)
---------------------------------
  C      3.771709    8.520026   -2.309033
  O      4.367163    8.443631   -3.620214
  H      5.116592    9.031496   -3.647781
  H      3.720613    9.562944   -1.984320
  H      2.808419    8.065377   -2.246526
  H      4.336444    7.999039   -1.611922
  C      1.302535   10.071893   -0.494151
  O      1.147358   11.007829   -1.489948
  H      1.501920   11.742205   -0.993633
  H      2.337597   10.126294   -0.141007
  H      0.751451   10.156940    0.435406
  H      1.196256    9.046492   -0.909938

 Multiplicity           Mult            ....    1
 Number of Electrons    NEL             ....   18
 Basis Dimension        Dim             ....  172

ORBITAL ENERGIES
----------------

  NO   OCC          E(Eh)            E(eV)
   0   2.0000     -19.237171      -523.4700
   1   2.0000     -10.311184      -280.5816
   2   2.0000      -1.162128       -31.6231
   3   2.0000      -0.789649       -21.4874
   4   2.0000      -0.625313       -17.0156
   5   2.0000      -0.544407       -14.8141
   6   2.0000      -0.531085       -14.4515
   7   2.0000      -0.444136       -12.0856
   8   2.0000      -0.372906       -10.1473
   9   0.0000       0.088869         2.4183
  10   0.0000       0.119811         3.2602
  11   0.0000       0.152198         4.1415
  12   0.0000       0.175939         4.7875
  13   0.0000       0.185882         5.0581

MULLIKEN ATOMIC CHARGES
-----------------------
   0 C :   -0.002843
   1 O :   -0.000017
   2 H :    0.000004
   3 H :    0.001007
   4 H :   -0.000704
   5 H :    0.001193
   6 C :   -0.192760
   7 O :   -0.440236
   8 H :    0.315538
   9 H :    0.097437
  10 H :    0.108483
  11 H :    0.112897
Sum of atomic charges:   -0.0000000

LOEWDIN ATOMIC CHARGES
----------------------
   0 C :   -0.010603
   1 O :   -0.000037
   2 H :   -0.000011
   3 H :   -0.004827
   4 H :   -0.004369
   5 H :   -0.000247
   6 C :   -0.426832
   7 O :   -0.035040
   8 H :    0.179034
   9 H :    0.096792
  10 H :    0.090551
  11 H :    0.115589

  Mayer bond orders larger than 0.1
B(  6-C ,  7-O ) :   1.0031 B(  6-C ,  9-H ) :   0.9944 B(  6-C , 10-H ) :   0.9578
B(  6-C , 11-H ) :   0.9777 B(  7-O ,  8-H ) :   0.9037

Dispersion correction           -0.000203213
FINAL SINGLE POINT ENERGY      -115.726666854887

DIPOLE MOMENT
-------------
                                X             Y             Z
Electronic contribution:     -0.47883       1.23119      -1.50953
Nuclear contribution   :      0.76263      -1.10390       2.15969
                        -----------------------------------------
Total Dipole Moment    :      0.28380       0.12729       0.65017
                        -----------------------------------------
Magnitude (a.u.)       :      0.72074
Magnitude (Debye)      :      1.83197

Rotational constants in cm-1:     4.307502     0.882138     0.837116
Rotational constants in MHz : 129135.670959 26445.844829 25096.108243

                             ****ORCA TERMINATED NORMALLY****
TOTAL RUN TIME: 0 days 0 hours 1 minutes 3 seconds 679 msec
