                         Program Version 4.1.2  - RELEASE  -
|  1> #Run DFT-D3 single point of the dimer
|  2> ! wB97X-D3 def2-TZVP TIGHTSCF CHELPG PMODEL PAL8
|  3>
|  4> %base "4-156_DFT_AB"
|  5>
|  6> %scf
|  7> MaxIter 1000
|  8> end
|  9>
| 10> * xyz 0 1
| 11>   C                      7.470692             6.028601             6.508345
| 12>   O                      7.339370             6.917307             7.588808
| 13>   H                      7.231223             7.717244             7.138052
| 14>   H                      7.922001             5.088984             6.804653
| 15>   H                      6.594084             5.881988             5.978503
| 16>   H                      8.218591             6.480001             5.812974
| 17>   C                      4.430335             5.512395             8.657637
| 18>   O                      4.405367             6.904607             8.601094
| 19>   H                      5.340159             7.220050             8.776465
| 20>   H                      4.978902             5.137231             9.546736
| 21>   H                      3.450667             5.052634             8.684871
| 22>   H                      4.890700             5.123783             7.757097
| 23> *
| 24>
| 25> #Run DFT-D3 single point of the molecule with dimer basis set
| 26> $new_job
| 27> %base "4-156_DFT_A"
| 28> ! wB97X-D3 def2-TZVP TIGHTSCF CHELPG PMODEL
| 29>
| 30> %scf
| 31> MaxIter 1000
| 32> end
| 33>
| 34> * xyz 0 1
| 35>   C                      7.470692             6.028601             6.508345
| 36>   O                      7.339370             6.917307             7.588808
| 37>   H                      7.231223             7.717244             7.138052
| 38>   H                      7.922001             5.088984             6.804653
| 39>   H                      6.594084             5.881988             5.978503
| 40>   H                      8.218591             6.480001             5.812974
| 41>   C                    : 4.430335             5.512395             8.657637
| 42>   O                    : 4.405367             6.904607             8.601094
| 43>   H                    : 5.340159             7.220050             8.776465
| 44>   H                    : 4.978902             5.137231             9.546736
| 45>   H                    : 3.450667             5.052634             8.684871
| 46>   H                    : 4.890700             5.123783             7.757097
| 47> *
| 48>
| 49> #Run DFT-D3 single point of the particle with dimer basis set
| 50> $new_job
| 51> %base "4-156_DFT_B"
| 52> ! wB97X-D3 def2-TZVP TIGHTSCF CHELPG PMODEL
| 53>
| 54> %scf
| 55> MaxIter 1000
| 56> end
| 57>
| 58> * xyz 0 1
| 59>   C                    : 7.470692             6.028601             6.508345
| 60>   O                    : 7.339370             6.917307             7.588808
| 61>   H                    : 7.231223             7.717244             7.138052
| 62>   H                    : 7.922001             5.088984             6.804653
| 63>   H                    : 6.594084             5.881988             5.978503
| 64>   H                    : 8.218591             6.480001             5.812974
| 65>   C                      4.430335             5.512395             8.657637
| 66>   O                      4.405367             6.904607             8.601094
| 67>   H                      5.340159             7.220050             8.776465
| 68>   H                      4.978902             5.137231             9.546736
| 69>   H                      3.450667             5.052634             8.684871
| 70>   H                      4.890700             5.123783             7.757097
| 71> *
| 72>
| 73>                          ****END OF INPUT****
 Total Charge           Charge          ....    0
 Multiplicity           Mult            ....    1
 Number of Electrons    NEL             ....   36
Dispersion correction           -0.002142742
FINAL SINGLE POINT ENERGY      -231.469739558047
Dispersion correction           -0.000201177
FINAL SINGLE POINT ENERGY      -115.729836931742

CARTESIAN COORDINATES (ANGSTROEM)
---------------------------------
  C      7.470692    6.028601    6.508345
  O      7.339370    6.917307    7.588808
  H      7.231223    7.717244    7.138052
  H      7.922001    5.088984    6.804653
  H      6.594084    5.881988    5.978503
  H      8.218591    6.480001    5.812974
  C      4.430335    5.512395    8.657637
  O      4.405367    6.904607    8.601094
  H      5.340159    7.220050    8.776465
  H      4.978902    5.137231    9.546736
  H      3.450667    5.052634    8.684871
  H      4.890700    5.123783    7.757097

 Multiplicity           Mult            ....    1
 Number of Electrons    NEL             ....   18
 Basis Dimension        Dim             ....  172

ORBITAL ENERGIES
----------------

  NO   OCC          E(Eh)            E(eV)
   0   2.0000     -19.234916      -523.4087
   1   2.0000     -10.309754      -280.5427
   2   2.0000      -1.136474       -30.9250
   3   2.0000      -0.791603       -21.5406
   4   2.0000      -0.608071       -16.5465
   5   2.0000      -0.544543       -14.8178
   6   2.0000      -0.533435       -14.5155
   7   2.0000      -0.429865       -11.6972
   8   2.0000      -0.371423       -10.1069
   9   0.0000       0.074740         2.0338
  10   0.0000       0.124664         3.3923
  11   0.0000       0.145515         3.9597
  12   0.0000       0.182404         4.9635
  13   0.0000       0.188605         5.1322

MULLIKEN ATOMIC CHARGES
-----------------------
   0 C :    0.001603
   1 O :   -0.003749
   2 H :   -0.001278
   3 H :   -0.000534
   4 H :    0.000680
   5 H :    0.000075
   6 C :   -0.173741
   7 O :   -0.464692
   8 H :    0.321062
   9 H :    0.101241
  10 H :    0.121968
  11 H :    0.097365
Sum of atomic charges:    0.0000000

LOEWDIN ATOMIC CHARGES
----------------------
   0 C :   -0.006414
   1 O :   -0.008344
   2 H :   -0.002151
   3 H :   -0.000297
   4 H :   -0.001669
   5 H :   -0.000036
   6 C :   -0.404838
   7 O :   -0.072415
   8 H :    0.198831
   9 H :    0.097888
  10 H :    0.105314
  11 H :    0.094132

  Mayer bond orders larger than 0.1
B(  6-C ,  7-O ) :   1.0077 B(  6-C ,  9-H ) :   0.9835 B(  6-C , 10-H ) :   0.9723
B(  6-C , 11-H ) :   0.9798 B(  7-O ,  8-H ) :   0.8923

Dispersion correction           -0.000231164
FINAL SINGLE POINT ENERGY      -115.733750855167

DIPOLE MOMENT
-------------
                                X             Y             Z
Electronic contribution:     -0.25412       1.86156      -0.08604
Nuclear contribution   :      0.81633      -2.20157       0.21587
                        -----------------------------------------
Total Dipole Moment    :      0.56221      -0.34001       0.12983
                        -----------------------------------------
Magnitude (a.u.)       :      0.66973
Magnitude (Debye)      :      1.70233

Rotational constants in cm-1:     4.281771     0.846505     0.814954
Rotational constants in MHz : 128364.279739 25377.569600 24431.704631

                             ****ORCA TERMINATED NORMALLY****
TOTAL RUN TIME: 0 days 0 hours 1 minutes 29 seconds 928 msec
