                         Program Version 4.1.2  - RELEASE  -
|  1> #Run DFT-D3 single point of the dimer
|  2> ! wB97X-D3 def2-TZVP TIGHTSCF CHELPG PMODEL PAL8
|  3>
|  4> %base "16-43_DFT_AB"
|  5>
|  6> %scf
|  7> MaxIter 1000
|  8> end
|  9>
| 10> * xyz 0 1
| 11>   C                      -9.607152            5.117939             10.317156
| 12>   O                      -9.368994            5.737735             9.035976
| 13>   H                      -8.398916            5.941708             9.107230
| 14>   H                      -9.158430            4.141483             10.316364
| 15>   H                      -9.168728            5.705296             11.156317
| 16>   H                      -10.756930           5.109507             10.406257
| 17>   C                      -11.184906           0.971605             7.176687
| 18>   O                      -10.422062           0.522204             8.299412
| 19>   H                      -9.721010            -0.066477            8.024004
| 20>   H                      -11.829100           1.843151             7.305083
| 21>   H                      -10.623863           1.147876             6.273757
| 22>   H                      -11.894665           0.179690             6.994460
| 23> *
| 24>
| 25> #Run DFT-D3 single point of the molecule with dimer basis set
| 26> $new_job
| 27> %base "16-43_DFT_A"
| 28> ! wB97X-D3 def2-TZVP TIGHTSCF CHELPG PMODEL
| 29>
| 30> %scf
| 31> MaxIter 1000
| 32> end
| 33>
| 34> * xyz 0 1
| 35>   C                      -9.607152            5.117939             10.317156
| 36>   O                      -9.368994            5.737735             9.035976
| 37>   H                      -8.398916            5.941708             9.107230
| 38>   H                      -9.158430            4.141483             10.316364
| 39>   H                      -9.168728            5.705296             11.156317
| 40>   H                      -10.756930           5.109507             10.406257
| 41>   C                    : -11.184906           0.971605             7.176687
| 42>   O                    : -10.422062           0.522204             8.299412
| 43>   H                    : -9.721010            -0.066477            8.024004
| 44>   H                    : -11.829100           1.843151             7.305083
| 45>   H                    : -10.623863           1.147876             6.273757
| 46>   H                    : -11.894665           0.179690             6.994460
| 47> *
| 48>
| 49> #Run DFT-D3 single point of the particle with dimer basis set
| 50> $new_job
| 51> %base "16-43_DFT_B"
| 52> ! wB97X-D3 def2-TZVP TIGHTSCF CHELPG PMODEL
| 53>
| 54> %scf
| 55> MaxIter 1000
| 56> end
| 57>
| 58> * xyz 0 1
| 59>   C                    : -9.607152            5.117939             10.317156
| 60>   O                    : -9.368994            5.737735             9.035976
| 61>   H                    : -8.398916            5.941708             9.107230
| 62>   H                    : -9.158430            4.141483             10.316364
| 63>   H                    : -9.168728            5.705296             11.156317
| 64>   H                    : -10.756930           5.109507             10.406257
| 65>   C                      -11.184906           0.971605             7.176687
| 66>   O                      -10.422062           0.522204             8.299412
| 67>   H                      -9.721010            -0.066477            8.024004
| 68>   H                      -11.829100           1.843151             7.305083
| 69>   H                      -10.623863           1.147876             6.273757
| 70>   H                      -11.894665           0.179690             6.994460
| 71> *
| 72>
| 73>                          ****END OF INPUT****
 Total Charge           Charge          ....    0
 Multiplicity           Mult            ....    1
 Number of Electrons    NEL             ....   36
Dispersion correction           -0.000705599
FINAL SINGLE POINT ENERGY      -231.460969156789
Dispersion correction           -0.000229781
FINAL SINGLE POINT ENERGY      -115.730416669581

CARTESIAN COORDINATES (ANGSTROEM)
---------------------------------
  C     -9.607152    5.117939   10.317156
  O     -9.368994    5.737735    9.035976
  H     -8.398916    5.941708    9.107230
  H     -9.158430    4.141483   10.316364
  H     -9.168728    5.705296   11.156317
  H    -10.756930    5.109507   10.406257
  C    -11.184906    0.971605    7.176687
  O    -10.422062    0.522204    8.299412
  H     -9.721010   -0.066477    8.024004
  H    -11.829100    1.843151    7.305083
  H    -10.623863    1.147876    6.273757
  H    -11.894665    0.179690    6.994460

 Multiplicity           Mult            ....    1
 Number of Electrons    NEL             ....   18
 Basis Dimension        Dim             ....  172

ORBITAL ENERGIES
----------------

  NO   OCC          E(Eh)            E(eV)
   0   2.0000     -19.228422      -523.2320
   1   2.0000     -10.311038      -280.5776
   2   2.0000      -1.129975       -30.7482
   3   2.0000      -0.801778       -21.8175
   4   2.0000      -0.610371       -16.6090
   5   2.0000      -0.538834       -14.6624
   6   2.0000      -0.531229       -14.4555
   7   2.0000      -0.430670       -11.7191
   8   2.0000      -0.370786       -10.0896
   9   0.0000       0.092213         2.5092
  10   0.0000       0.117527         3.1981
  11   0.0000       0.149730         4.0744
  12   0.0000       0.171822         4.6755
  13   0.0000       0.190505         5.1839

MULLIKEN ATOMIC CHARGES
-----------------------
   0 C :    0.000288
   1 O :    0.000005
   2 H :   -0.000002
   3 H :   -0.000910
   4 H :   -0.000032
   5 H :   -0.000003
   6 C :   -0.169919
   7 O :   -0.485559
   8 H :    0.317796
   9 H :    0.121178
  10 H :    0.108504
  11 H :    0.108654
Sum of atomic charges:   -0.0000000

LOEWDIN ATOMIC CHARGES
----------------------
   0 C :   -0.000085
   1 O :   -0.000008
   2 H :   -0.000000
   3 H :   -0.000297
   4 H :   -0.000004
   5 H :   -0.000006
   6 C :   -0.372906
   7 O :   -0.089081
   8 H :    0.165749
   9 H :    0.108144
  10 H :    0.092767
  11 H :    0.095728

  Mayer bond orders larger than 0.1
B(  6-C ,  7-O ) :   0.9898 B(  6-C ,  9-H ) :   0.9704 B(  6-C , 10-H ) :   0.9749
B(  6-C , 11-H ) :   0.9875 B(  7-O ,  8-H ) :   0.8965

Dispersion correction           -0.000253820
FINAL SINGLE POINT ENERGY      -115.730071291157

DIPOLE MOMENT
-------------
                                X             Y             Z
Electronic contribution:      1.00012      -0.39053       1.52614
Nuclear contribution   :     -0.87377       0.19763      -2.18513
                        -----------------------------------------
Total Dipole Moment    :      0.12634      -0.19289      -0.65899
                        -----------------------------------------
Magnitude (a.u.)       :      0.69817
Magnitude (Debye)      :      1.77460

Rotational constants in cm-1:     4.558946     0.806667     0.779444
Rotational constants in MHz : 136673.757655 24183.278737 23367.150937

                             ****ORCA TERMINATED NORMALLY****
TOTAL RUN TIME: 0 days 0 hours 1 minutes 3 seconds 841 msec
