                         Program Version 4.1.2  - RELEASE  -
|  1> #Run DFT-D3 single point of the dimer
|  2> ! wB97X-D3 def2-TZVP TIGHTSCF CHELPG PMODEL PAL8
|  3>
|  4> %base "17-67_DFT_AB"
|  5>
|  6> %scf
|  7> MaxIter 1000
|  8> end
|  9>
| 10> * xyz 0 1
| 11>   C                      3.428928             8.666497             5.285069
| 12>   O                      4.762131             8.230754             5.347500
| 13>   H                      4.851017             7.570642             4.577961
| 14>   H                      3.003292             8.738284             4.342669
| 15>   H                      2.793504             7.932422             5.811546
| 16>   H                      3.320919             9.639837             5.807513
| 17>   C                      -0.445932            5.554974             3.372551
| 18>   O                      -0.663592            6.769137             4.080344
| 19>   H                      0.032541             7.339053             3.796839
| 20>   H                      -0.915059            5.486285             2.342016
| 21>   H                      0.646634             5.279527             3.239497
| 22>   H                      -0.797470            4.678995             3.995883
| 23> *
| 24>
| 25> #Run DFT-D3 single point of the molecule with dimer basis set
| 26> $new_job
| 27> %base "17-67_DFT_A"
| 28> ! wB97X-D3 def2-TZVP TIGHTSCF CHELPG PMODEL
| 29>
| 30> %scf
| 31> MaxIter 1000
| 32> end
| 33>
| 34> * xyz 0 1
| 35>   C                      3.428928             8.666497             5.285069
| 36>   O                      4.762131             8.230754             5.347500
| 37>   H                      4.851017             7.570642             4.577961
| 38>   H                      3.003292             8.738284             4.342669
| 39>   H                      2.793504             7.932422             5.811546
| 40>   H                      3.320919             9.639837             5.807513
| 41>   C                    : -0.445932            5.554974             3.372551
| 42>   O                    : -0.663592            6.769137             4.080344
| 43>   H                    : 0.032541             7.339053             3.796839
| 44>   H                    : -0.915059            5.486285             2.342016
| 45>   H                    : 0.646634             5.279527             3.239497
| 46>   H                    : -0.797470            4.678995             3.995883
| 47> *
| 48>
| 49> #Run DFT-D3 single point of the particle with dimer basis set
| 50> $new_job
| 51> %base "17-67_DFT_B"
| 52> ! wB97X-D3 def2-TZVP TIGHTSCF CHELPG PMODEL
| 53>
| 54> %scf
| 55> MaxIter 1000
| 56> end
| 57>
| 58> * xyz 0 1
| 59>   C                    : 3.428928             8.666497             5.285069
| 60>   O                    : 4.762131             8.230754             5.347500
| 61>   H                    : 4.851017             7.570642             4.577961
| 62>   H                    : 3.003292             8.738284             4.342669
| 63>   H                    : 2.793504             7.932422             5.811546
| 64>   H                    : 3.320919             9.639837             5.807513
| 65>   C                      -0.445932            5.554974             3.372551
| 66>   O                      -0.663592            6.769137             4.080344
| 67>   H                      0.032541             7.339053             3.796839
| 68>   H                      -0.915059            5.486285             2.342016
| 69>   H                      0.646634             5.279527             3.239497
| 70>   H                      -0.797470            4.678995             3.995883
| 71> *
| 72>
| 73>                          ****END OF INPUT****
 Total Charge           Charge          ....    0
 Multiplicity           Mult            ....    1
 Number of Electrons    NEL             ....   36
Dispersion correction           -0.000936817
FINAL SINGLE POINT ENERGY      -231.460819856124
Dispersion correction           -0.000231716
FINAL SINGLE POINT ENERGY      -115.729334666749

CARTESIAN COORDINATES (ANGSTROEM)
---------------------------------
  C      3.428928    8.666497    5.285069
  O      4.762131    8.230754    5.347500
  H      4.851017    7.570642    4.577961
  H      3.003292    8.738284    4.342669
  H      2.793504    7.932422    5.811546
  H      3.320919    9.639837    5.807513
  C     -0.445932    5.554974    3.372551
  O     -0.663592    6.769137    4.080344
  H      0.032541    7.339053    3.796839
  H     -0.915059    5.486285    2.342016
  H      0.646634    5.279527    3.239497
  H     -0.797470    4.678995    3.995883

 Multiplicity           Mult            ....    1
 Number of Electrons    NEL             ....   18
 Basis Dimension        Dim             ....  172

ORBITAL ENERGIES
----------------

  NO   OCC          E(Eh)            E(eV)
   0   2.0000     -19.235966      -523.4372
   1   2.0000     -10.326595      -281.0009
   2   2.0000      -1.142647       -31.0930
   3   2.0000      -0.788916       -21.4675
   4   2.0000      -0.612637       -16.6707
   5   2.0000      -0.536915       -14.6102
   6   2.0000      -0.520560       -14.1652
   7   2.0000      -0.433002       -11.7826
   8   2.0000      -0.379232       -10.3194
   9   0.0000       0.074890         2.0379
  10   0.0000       0.121538         3.3072
  11   0.0000       0.143737         3.9113
  12   0.0000       0.167425         4.5559
  13   0.0000       0.187820         5.1108

MULLIKEN ATOMIC CHARGES
-----------------------
   0 C :    0.000554
   1 O :   -0.000005
   2 H :   -0.000006
   3 H :   -0.000315
   4 H :   -0.001309
   5 H :   -0.000057
   6 C :   -0.184820
   7 O :   -0.457604
   8 H :    0.315788
   9 H :    0.104738
  10 H :    0.103489
  11 H :    0.119546
Sum of atomic charges:    0.0000000

LOEWDIN ATOMIC CHARGES
----------------------
   0 C :   -0.000400
   1 O :   -0.000009
   2 H :   -0.000004
   3 H :   -0.000245
   4 H :   -0.000471
   5 H :   -0.000002
   6 C :   -0.403282
   7 O :   -0.069599
   8 H :    0.160223
   9 H :    0.100460
  10 H :    0.100442
  11 H :    0.112888

  Mayer bond orders larger than 0.1
B(  6-C ,  7-O ) :   1.0095 B(  6-C ,  9-H ) :   0.9650 B(  6-C , 10-H ) :   0.9755
B(  6-C , 11-H ) :   0.9727 B(  7-O ,  8-H ) :   0.9037

Dispersion correction           -0.000275556
FINAL SINGLE POINT ENERGY      -115.731589461953

DIPOLE MOMENT
-------------
                                X             Y             Z
Electronic contribution:     -0.47596       1.69447       0.98418
Nuclear contribution   :      1.02128      -1.80382      -1.41606
                        -----------------------------------------
Total Dipole Moment    :      0.54532      -0.10935      -0.43188
                        -----------------------------------------
Magnitude (a.u.)       :      0.70417
Magnitude (Debye)      :      1.78986

Rotational constants in cm-1:     4.177191     0.805148     0.784119
Rotational constants in MHz : 125229.028220 24137.739046 23507.288183

                             ****ORCA TERMINATED NORMALLY****
TOTAL RUN TIME: 0 days 0 hours 1 minutes 10 seconds 101 msec
