                         Program Version 4.1.2  - RELEASE  -
|  1> #Run DFT-D3 single point of the dimer
|  2> ! wB97X-D3 def2-TZVP TIGHTSCF CHELPG PMODEL PAL8
|  3>
|  4> %base "3-104_DFT_AB"
|  5>
|  6> %scf
|  7> MaxIter 1000
|  8> end
|  9>
| 10> * xyz 0 1
| 11>   C                      3.247965             -4.559031            -0.450661
| 12>   O                      3.082228             -5.100131            0.833028
| 13>   H                      3.428484             -4.516003            1.598931
| 14>   H                      2.833958             -5.230700            -1.176977
| 15>   H                      2.781872             -3.575299            -0.586808
| 16>   H                      4.333572             -4.378047            -0.637821
| 17>   C                      3.443133             -0.202430            -2.160628
| 18>   O                      2.443729             -0.828552            -1.398235
| 19>   H                      2.485112             -0.502580            -0.506503
| 20>   H                      3.669809             -0.694612            -3.092082
| 21>   H                      3.078691             0.754696             -2.331958
| 22>   H                      4.386153             -0.088882            -1.599630
| 23> *
| 24>
| 25> #Run DFT-D3 single point of the molecule with dimer basis set
| 26> $new_job
| 27> %base "3-104_DFT_A"
| 28> ! wB97X-D3 def2-TZVP TIGHTSCF CHELPG PMODEL
| 29>
| 30> %scf
| 31> MaxIter 1000
| 32> end
| 33>
| 34> * xyz 0 1
| 35>   C                      3.247965             -4.559031            -0.450661
| 36>   O                      3.082228             -5.100131            0.833028
| 37>   H                      3.428484             -4.516003            1.598931
| 38>   H                      2.833958             -5.230700            -1.176977
| 39>   H                      2.781872             -3.575299            -0.586808
| 40>   H                      4.333572             -4.378047            -0.637821
| 41>   C                    : 3.443133             -0.202430            -2.160628
| 42>   O                    : 2.443729             -0.828552            -1.398235
| 43>   H                    : 2.485112             -0.502580            -0.506503
| 44>   H                    : 3.669809             -0.694612            -3.092082
| 45>   H                    : 3.078691             0.754696             -2.331958
| 46>   H                    : 4.386153             -0.088882            -1.599630
| 47> *
| 48>
| 49> #Run DFT-D3 single point of the particle with dimer basis set
| 50> $new_job
| 51> %base "3-104_DFT_B"
| 52> ! wB97X-D3 def2-TZVP TIGHTSCF CHELPG PMODEL
| 53>
| 54> %scf
| 55> MaxIter 1000
| 56> end
| 57>
| 58> * xyz 0 1
| 59>   C                    : 3.247965             -4.559031            -0.450661
| 60>   O                    : 3.082228             -5.100131            0.833028
| 61>   H                    : 3.428484             -4.516003            1.598931
| 62>   H                    : 2.833958             -5.230700            -1.176977
| 63>   H                    : 2.781872             -3.575299            -0.586808
| 64>   H                    : 4.333572             -4.378047            -0.637821
| 65>   C                      3.443133             -0.202430            -2.160628
| 66>   O                      2.443729             -0.828552            -1.398235
| 67>   H                      2.485112             -0.502580            -0.506503
| 68>   H                      3.669809             -0.694612            -3.092082
| 69>   H                      3.078691             0.754696             -2.331958
| 70>   H                      4.386153             -0.088882            -1.599630
| 71> *
| 72>
| 73>                          ****END OF INPUT****
 Total Charge           Charge          ....    0
 Multiplicity           Mult            ....    1
 Number of Electrons    NEL             ....   36
Dispersion correction           -0.001198546
FINAL SINGLE POINT ENERGY      -231.463899973924
Dispersion correction           -0.000258005
FINAL SINGLE POINT ENERGY      -115.731136628641

CARTESIAN COORDINATES (ANGSTROEM)
---------------------------------
  C      3.247965   -4.559031   -0.450661
  O      3.082228   -5.100131    0.833028
  H      3.428484   -4.516003    1.598931
  H      2.833958   -5.230700   -1.176977
  H      2.781872   -3.575299   -0.586808
  H      4.333572   -4.378047   -0.637821
  C      3.443133   -0.202430   -2.160628
  O      2.443729   -0.828552   -1.398235
  H      2.485112   -0.502580   -0.506503
  H      3.669809   -0.694612   -3.092082
  H      3.078691    0.754696   -2.331958
  H      4.386153   -0.088882   -1.599630

 Multiplicity           Mult            ....    1
 Number of Electrons    NEL             ....   18
 Basis Dimension        Dim             ....  172

ORBITAL ENERGIES
----------------

  NO   OCC          E(Eh)            E(eV)
   0   2.0000     -19.225832      -523.1615
   1   2.0000     -10.305189      -280.4184
   2   2.0000      -1.139591       -31.0098
   3   2.0000      -0.800653       -21.7869
   4   2.0000      -0.613101       -16.6833
   5   2.0000      -0.551335       -15.0026
   6   2.0000      -0.531864       -14.4728
   7   2.0000      -0.431976       -11.7547
   8   2.0000      -0.370284       -10.0759
   9   0.0000       0.092189         2.5086
  10   0.0000       0.121742         3.3128
  11   0.0000       0.156411         4.2562
  12   0.0000       0.169548         4.6136
  13   0.0000       0.200028         5.4430

MULLIKEN ATOMIC CHARGES
-----------------------
   0 C :    0.001892
   1 O :    0.000041
   2 H :   -0.000014
   3 H :   -0.000344
   4 H :   -0.009501
   5 H :   -0.000014
   6 C :   -0.150400
   7 O :   -0.477053
   8 H :    0.316413
   9 H :    0.119321
  10 H :    0.104204
  11 H :    0.095455
Sum of atomic charges:   -0.0000000

LOEWDIN ATOMIC CHARGES
----------------------
   0 C :   -0.002425
   1 O :   -0.000029
   2 H :   -0.000004
   3 H :   -0.000031
   4 H :   -0.007858
   5 H :   -0.000080
   6 C :   -0.379343
   7 O :   -0.062459
   8 H :    0.164266
   9 H :    0.105372
  10 H :    0.085644
  11 H :    0.096948

  Mayer bond orders larger than 0.1
B(  6-C ,  7-O ) :   0.9833 B(  6-C ,  9-H ) :   0.9718 B(  6-C , 10-H ) :   0.9845
B(  6-C , 11-H ) :   0.9820 B(  7-O ,  8-H ) :   0.8979

Dispersion correction           -0.000215848
FINAL SINGLE POINT ENERGY      -115.731611626511

DIPOLE MOMENT
-------------
                                X             Y             Z
Electronic contribution:     -1.31045      -0.90724       0.76342
Nuclear contribution   :      1.74004       1.39672      -0.51117
                        -----------------------------------------
Total Dipole Moment    :      0.42959       0.48949       0.25225
                        -----------------------------------------
Magnitude (a.u.)       :      0.69841
Magnitude (Debye)      :      1.77522

Rotational constants in cm-1:     4.466617     0.848290     0.813775
Rotational constants in MHz : 133905.797052 25431.102308 24396.364089

                             ****ORCA TERMINATED NORMALLY****
TOTAL RUN TIME: 0 days 0 hours 6 minutes 6 seconds 609 msec
