                         Program Version 4.1.2  - RELEASE  -
|  1> #Run DFT-D3 single point of the dimer
|  2> ! wB97X-D3 def2-TZVP TIGHTSCF CHELPG PMODEL PAL8
|  3>
|  4> %base "8-109_DFT_AB"
|  5>
|  6> %scf
|  7> MaxIter 1000
|  8> end
|  9>
| 10> * xyz 0 1
| 11>   C                      6.607193             -4.525845            4.377470
| 12>   O                      6.373419             -5.532670            3.540175
| 13>   H                      5.453092             -5.878373            3.648403
| 14>   H                      6.456532             -4.812050            5.465561
| 15>   H                      7.700353             -4.239288            4.432152
| 16>   H                      6.134564             -3.540531            4.143520
| 17>   C                      4.453299             -7.891015            7.200770
| 18>   O                      5.806999             -8.137532            7.399808
| 19>   H                      6.220994             -8.641215            6.728034
| 20>   H                      4.042633             -8.647299            6.533391
| 21>   H                      3.871545             -7.952245            8.090356
| 22>   H                      4.242423             -6.909423            6.841852
| 23> *
| 24>
| 25> #Run DFT-D3 single point of the molecule with dimer basis set
| 26> $new_job
| 27> %base "8-109_DFT_A"
| 28> ! wB97X-D3 def2-TZVP TIGHTSCF CHELPG PMODEL
| 29>
| 30> %scf
| 31> MaxIter 1000
| 32> end
| 33>
| 34> * xyz 0 1
| 35>   C                      6.607193             -4.525845            4.377470
| 36>   O                      6.373419             -5.532670            3.540175
| 37>   H                      5.453092             -5.878373            3.648403
| 38>   H                      6.456532             -4.812050            5.465561
| 39>   H                      7.700353             -4.239288            4.432152
| 40>   H                      6.134564             -3.540531            4.143520
| 41>   C                    : 4.453299             -7.891015            7.200770
| 42>   O                    : 5.806999             -8.137532            7.399808
| 43>   H                    : 6.220994             -8.641215            6.728034
| 44>   H                    : 4.042633             -8.647299            6.533391
| 45>   H                    : 3.871545             -7.952245            8.090356
| 46>   H                    : 4.242423             -6.909423            6.841852
| 47> *
| 48>
| 49> #Run DFT-D3 single point of the particle with dimer basis set
| 50> $new_job
| 51> %base "8-109_DFT_B"
| 52> ! wB97X-D3 def2-TZVP TIGHTSCF CHELPG PMODEL
| 53>
| 54> %scf
| 55> MaxIter 1000
| 56> end
| 57>
| 58> * xyz 0 1
| 59>   C                    : 6.607193             -4.525845            4.377470
| 60>   O                    : 6.373419             -5.532670            3.540175
| 61>   H                    : 5.453092             -5.878373            3.648403
| 62>   H                    : 6.456532             -4.812050            5.465561
| 63>   H                    : 7.700353             -4.239288            4.432152
| 64>   H                    : 6.134564             -3.540531            4.143520
| 65>   C                      4.453299             -7.891015            7.200770
| 66>   O                      5.806999             -8.137532            7.399808
| 67>   H                      6.220994             -8.641215            6.728034
| 68>   H                      4.042633             -8.647299            6.533391
| 69>   H                      3.871545             -7.952245            8.090356
| 70>   H                      4.242423             -6.909423            6.841852
| 71> *
| 72>
| 73>                          ****END OF INPUT****
 Total Charge           Charge          ....    0
 Multiplicity           Mult            ....    1
 Number of Electrons    NEL             ....   36
Dispersion correction           -0.001083831
FINAL SINGLE POINT ENERGY      -231.459961916594
Dispersion correction           -0.000250666
FINAL SINGLE POINT ENERGY      -115.727225139674

CARTESIAN COORDINATES (ANGSTROEM)
---------------------------------
  C      6.607193   -4.525845    4.377470
  O      6.373419   -5.532670    3.540175
  H      5.453092   -5.878373    3.648403
  H      6.456532   -4.812050    5.465561
  H      7.700353   -4.239288    4.432152
  H      6.134564   -3.540531    4.143520
  C      4.453299   -7.891015    7.200770
  O      5.806999   -8.137532    7.399808
  H      6.220994   -8.641215    6.728034
  H      4.042633   -8.647299    6.533391
  H      3.871545   -7.952245    8.090356
  H      4.242423   -6.909423    6.841852

 Multiplicity           Mult            ....    1
 Number of Electrons    NEL             ....   18
 Basis Dimension        Dim             ....  172

ORBITAL ENERGIES
----------------

  NO   OCC          E(Eh)            E(eV)
   0   2.0000     -19.224666      -523.1298
   1   2.0000     -10.304890      -280.4103
   2   2.0000      -1.142844       -31.0984
   3   2.0000      -0.806019       -21.9329
   4   2.0000      -0.620256       -16.8780
   5   2.0000      -0.547489       -14.8979
   6   2.0000      -0.537079       -14.6147
   7   2.0000      -0.421878       -11.4799
   8   2.0000      -0.373109       -10.1528
   9   0.0000       0.084586         2.3017
  10   0.0000       0.121209         3.2983
  11   0.0000       0.152607         4.1527
  12   0.0000       0.167707         4.5635
  13   0.0000       0.186999         5.0885

MULLIKEN ATOMIC CHARGES
-----------------------
   0 C :   -0.000139
   1 O :    0.000024
   2 H :    0.000015
   3 H :   -0.000584
   4 H :   -0.000009
   5 H :    0.000028
   6 C :   -0.147948
   7 O :   -0.483964
   8 H :    0.318884
   9 H :    0.099646
  10 H :    0.113658
  11 H :    0.100389
Sum of atomic charges:   -0.0000000

LOEWDIN ATOMIC CHARGES
----------------------
   0 C :   -0.000301
   1 O :   -0.000018
   2 H :   -0.000109
   3 H :   -0.000395
   4 H :   -0.000002
   5 H :   -0.000007
   6 C :   -0.390212
   7 O :   -0.049753
   8 H :    0.154534
   9 H :    0.097560
  10 H :    0.098725
  11 H :    0.089978

  Mayer bond orders larger than 0.1
B(  6-C ,  7-O ) :   1.0108 B(  6-C ,  9-H ) :   0.9918 B(  6-C , 10-H ) :   0.9756
B(  6-C , 11-H ) :   0.9756 B(  7-O ,  8-H ) :   0.8979

Dispersion correction           -0.000242651
FINAL SINGLE POINT ENERGY      -115.731937792956

DIPOLE MOMENT
-------------
                                X             Y             Z
Electronic contribution:      1.78242      -0.23658       0.34763
Nuclear contribution   :     -2.06389      -0.02033      -0.87102
                        -----------------------------------------
Total Dipole Moment    :     -0.28148      -0.25691      -0.52339
                        -----------------------------------------
Magnitude (a.u.)       :      0.64743
Magnitude (Debye)      :      1.64564

Rotational constants in cm-1:     4.653472     0.846541     0.817027
Rotational constants in MHz : 139507.587148 25378.667193 24493.852294

                             ****ORCA TERMINATED NORMALLY****
TOTAL RUN TIME: 0 days 0 hours 0 minutes 43 seconds 796 msec
