                         Program Version 4.1.2  - RELEASE  -
|  1> #Run DFT-D3 single point of the dimer
|  2> ! wB97X-D3 def2-TZVP TIGHTSCF CHELPG PMODEL PAL8
|  3>
|  4> %base "16-102_DFT_AB"
|  5>
|  6> %scf
|  7> MaxIter 1000
|  8> end
|  9>
| 10> * xyz 0 1
| 11>   C                      5.434958             2.875792             -9.733265
| 12>   O                      6.885886             2.877586             -9.509406
| 13>   H                      7.289825             2.013666             -9.590393
| 14>   H                      5.137906             3.799958             -10.234967
| 15>   H                      5.202899             1.890700             -10.161595
| 16>   H                      4.848795             2.960356             -8.769228
| 17>   C                      9.158402             0.253400             -9.543110
| 18>   O                      8.115588             0.400856             -10.473613
| 19>   H                      8.161797             -0.397241            -11.007064
| 20>   H                      9.995225             -0.328407            -9.904958
| 21>   H                      9.520320             1.180099             -9.196162
| 22>   H                      8.811864             -0.374419            -8.642526
| 23> *
| 24>
| 25> #Run DFT-D3 single point of the molecule with dimer basis set
| 26> $new_job
| 27> %base "16-102_DFT_A"
| 28> ! wB97X-D3 def2-TZVP TIGHTSCF CHELPG PMODEL
| 29>
| 30> %scf
| 31> MaxIter 1000
| 32> end
| 33>
| 34> * xyz 0 1
| 35>   C                      5.434958             2.875792             -9.733265
| 36>   O                      6.885886             2.877586             -9.509406
| 37>   H                      7.289825             2.013666             -9.590393
| 38>   H                      5.137906             3.799958             -10.234967
| 39>   H                      5.202899             1.890700             -10.161595
| 40>   H                      4.848795             2.960356             -8.769228
| 41>   C                    : 9.158402             0.253400             -9.543110
| 42>   O                    : 8.115588             0.400856             -10.473613
| 43>   H                    : 8.161797             -0.397241            -11.007064
| 44>   H                    : 9.995225             -0.328407            -9.904958
| 45>   H                    : 9.520320             1.180099             -9.196162
| 46>   H                    : 8.811864             -0.374419            -8.642526
| 47> *
| 48>
| 49> #Run DFT-D3 single point of the particle with dimer basis set
| 50> $new_job
| 51> %base "16-102_DFT_B"
| 52> ! wB97X-D3 def2-TZVP TIGHTSCF CHELPG PMODEL
| 53>
| 54> %scf
| 55> MaxIter 1000
| 56> end
| 57>
| 58> * xyz 0 1
| 59>   C                    : 5.434958             2.875792             -9.733265
| 60>   O                    : 6.885886             2.877586             -9.509406
| 61>   H                    : 7.289825             2.013666             -9.590393
| 62>   H                    : 5.137906             3.799958             -10.234967
| 63>   H                    : 5.202899             1.890700             -10.161595
| 64>   H                    : 4.848795             2.960356             -8.769228
| 65>   C                      9.158402             0.253400             -9.543110
| 66>   O                      8.115588             0.400856             -10.473613
| 67>   H                      8.161797             -0.397241            -11.007064
| 68>   H                      9.995225             -0.328407            -9.904958
| 69>   H                      9.520320             1.180099             -9.196162
| 70>   H                      8.811864             -0.374419            -8.642526
| 71> *
| 72>
| 73>                          ****END OF INPUT****
 Total Charge           Charge          ....    0
 Multiplicity           Mult            ....    1
 Number of Electrons    NEL             ....   36
Dispersion correction           -0.001697369
FINAL SINGLE POINT ENERGY      -231.465382783550
Dispersion correction           -0.000273540
FINAL SINGLE POINT ENERGY      -115.727698019330

CARTESIAN COORDINATES (ANGSTROEM)
---------------------------------
  C      5.434958    2.875792   -9.733265
  O      6.885886    2.877586   -9.509406
  H      7.289825    2.013666   -9.590393
  H      5.137906    3.799958  -10.234967
  H      5.202899    1.890700  -10.161595
  H      4.848795    2.960356   -8.769228
  C      9.158402    0.253400   -9.543110
  O      8.115588    0.400856  -10.473613
  H      8.161797   -0.397241  -11.007064
  H      9.995225   -0.328407   -9.904958
  H      9.520320    1.180099   -9.196162
  H      8.811864   -0.374419   -8.642526

 Multiplicity           Mult            ....    1
 Number of Electrons    NEL             ....   18
 Basis Dimension        Dim             ....  172

ORBITAL ENERGIES
----------------

  NO   OCC          E(Eh)            E(eV)
   0   2.0000     -19.234339      -523.3930
   1   2.0000     -10.312888      -280.6279
   2   2.0000      -1.143039       -31.1037
   3   2.0000      -0.795225       -21.6392
   4   2.0000      -0.617204       -16.7950
   5   2.0000      -0.539765       -14.6878
   6   2.0000      -0.526372       -14.3233
   7   2.0000      -0.444330       -12.0908
   8   2.0000      -0.370828       -10.0908
   9   0.0000       0.100519         2.7353
  10   0.0000       0.120841         3.2883
  11   0.0000       0.151943         4.1346
  12   0.0000       0.186119         5.0646
  13   0.0000       0.195953         5.3321

MULLIKEN ATOMIC CHARGES
-----------------------
   0 C :    0.000975
   1 O :   -0.000263
   2 H :   -0.001355
   3 H :   -0.000056
   4 H :   -0.003030
   5 H :   -0.000084
   6 C :   -0.181952
   7 O :   -0.451262
   8 H :    0.311141
   9 H :    0.112223
  10 H :    0.121723
  11 H :    0.091941
Sum of atomic charges:    0.0000000

LOEWDIN ATOMIC CHARGES
----------------------
   0 C :   -0.002161
   1 O :   -0.003402
   2 H :   -0.026766
   3 H :   -0.000017
   4 H :   -0.001533
   5 H :   -0.000014
   6 C :   -0.390743
   7 O :   -0.043111
   8 H :    0.173042
   9 H :    0.094029
  10 H :    0.097474
  11 H :    0.103201

  Mayer bond orders larger than 0.1
B(  6-C ,  7-O ) :   1.0005 B(  6-C ,  9-H ) :   0.9744 B(  6-C , 10-H ) :   0.9786
B(  6-C , 11-H ) :   0.9746 B(  7-O ,  8-H ) :   0.9015

Dispersion correction           -0.000236380
FINAL SINGLE POINT ENERGY      -115.732509335846

DIPOLE MOMENT
-------------
                                X             Y             Z
Electronic contribution:     -1.36688       0.49024      -1.27755
Nuclear contribution   :      1.82792      -1.04041       1.26268
                        -----------------------------------------
Total Dipole Moment    :      0.46104      -0.55017      -0.01487
                        -----------------------------------------
Magnitude (a.u.)       :      0.71796
Magnitude (Debye)      :      1.82492

Rotational constants in cm-1:     4.304642     0.838289     0.807608
Rotational constants in MHz : 129049.916871 25131.281527 24211.475939

                             ****ORCA TERMINATED NORMALLY****
TOTAL RUN TIME: 0 days 0 hours 1 minutes 6 seconds 838 msec
