                         Program Version 4.1.2  - RELEASE  -
|  1> #Run DFT-D3 single point of the dimer
|  2> ! wB97X-D3 def2-TZVP TIGHTSCF CHELPG PMODEL PAL8
|  3>
|  4> %base "17-126_DFT_AB"
|  5>
|  6> %scf
|  7> MaxIter 1000
|  8> end
|  9>
| 10> * xyz 0 1
| 11>   C                      -4.988998            9.601026             -3.583272
| 12>   O                      -3.625614            9.389035             -3.176934
| 13>   H                      -3.637029            9.435312             -2.249069
| 14>   H                      -5.701993            9.682365             -2.747060
| 15>   H                      -5.095622            10.449238            -4.301233
| 16>   H                      -5.365626            8.684799             -4.130717
| 17>   C                      -7.600050            8.867066             -7.756654
| 18>   O                      -7.220988            9.200179             -6.413304
| 19>   H                      -6.302554            9.504974             -6.519398
| 20>   H                      -8.265899            9.559176             -8.202592
| 21>   H                      -6.671656            8.797403             -8.354159
| 22>   H                      -8.063249            7.830179             -7.673534
| 23> *
| 24>
| 25> #Run DFT-D3 single point of the molecule with dimer basis set
| 26> $new_job
| 27> %base "17-126_DFT_A"
| 28> ! wB97X-D3 def2-TZVP TIGHTSCF CHELPG PMODEL
| 29>
| 30> %scf
| 31> MaxIter 1000
| 32> end
| 33>
| 34> * xyz 0 1
| 35>   C                      -4.988998            9.601026             -3.583272
| 36>   O                      -3.625614            9.389035             -3.176934
| 37>   H                      -3.637029            9.435312             -2.249069
| 38>   H                      -5.701993            9.682365             -2.747060
| 39>   H                      -5.095622            10.449238            -4.301233
| 40>   H                      -5.365626            8.684799             -4.130717
| 41>   C                    : -7.600050            8.867066             -7.756654
| 42>   O                    : -7.220988            9.200179             -6.413304
| 43>   H                    : -6.302554            9.504974             -6.519398
| 44>   H                    : -8.265899            9.559176             -8.202592
| 45>   H                    : -6.671656            8.797403             -8.354159
| 46>   H                    : -8.063249            7.830179             -7.673534
| 47> *
| 48>
| 49> #Run DFT-D3 single point of the particle with dimer basis set
| 50> $new_job
| 51> %base "17-126_DFT_B"
| 52> ! wB97X-D3 def2-TZVP TIGHTSCF CHELPG PMODEL
| 53>
| 54> %scf
| 55> MaxIter 1000
| 56> end
| 57>
| 58> * xyz 0 1
| 59>   C                    : -4.988998            9.601026             -3.583272
| 60>   O                    : -3.625614            9.389035             -3.176934
| 61>   H                    : -3.637029            9.435312             -2.249069
| 62>   H                    : -5.701993            9.682365             -2.747060
| 63>   H                    : -5.095622            10.449238            -4.301233
| 64>   H                    : -5.365626            8.684799             -4.130717
| 65>   C                      -7.600050            8.867066             -7.756654
| 66>   O                      -7.220988            9.200179             -6.413304
| 67>   H                      -6.302554            9.504974             -6.519398
| 68>   H                      -8.265899            9.559176             -8.202592
| 69>   H                      -6.671656            8.797403             -8.354159
| 70>   H                      -8.063249            7.830179             -7.673534
| 71> *
| 72>
| 73>                          ****END OF INPUT****
 Total Charge           Charge          ....    0
 Multiplicity           Mult            ....    1
 Number of Electrons    NEL             ....   36
Dispersion correction           -0.001345067
FINAL SINGLE POINT ENERGY      -231.464491266035
Dispersion correction           -0.000269140
FINAL SINGLE POINT ENERGY      -115.731768183245

CARTESIAN COORDINATES (ANGSTROEM)
---------------------------------
  C     -4.988998    9.601026   -3.583272
  O     -3.625614    9.389035   -3.176934
  H     -3.637029    9.435312   -2.249069
  H     -5.701993    9.682365   -2.747060
  H     -5.095622   10.449238   -4.301233
  H     -5.365626    8.684799   -4.130717
  C     -7.600050    8.867066   -7.756654
  O     -7.220988    9.200179   -6.413304
  H     -6.302554    9.504974   -6.519398
  H     -8.265899    9.559176   -8.202592
  H     -6.671656    8.797403   -8.354159
  H     -8.063249    7.830179   -7.673534

 Multiplicity           Mult            ....    1
 Number of Electrons    NEL             ....   18
 Basis Dimension        Dim             ....  172

ORBITAL ENERGIES
----------------

  NO   OCC          E(Eh)            E(eV)
   0   2.0000     -19.230912      -523.2997
   1   2.0000     -10.317133      -280.7435
   2   2.0000      -1.130772       -30.7699
   3   2.0000      -0.790032       -21.4979
   4   2.0000      -0.605898       -16.4873
   5   2.0000      -0.547518       -14.8987
   6   2.0000      -0.517894       -14.0926
   7   2.0000      -0.436393       -11.8749
   8   2.0000      -0.374780       -10.1983
   9   0.0000       0.085086         2.3153
  10   0.0000       0.117581         3.1995
  11   0.0000       0.152508         4.1500
  12   0.0000       0.183125         4.9831
  13   0.0000       0.191177         5.2022

MULLIKEN ATOMIC CHARGES
-----------------------
   0 C :    0.002398
   1 O :    0.000002
   2 H :   -0.000007
   3 H :   -0.000375
   4 H :   -0.001241
   5 H :   -0.006493
   6 C :   -0.182021
   7 O :   -0.462617
   8 H :    0.317708
   9 H :    0.116244
  10 H :    0.102456
  11 H :    0.113946
Sum of atomic charges:    0.0000000

LOEWDIN ATOMIC CHARGES
----------------------
   0 C :   -0.003632
   1 O :   -0.000029
   2 H :   -0.000007
   3 H :   -0.000065
   4 H :   -0.001338
   5 H :   -0.003945
   6 C :   -0.372037
   7 O :   -0.098074
   8 H :    0.178254
   9 H :    0.088328
  10 H :    0.098988
  11 H :    0.113555

  Mayer bond orders larger than 0.1
B(  6-C ,  7-O ) :   1.0067 B(  6-C ,  9-H ) :   0.9644 B(  6-C , 10-H ) :   0.9912
B(  6-C , 11-H ) :   0.9782 B(  7-O ,  8-H ) :   0.8995

Dispersion correction           -0.000236320
FINAL SINGLE POINT ENERGY      -115.731207177804

DIPOLE MOMENT
-------------
                                X             Y             Z
Electronic contribution:      0.23871       0.50405       1.66734
Nuclear contribution   :      0.19156      -0.43855      -2.28020
                        -----------------------------------------
Total Dipole Moment    :      0.43027       0.06550      -0.61286
                        -----------------------------------------
Magnitude (a.u.)       :      0.75168
Magnitude (Debye)      :      1.91062

Rotational constants in cm-1:     4.088250     0.825612     0.792521
Rotational constants in MHz : 122562.654818 24751.212738 23759.182235

                             ****ORCA TERMINATED NORMALLY****
TOTAL RUN TIME: 0 days 0 hours 1 minutes 2 seconds 419 msec
