                         Program Version 4.1.2  - RELEASE  -
|  1> #Run DFT-D3 single point of the dimer
|  2> ! wB97X-D3 def2-TZVP TIGHTSCF CHELPG PMODEL PAL8
|  3>
|  4> %base "22-4_DFT_AB"
|  5>
|  6> %scf
|  7> MaxIter 1000
|  8> end
|  9>
| 10> * xyz 0 1
| 11>   C                      -3.366488            1.354718             8.299496
| 12>   O                      -2.747762            2.580068             8.513952
| 13>   H                      -2.097212            2.607204             7.804503
| 14>   H                      -3.091532            0.606645             9.087924
| 15>   H                      -4.464560            1.385830             8.357553
| 16>   H                      -3.098089            0.935276             7.304372
| 17>   C                      -0.190552            -1.346349            7.638156
| 18>   O                      -0.224249            -1.612135            6.254584
| 19>   H                      -0.894124            -2.259526            6.100386
| 20>   H                      -0.148998            -2.211394            8.212019
| 21>   H                      0.737630             -0.846319            7.968315
| 22>   H                      -1.056056            -0.711829            7.991936
| 23> *
| 24>
| 25> #Run DFT-D3 single point of the molecule with dimer basis set
| 26> $new_job
| 27> %base "22-4_DFT_A"
| 28> ! wB97X-D3 def2-TZVP TIGHTSCF CHELPG PMODEL
| 29>
| 30> %scf
| 31> MaxIter 1000
| 32> end
| 33>
| 34> * xyz 0 1
| 35>   C                      -3.366488            1.354718             8.299496
| 36>   O                      -2.747762            2.580068             8.513952
| 37>   H                      -2.097212            2.607204             7.804503
| 38>   H                      -3.091532            0.606645             9.087924
| 39>   H                      -4.464560            1.385830             8.357553
| 40>   H                      -3.098089            0.935276             7.304372
| 41>   C                    : -0.190552            -1.346349            7.638156
| 42>   O                    : -0.224249            -1.612135            6.254584
| 43>   H                    : -0.894124            -2.259526            6.100386
| 44>   H                    : -0.148998            -2.211394            8.212019
| 45>   H                    : 0.737630             -0.846319            7.968315
| 46>   H                    : -1.056056            -0.711829            7.991936
| 47> *
| 48>
| 49> #Run DFT-D3 single point of the particle with dimer basis set
| 50> $new_job
| 51> %base "22-4_DFT_B"
| 52> ! wB97X-D3 def2-TZVP TIGHTSCF CHELPG PMODEL
| 53>
| 54> %scf
| 55> MaxIter 1000
| 56> end
| 57>
| 58> * xyz 0 1
| 59>   C                    : -3.366488            1.354718             8.299496
| 60>   O                    : -2.747762            2.580068             8.513952
| 61>   H                    : -2.097212            2.607204             7.804503
| 62>   H                    : -3.091532            0.606645             9.087924
| 63>   H                    : -4.464560            1.385830             8.357553
| 64>   H                    : -3.098089            0.935276             7.304372
| 65>   C                      -0.190552            -1.346349            7.638156
| 66>   O                      -0.224249            -1.612135            6.254584
| 67>   H                      -0.894124            -2.259526            6.100386
| 68>   H                      -0.148998            -2.211394            8.212019
| 69>   H                      0.737630             -0.846319            7.968315
| 70>   H                      -1.056056            -0.711829            7.991936
| 71> *
| 72>
| 73>                          ****END OF INPUT****
 Total Charge           Charge          ....    0
 Multiplicity           Mult            ....    1
 Number of Electrons    NEL             ....   36
Dispersion correction           -0.001344669
FINAL SINGLE POINT ENERGY      -231.465722002846
Dispersion correction           -0.000239875
FINAL SINGLE POINT ENERGY      -115.732529980165

CARTESIAN COORDINATES (ANGSTROEM)
---------------------------------
  C     -3.366488    1.354718    8.299496
  O     -2.747762    2.580068    8.513952
  H     -2.097212    2.607204    7.804503
  H     -3.091532    0.606645    9.087924
  H     -4.464560    1.385830    8.357553
  H     -3.098089    0.935276    7.304372
  C     -0.190552   -1.346349    7.638156
  O     -0.224249   -1.612135    6.254584
  H     -0.894124   -2.259526    6.100386
  H     -0.148998   -2.211394    8.212019
  H      0.737630   -0.846319    7.968315
  H     -1.056056   -0.711829    7.991936

 Multiplicity           Mult            ....    1
 Number of Electrons    NEL             ....   18
 Basis Dimension        Dim             ....  172

ORBITAL ENERGIES
----------------

  NO   OCC          E(Eh)            E(eV)
   0   2.0000     -19.230835      -523.2976
   1   2.0000     -10.311534      -280.5911
   2   2.0000      -1.141664       -31.0663
   3   2.0000      -0.799922       -21.7670
   4   2.0000      -0.616414       -16.7735
   5   2.0000      -0.543419       -14.7872
   6   2.0000      -0.527472       -14.3532
   7   2.0000      -0.430749       -11.7213
   8   2.0000      -0.376721       -10.2511
   9   0.0000       0.085605         2.3294
  10   0.0000       0.122169         3.3244
  11   0.0000       0.154241         4.1971
  12   0.0000       0.165507         4.5037
  13   0.0000       0.191040         5.1985

MULLIKEN ATOMIC CHARGES
-----------------------
   0 C :    0.000890
   1 O :   -0.000095
   2 H :   -0.000179
   3 H :   -0.001583
   4 H :    0.000251
   5 H :    0.001739
   6 C :   -0.168032
   7 O :   -0.470480
   8 H :    0.314113
   9 H :    0.113373
  10 H :    0.116680
  11 H :    0.093322
Sum of atomic charges:   -0.0000000

LOEWDIN ATOMIC CHARGES
----------------------
   0 C :   -0.004594
   1 O :   -0.000008
   2 H :   -0.000101
   3 H :   -0.002327
   4 H :   -0.000028
   5 H :   -0.000993
   6 C :   -0.389987
   7 O :   -0.062647
   8 H :    0.160658
   9 H :    0.083396
  10 H :    0.111944
  11 H :    0.104686

  Mayer bond orders larger than 0.1
B(  6-C ,  7-O ) :   0.9980 B(  6-C ,  9-H ) :   0.9805 B(  6-C , 10-H ) :   0.9723
B(  6-C , 11-H ) :   0.9740 B(  7-O ,  8-H ) :   0.9018

Dispersion correction           -0.000247178
FINAL SINGLE POINT ENERGY      -115.732000605814

DIPOLE MOMENT
-------------
                                X             Y             Z
Electronic contribution:      0.04329      -0.31818      -1.89263
Nuclear contribution   :     -0.42836      -0.03153       2.35278
                        -----------------------------------------
Total Dipole Moment    :     -0.38507      -0.34971       0.46016
                        -----------------------------------------
Magnitude (a.u.)       :      0.69449
Magnitude (Debye)      :      1.76526

Rotational constants in cm-1:     4.460377     0.823763     0.802247
Rotational constants in MHz : 133718.750044 24695.789042 24050.757990

                             ****ORCA TERMINATED NORMALLY****
TOTAL RUN TIME: 0 days 0 hours 0 minutes 59 seconds 371 msec
