                         Program Version 4.1.2  - RELEASE  -
|  1> #Run DFT-D3 single point of the dimer
|  2> ! wB97X-D3 def2-TZVP TIGHTSCF CHELPG PMODEL PAL8
|  3>
|  4> %base "4-71_DFT_AB"
|  5>
|  6> %scf
|  7> MaxIter 1000
|  8> end
|  9>
| 10> * xyz 0 1
| 11>   C                      4.024355             -6.801977            -8.916837
| 12>   O                      2.663368             -6.801153            -9.057764
| 13>   H                      2.302271             -5.971964            -8.723730
| 14>   H                      4.469199             -5.890253            -9.387422
| 15>   H                      4.195968             -6.701892            -7.838637
| 16>   H                      4.536072             -7.759296            -9.102608
| 17>   C                      4.010603             -3.531085            -6.215756
| 18>   O                      4.091302             -4.986165            -6.041362
| 19>   H                      4.959154             -5.245191            -5.658056
| 20>   H                      3.124131             -3.367573            -6.796884
| 21>   H                      3.952099             -2.997035            -5.248406
| 22>   H                      4.785231             -3.048308            -6.736867
| 23> *
| 24>
| 25> #Run DFT-D3 single point of the molecule with dimer basis set
| 26> $new_job
| 27> %base "4-71_DFT_A"
| 28> ! wB97X-D3 def2-TZVP TIGHTSCF CHELPG PMODEL
| 29>
| 30> %scf
| 31> MaxIter 1000
| 32> end
| 33>
| 34> * xyz 0 1
| 35>   C                      4.024355             -6.801977            -8.916837
| 36>   O                      2.663368             -6.801153            -9.057764
| 37>   H                      2.302271             -5.971964            -8.723730
| 38>   H                      4.469199             -5.890253            -9.387422
| 39>   H                      4.195968             -6.701892            -7.838637
| 40>   H                      4.536072             -7.759296            -9.102608
| 41>   C                    : 4.010603             -3.531085            -6.215756
| 42>   O                    : 4.091302             -4.986165            -6.041362
| 43>   H                    : 4.959154             -5.245191            -5.658056
| 44>   H                    : 3.124131             -3.367573            -6.796884
| 45>   H                    : 3.952099             -2.997035            -5.248406
| 46>   H                    : 4.785231             -3.048308            -6.736867
| 47> *
| 48>
| 49> #Run DFT-D3 single point of the particle with dimer basis set
| 50> $new_job
| 51> %base "4-71_DFT_B"
| 52> ! wB97X-D3 def2-TZVP TIGHTSCF CHELPG PMODEL
| 53>
| 54> %scf
| 55> MaxIter 1000
| 56> end
| 57>
| 58> * xyz 0 1
| 59>   C                    : 4.024355             -6.801977            -8.916837
| 60>   O                    : 2.663368             -6.801153            -9.057764
| 61>   H                    : 2.302271             -5.971964            -8.723730
| 62>   H                    : 4.469199             -5.890253            -9.387422
| 63>   H                    : 4.195968             -6.701892            -7.838637
| 64>   H                    : 4.536072             -7.759296            -9.102608
| 65>   C                      4.010603             -3.531085            -6.215756
| 66>   O                      4.091302             -4.986165            -6.041362
| 67>   H                      4.959154             -5.245191            -5.658056
| 68>   H                      3.124131             -3.367573            -6.796884
| 69>   H                      3.952099             -2.997035            -5.248406
| 70>   H                      4.785231             -3.048308            -6.736867
| 71> *
| 72>
| 73>                          ****END OF INPUT****
 Total Charge           Charge          ....    0
 Multiplicity           Mult            ....    1
 Number of Electrons    NEL             ....   36
Dispersion correction           -0.001798902
FINAL SINGLE POINT ENERGY      -231.460806674494
Dispersion correction           -0.000212364
FINAL SINGLE POINT ENERGY      -115.727485575255

CARTESIAN COORDINATES (ANGSTROEM)
---------------------------------
  C      4.024355   -6.801977   -8.916837
  O      2.663368   -6.801153   -9.057764
  H      2.302271   -5.971964   -8.723730
  H      4.469199   -5.890253   -9.387422
  H      4.195968   -6.701892   -7.838637
  H      4.536072   -7.759296   -9.102608
  C      4.010603   -3.531085   -6.215756
  O      4.091302   -4.986165   -6.041362
  H      4.959154   -5.245191   -5.658056
  H      3.124131   -3.367573   -6.796884
  H      3.952099   -2.997035   -5.248406
  H      4.785231   -3.048308   -6.736867

 Multiplicity           Mult            ....    1
 Number of Electrons    NEL             ....   18
 Basis Dimension        Dim             ....  172

ORBITAL ENERGIES
----------------

  NO   OCC          E(Eh)            E(eV)
   0   2.0000     -19.233685      -523.3752
   1   2.0000     -10.312006      -280.6040
   2   2.0000      -1.115027       -30.3414
   3   2.0000      -0.803133       -21.8544
   4   2.0000      -0.605863       -16.4864
   5   2.0000      -0.534468       -14.5436
   6   2.0000      -0.516079       -14.0432
   7   2.0000      -0.439819       -11.9681
   8   2.0000      -0.376439       -10.2434
   9   0.0000       0.094731         2.5777
  10   0.0000       0.127903         3.4804
  11   0.0000       0.145651         3.9634
  12   0.0000       0.169884         4.6228
  13   0.0000       0.201029         5.4703

MULLIKEN ATOMIC CHARGES
-----------------------
   0 C :    0.010503
   1 O :   -0.000588
   2 H :   -0.001588
   3 H :   -0.002067
   4 H :   -0.015856
   5 H :   -0.000237
   6 C :   -0.171520
   7 O :   -0.482260
   8 H :    0.314382
   9 H :    0.129243
  10 H :    0.105795
  11 H :    0.114194
Sum of atomic charges:   -0.0000000

LOEWDIN ATOMIC CHARGES
----------------------
   0 C :   -0.008161
   1 O :   -0.000093
   2 H :   -0.000701
   3 H :   -0.000647
   4 H :   -0.014418
   5 H :   -0.000061
   6 C :   -0.344532
   7 O :   -0.102809
   8 H :    0.176275
   9 H :    0.107948
  10 H :    0.100695
  11 H :    0.086505

  Mayer bond orders larger than 0.1
B(  6-C ,  7-O ) :   0.9906 B(  6-C ,  9-H ) :   0.9787 B(  6-C , 10-H ) :   0.9720
B(  6-C , 11-H ) :   0.9678 B(  7-O ,  8-H ) :   0.8954

Dispersion correction           -0.000283270
FINAL SINGLE POINT ENERGY      -115.731810326722

DIPOLE MOMENT
-------------
                                X             Y             Z
Electronic contribution:      0.03226      -1.79802       0.13374
Nuclear contribution   :      0.48724       2.27821       0.02108
                        -----------------------------------------
Total Dipole Moment    :      0.51950       0.48019       0.15481
                        -----------------------------------------
Magnitude (a.u.)       :      0.72418
Magnitude (Debye)      :      1.84071

Rotational constants in cm-1:     4.452925     0.777125     0.749017
Rotational constants in MHz : 133495.325875 23297.618021 22454.964086

                             ****ORCA TERMINATED NORMALLY****
TOTAL RUN TIME: 0 days 0 hours 1 minutes 32 seconds 919 msec
