                         Program Version 4.1.2  - RELEASE  -
|  1> #Run DFT-D3 single point of the dimer
|  2> ! wB97X-D3 def2-TZVP TIGHTSCF CHELPG PMODEL PAL8
|  3>
|  4> %base "20-25_DFT_AB"
|  5>
|  6> %scf
|  7> MaxIter 1000
|  8> end
|  9>
| 10> * xyz 0 1
| 11>   C                      7.022081             -8.326697            9.853911
| 12>   O                      7.322670             -8.141552            11.271273
| 13>   H                      6.715127             -8.811474            11.650271
| 14>   H                      7.204798             -7.429468            9.312744
| 15>   H                      7.707695             -9.087207            9.380179
| 16>   H                      5.996552             -8.662078            9.599881
| 17>   C                      1.540545             -8.880353            11.045679
| 18>   O                      2.725297             -9.416143            10.365769
| 19>   H                      2.519831             -10.339246           10.122382
| 20>   H                      0.725152             -8.670950            10.329314
| 21>   H                      1.021613             -9.653652            11.738864
| 22>   H                      1.725243             -7.968922            11.603275
| 23> *
| 24>
| 25> #Run DFT-D3 single point of the molecule with dimer basis set
| 26> $new_job
| 27> %base "20-25_DFT_A"
| 28> ! wB97X-D3 def2-TZVP TIGHTSCF CHELPG PMODEL
| 29>
| 30> %scf
| 31> MaxIter 1000
| 32> end
| 33>
| 34> * xyz 0 1
| 35>   C                      7.022081             -8.326697            9.853911
| 36>   O                      7.322670             -8.141552            11.271273
| 37>   H                      6.715127             -8.811474            11.650271
| 38>   H                      7.204798             -7.429468            9.312744
| 39>   H                      7.707695             -9.087207            9.380179
| 40>   H                      5.996552             -8.662078            9.599881
| 41>   C                    : 1.540545             -8.880353            11.045679
| 42>   O                    : 2.725297             -9.416143            10.365769
| 43>   H                    : 2.519831             -10.339246           10.122382
| 44>   H                    : 0.725152             -8.670950            10.329314
| 45>   H                    : 1.021613             -9.653652            11.738864
| 46>   H                    : 1.725243             -7.968922            11.603275
| 47> *
| 48>
| 49> #Run DFT-D3 single point of the particle with dimer basis set
| 50> $new_job
| 51> %base "20-25_DFT_B"
| 52> ! wB97X-D3 def2-TZVP TIGHTSCF CHELPG PMODEL
| 53>
| 54> %scf
| 55> MaxIter 1000
| 56> end
| 57>
| 58> * xyz 0 1
| 59>   C                    : 7.022081             -8.326697            9.853911
| 60>   O                    : 7.322670             -8.141552            11.271273
| 61>   H                    : 6.715127             -8.811474            11.650271
| 62>   H                    : 7.204798             -7.429468            9.312744
| 63>   H                    : 7.707695             -9.087207            9.380179
| 64>   H                    : 5.996552             -8.662078            9.599881
| 65>   C                      1.540545             -8.880353            11.045679
| 66>   O                      2.725297             -9.416143            10.365769
| 67>   H                      2.519831             -10.339246           10.122382
| 68>   H                      0.725152             -8.670950            10.329314
| 69>   H                      1.021613             -9.653652            11.738864
| 70>   H                      1.725243             -7.968922            11.603275
| 71> *
| 72>
| 73>                          ****END OF INPUT****
 Total Charge           Charge          ....    0
 Multiplicity           Mult            ....    1
 Number of Electrons    NEL             ....   36
Dispersion correction           -0.000902665
FINAL SINGLE POINT ENERGY      -231.461846383703
Dispersion correction           -0.000267013
FINAL SINGLE POINT ENERGY      -115.730384676918

CARTESIAN COORDINATES (ANGSTROEM)
---------------------------------
  C      7.022081   -8.326697    9.853911
  O      7.322670   -8.141552   11.271273
  H      6.715127   -8.811474   11.650271
  H      7.204798   -7.429468    9.312744
  H      7.707695   -9.087207    9.380179
  H      5.996552   -8.662078    9.599881
  C      1.540545   -8.880353   11.045679
  O      2.725297   -9.416143   10.365769
  H      2.519831  -10.339246   10.122382
  H      0.725152   -8.670950   10.329314
  H      1.021613   -9.653652   11.738864
  H      1.725243   -7.968922   11.603275

 Multiplicity           Mult            ....    1
 Number of Electrons    NEL             ....   18
 Basis Dimension        Dim             ....  172

ORBITAL ENERGIES
----------------

  NO   OCC          E(Eh)            E(eV)
   0   2.0000     -19.236022      -523.4388
   1   2.0000     -10.326233      -280.9911
   2   2.0000      -1.120119       -30.4800
   3   2.0000      -0.793383       -21.5891
   4   2.0000      -0.600997       -16.3539
   5   2.0000      -0.529628       -14.4119
   6   2.0000      -0.520247       -14.1566
   7   2.0000      -0.440824       -11.9954
   8   2.0000      -0.373676       -10.1683
   9   0.0000       0.096659         2.6302
  10   0.0000       0.113752         3.0953
  11   0.0000       0.144673         3.9368
  12   0.0000       0.176018         4.7897
  13   0.0000       0.192866         5.2482

MULLIKEN ATOMIC CHARGES
-----------------------
   0 C :    0.001560
   1 O :    0.000036
   2 H :   -0.000450
   3 H :   -0.000046
   4 H :   -0.000072
   5 H :   -0.003992
   6 C :   -0.191314
   7 O :   -0.472870
   8 H :    0.317647
   9 H :    0.110992
  10 H :    0.104809
  11 H :    0.133700
Sum of atomic charges:    0.0000000

LOEWDIN ATOMIC CHARGES
----------------------
   0 C :   -0.000408
   1 O :   -0.000011
   2 H :   -0.000211
   3 H :   -0.000002
   4 H :   -0.000002
   5 H :   -0.001734
   6 C :   -0.362666
   7 O :   -0.119424
   8 H :    0.176540
   9 H :    0.096581
  10 H :    0.106190
  11 H :    0.105147

  Mayer bond orders larger than 0.1
B(  6-C ,  7-O ) :   0.9948 B(  6-C ,  9-H ) :   0.9700 B(  6-C , 10-H ) :   0.9728
B(  6-C , 11-H ) :   0.9710 B(  7-O ,  8-H ) :   0.8957

Dispersion correction           -0.000284403
FINAL SINGLE POINT ENERGY      -115.729782143353

DIPOLE MOMENT
-------------
                                X             Y             Z
Electronic contribution:      1.71701      -0.43276      -0.82551
Nuclear contribution   :     -2.35081       0.08905       0.95022
                        -----------------------------------------
Total Dipole Moment    :     -0.63380      -0.34371       0.12471
                        -----------------------------------------
Magnitude (a.u.)       :      0.73170
Magnitude (Debye)      :      1.85984

Rotational constants in cm-1:     4.200112     0.774130     0.739955
Rotational constants in MHz : 125916.185332 23207.840755 22183.291431

                             ****ORCA TERMINATED NORMALLY****
TOTAL RUN TIME: 0 days 0 hours 0 minutes 59 seconds 253 msec
