                         Program Version 4.1.2  - RELEASE  -
|  1> #Run DFT-D3 single point of the dimer
|  2> ! wB97X-D3 def2-TZVP TIGHTSCF CHELPG PMODEL PAL8
|  3>
|  4> %base "12-36_DFT_AB"
|  5>
|  6> %scf
|  7> MaxIter 1000
|  8> end
|  9>
| 10> * xyz 0 1
| 11>   C                      -8.068520            9.350120             1.189583
| 12>   O                      -8.752625            10.376869            1.873308
| 13>   H                      -8.135761            11.181691            1.909176
| 14>   H                      -6.977706            9.408543             1.361703
| 15>   H                      -8.315950            8.386054             1.585649
| 16>   H                      -8.351789            9.399995             0.160666
| 17>   C                      -10.593003           9.092834             -3.138689
| 18>   O                      -11.339661           8.741138             -4.293299
| 19>   H                      -12.187817           8.393444             -3.976467
| 20>   H                      -9.651535            9.560466             -3.405016
| 21>   H                      -11.188469           9.892501             -2.638534
| 22>   H                      -10.513389           8.300127             -2.468030
| 23> *
| 24>
| 25> #Run DFT-D3 single point of the molecule with dimer basis set
| 26> $new_job
| 27> %base "12-36_DFT_A"
| 28> ! wB97X-D3 def2-TZVP TIGHTSCF CHELPG PMODEL
| 29>
| 30> %scf
| 31> MaxIter 1000
| 32> end
| 33>
| 34> * xyz 0 1
| 35>   C                      -8.068520            9.350120             1.189583
| 36>   O                      -8.752625            10.376869            1.873308
| 37>   H                      -8.135761            11.181691            1.909176
| 38>   H                      -6.977706            9.408543             1.361703
| 39>   H                      -8.315950            8.386054             1.585649
| 40>   H                      -8.351789            9.399995             0.160666
| 41>   C                    : -10.593003           9.092834             -3.138689
| 42>   O                    : -11.339661           8.741138             -4.293299
| 43>   H                    : -12.187817           8.393444             -3.976467
| 44>   H                    : -9.651535            9.560466             -3.405016
| 45>   H                    : -11.188469           9.892501             -2.638534
| 46>   H                    : -10.513389           8.300127             -2.468030
| 47> *
| 48>
| 49> #Run DFT-D3 single point of the particle with dimer basis set
| 50> $new_job
| 51> %base "12-36_DFT_B"
| 52> ! wB97X-D3 def2-TZVP TIGHTSCF CHELPG PMODEL
| 53>
| 54> %scf
| 55> MaxIter 1000
| 56> end
| 57>
| 58> * xyz 0 1
| 59>   C                    : -8.068520            9.350120             1.189583
| 60>   O                    : -8.752625            10.376869            1.873308
| 61>   H                    : -8.135761            11.181691            1.909176
| 62>   H                    : -6.977706            9.408543             1.361703
| 63>   H                    : -8.315950            8.386054             1.585649
| 64>   H                    : -8.351789            9.399995             0.160666
| 65>   C                      -10.593003           9.092834             -3.138689
| 66>   O                      -11.339661           8.741138             -4.293299
| 67>   H                      -12.187817           8.393444             -3.976467
| 68>   H                      -9.651535            9.560466             -3.405016
| 69>   H                      -11.188469           9.892501             -2.638534
| 70>   H                      -10.513389           8.300127             -2.468030
| 71> *
| 72>
| 73>                          ****END OF INPUT****
 Total Charge           Charge          ....    0
 Multiplicity           Mult            ....    1
 Number of Electrons    NEL             ....   36
Dispersion correction           -0.000764371
FINAL SINGLE POINT ENERGY      -231.463694937568
Dispersion correction           -0.000235555
FINAL SINGLE POINT ENERGY      -115.731083613829

CARTESIAN COORDINATES (ANGSTROEM)
---------------------------------
  C     -8.068520    9.350120    1.189583
  O     -8.752625   10.376869    1.873308
  H     -8.135761   11.181691    1.909176
  H     -6.977706    9.408543    1.361703
  H     -8.315950    8.386054    1.585649
  H     -8.351789    9.399995    0.160666
  C    -10.593003    9.092834   -3.138689
  O    -11.339661    8.741138   -4.293299
  H    -12.187817    8.393444   -3.976467
  H     -9.651535    9.560466   -3.405016
  H    -11.188469    9.892501   -2.638534
  H    -10.513389    8.300127   -2.468030

 Multiplicity           Mult            ....    1
 Number of Electrons    NEL             ....   18
 Basis Dimension        Dim             ....  172

ORBITAL ENERGIES
----------------

  NO   OCC          E(Eh)            E(eV)
   0   2.0000     -19.227730      -523.2131
   1   2.0000     -10.309236      -280.5286
   2   2.0000      -1.132360       -30.8131
   3   2.0000      -0.796348       -21.6697
   4   2.0000      -0.609650       -16.5894
   5   2.0000      -0.544762       -14.8237
   6   2.0000      -0.528677       -14.3860
   7   2.0000      -0.436260       -11.8712
   8   2.0000      -0.369085       -10.0433
   9   0.0000       0.083254         2.2655
  10   0.0000       0.113581         3.0907
  11   0.0000       0.142784         3.8854
  12   0.0000       0.165823         4.5123
  13   0.0000       0.190764         5.1909

MULLIKEN ATOMIC CHARGES
-----------------------
   0 C :   -0.000048
   1 O :    0.000001
   2 H :    0.000001
   3 H :   -0.000002
   4 H :   -0.000008
   5 H :    0.000087
   6 C :   -0.162621
   7 O :   -0.479656
   8 H :    0.314788
   9 H :    0.121273
  10 H :    0.097152
  11 H :    0.109033
Sum of atomic charges:    0.0000000

LOEWDIN ATOMIC CHARGES
----------------------
   0 C :   -0.000076
   1 O :   -0.000004
   2 H :   -0.000000
   3 H :   -0.000001
   4 H :   -0.000003
   5 H :   -0.000172
   6 C :   -0.374075
   7 O :   -0.090222
   8 H :    0.174266
   9 H :    0.107785
  10 H :    0.100164
  11 H :    0.082338

  Mayer bond orders larger than 0.1
B(  6-C ,  7-O ) :   0.9928 B(  6-C ,  9-H ) :   0.9712 B(  6-C , 10-H ) :   0.9887
B(  6-C , 11-H ) :   0.9741 B(  7-O ,  8-H ) :   0.8981

Dispersion correction           -0.000214713
FINAL SINGLE POINT ENERGY      -115.732160702988

DIPOLE MOMENT
-------------
                                X             Y             Z
Electronic contribution:     -0.65794      -0.54882      -1.54192
Nuclear contribution   :      0.43520       0.47214       2.20961
                        -----------------------------------------
Total Dipole Moment    :     -0.22274      -0.07668       0.66769
                        -----------------------------------------
Magnitude (a.u.)       :      0.70803
Magnitude (Debye)      :      1.79966

Rotational constants in cm-1:     4.296208     0.838154     0.803631
Rotational constants in MHz : 128797.068140 25127.225531 24092.262017

                             ****ORCA TERMINATED NORMALLY****
TOTAL RUN TIME: 0 days 0 hours 1 minutes 6 seconds 258 msec
