                         Program Version 4.1.2  - RELEASE  -
|  1> #Run DFT-D3 single point of the dimer
|  2> ! wB97X-D3 def2-TZVP TIGHTSCF CHELPG PMODEL PAL8
|  3>
|  4> %base "22-156_DFT_AB"
|  5>
|  6> %scf
|  7> MaxIter 1000
|  8> end
|  9>
| 10> * xyz 0 1
| 11>   C                      2.661504             9.495271             -3.016311
| 12>   O                      2.448546             10.402482            -1.978339
| 13>   H                      3.202107             10.311662            -1.412499
| 14>   H                      1.780161             9.520745             -3.748241
| 15>   H                      3.569581             9.719727             -3.528841
| 16>   H                      2.722283             8.392538             -2.647649
| 17>   C                      1.095944             8.166273             0.776603
| 18>   O                      0.517582             8.047650             -0.461068
| 19>   H                      0.706959             8.852177             -0.975110
| 20>   H                      0.550971             9.003790             1.328476
| 21>   H                      1.245504             7.247085             1.380575
| 22>   H                      2.087410             8.582038             0.714807
| 23> *
| 24>
| 25> #Run DFT-D3 single point of the molecule with dimer basis set
| 26> $new_job
| 27> %base "22-156_DFT_A"
| 28> ! wB97X-D3 def2-TZVP TIGHTSCF CHELPG PMODEL
| 29>
| 30> %scf
| 31> MaxIter 1000
| 32> end
| 33>
| 34> * xyz 0 1
| 35>   C                      2.661504             9.495271             -3.016311
| 36>   O                      2.448546             10.402482            -1.978339
| 37>   H                      3.202107             10.311662            -1.412499
| 38>   H                      1.780161             9.520745             -3.748241
| 39>   H                      3.569581             9.719727             -3.528841
| 40>   H                      2.722283             8.392538             -2.647649
| 41>   C                    : 1.095944             8.166273             0.776603
| 42>   O                    : 0.517582             8.047650             -0.461068
| 43>   H                    : 0.706959             8.852177             -0.975110
| 44>   H                    : 0.550971             9.003790             1.328476
| 45>   H                    : 1.245504             7.247085             1.380575
| 46>   H                    : 2.087410             8.582038             0.714807
| 47> *
| 48>
| 49> #Run DFT-D3 single point of the particle with dimer basis set
| 50> $new_job
| 51> %base "22-156_DFT_B"
| 52> ! wB97X-D3 def2-TZVP TIGHTSCF CHELPG PMODEL
| 53>
| 54> %scf
| 55> MaxIter 1000
| 56> end
| 57>
| 58> * xyz 0 1
| 59>   C                    : 2.661504             9.495271             -3.016311
| 60>   O                    : 2.448546             10.402482            -1.978339
| 61>   H                    : 3.202107             10.311662            -1.412499
| 62>   H                    : 1.780161             9.520745             -3.748241
| 63>   H                    : 3.569581             9.719727             -3.528841
| 64>   H                    : 2.722283             8.392538             -2.647649
| 65>   C                      1.095944             8.166273             0.776603
| 66>   O                      0.517582             8.047650             -0.461068
| 67>   H                      0.706959             8.852177             -0.975110
| 68>   H                      0.550971             9.003790             1.328476
| 69>   H                      1.245504             7.247085             1.380575
| 70>   H                      2.087410             8.582038             0.714807
| 71> *
| 72>
| 73>                          ****END OF INPUT****
 Total Charge           Charge          ....    0
 Multiplicity           Mult            ....    1
 Number of Electrons    NEL             ....   36
Dispersion correction           -0.002009552
FINAL SINGLE POINT ENERGY      -231.466228281074
Dispersion correction           -0.000235522
FINAL SINGLE POINT ENERGY      -115.732364691811

CARTESIAN COORDINATES (ANGSTROEM)
---------------------------------
  C      2.661504    9.495271   -3.016311
  O      2.448546   10.402482   -1.978339
  H      3.202107   10.311662   -1.412499
  H      1.780161    9.520745   -3.748241
  H      3.569581    9.719727   -3.528841
  H      2.722283    8.392538   -2.647649
  C      1.095944    8.166273    0.776603
  O      0.517582    8.047650   -0.461068
  H      0.706959    8.852177   -0.975110
  H      0.550971    9.003790    1.328476
  H      1.245504    7.247085    1.380575
  H      2.087410    8.582038    0.714807

 Multiplicity           Mult            ....    1
 Number of Electrons    NEL             ....   18
 Basis Dimension        Dim             ....  172

ORBITAL ENERGIES
----------------

  NO   OCC          E(Eh)            E(eV)
   0   2.0000     -19.233192      -523.3618
   1   2.0000     -10.315049      -280.6868
   2   2.0000      -1.149272       -31.2733
   3   2.0000      -0.790906       -21.5216
   4   2.0000      -0.622334       -16.9346
   5   2.0000      -0.547459       -14.8971
   6   2.0000      -0.528515       -14.3816
   7   2.0000      -0.429946       -11.6994
   8   2.0000      -0.365981        -9.9589
   9   0.0000       0.070392         1.9155
  10   0.0000       0.132297         3.6000
  11   0.0000       0.147853         4.0233
  12   0.0000       0.166480         4.5302
  13   0.0000       0.187733         5.1085

MULLIKEN ATOMIC CHARGES
-----------------------
   0 C :   -0.003811
   1 O :   -0.000592
   2 H :    0.000035
   3 H :    0.000509
   4 H :   -0.000398
   5 H :   -0.003372
   6 C :   -0.176231
   7 O :   -0.461071
   8 H :    0.323854
   9 H :    0.093570
  10 H :    0.126058
  11 H :    0.101448
Sum of atomic charges:   -0.0000000

LOEWDIN ATOMIC CHARGES
----------------------
   0 C :   -0.005941
   1 O :   -0.003199
   2 H :   -0.000928
   3 H :   -0.000232
   4 H :   -0.000108
   5 H :   -0.003139
   6 C :   -0.428215
   7 O :   -0.044656
   8 H :    0.184815
   9 H :    0.100868
  10 H :    0.112448
  11 H :    0.088286

  Mayer bond orders larger than 0.1
B(  6-C ,  7-O ) :   0.9984 B(  6-C ,  9-H ) :   0.9884 B(  6-C , 10-H ) :   0.9654
B(  6-C , 11-H ) :   0.9753 B(  7-O ,  8-H ) :   0.8915

Dispersion correction           -0.000223215
FINAL SINGLE POINT ENERGY      -115.728008806011

DIPOLE MOMENT
-------------
                                X             Y             Z
Electronic contribution:     -0.87371      -0.51586      -1.65148
Nuclear contribution   :      1.24916       1.05744       1.77090
                        -----------------------------------------
Total Dipole Moment    :      0.37546       0.54158       0.11941
                        -----------------------------------------
Magnitude (a.u.)       :      0.66973
Magnitude (Debye)      :      1.70231

Rotational constants in cm-1:     4.282473     0.866295     0.827653
Rotational constants in MHz : 128385.302173 25970.884971 24812.398838

                             ****ORCA TERMINATED NORMALLY****
TOTAL RUN TIME: 0 days 0 hours 1 minutes 8 seconds 812 msec
