                         Program Version 4.1.2  - RELEASE  -
|  1> #Run DFT-D3 single point of the dimer
|  2> ! wB97X-D3 def2-TZVP TIGHTSCF CHELPG PMODEL PAL8
|  3>
|  4> %base "20-14_DFT_AB"
|  5>
|  6> %scf
|  7> MaxIter 1000
|  8> end
|  9>
| 10> * xyz 0 1
| 11>   C                      -3.541612            8.218738             -6.097579
| 12>   O                      -2.500026            7.841059             -5.165467
| 13>   H                      -2.808424            8.091062             -4.276652
| 14>   H                      -4.504519            8.175344             -5.636522
| 15>   H                      -3.270904            9.255707             -6.480989
| 16>   H                      -3.586497            7.616042             -6.948879
| 17>   C                      -4.905139            5.262568             -10.301868
| 18>   O                      -4.333922            5.021783             -9.019390
| 19>   H                      -4.942635            5.445550             -8.437080
| 20>   H                      -4.087589            5.285542             -11.069867
| 21>   H                      -5.760049            4.649201             -10.628340
| 22>   H                      -5.338715            6.228068             -10.267397
| 23> *
| 24>
| 25> #Run DFT-D3 single point of the molecule with dimer basis set
| 26> $new_job
| 27> %base "20-14_DFT_A"
| 28> ! wB97X-D3 def2-TZVP TIGHTSCF CHELPG PMODEL
| 29>
| 30> %scf
| 31> MaxIter 1000
| 32> end
| 33>
| 34> * xyz 0 1
| 35>   C                      -3.541612            8.218738             -6.097579
| 36>   O                      -2.500026            7.841059             -5.165467
| 37>   H                      -2.808424            8.091062             -4.276652
| 38>   H                      -4.504519            8.175344             -5.636522
| 39>   H                      -3.270904            9.255707             -6.480989
| 40>   H                      -3.586497            7.616042             -6.948879
| 41>   C                    : -4.905139            5.262568             -10.301868
| 42>   O                    : -4.333922            5.021783             -9.019390
| 43>   H                    : -4.942635            5.445550             -8.437080
| 44>   H                    : -4.087589            5.285542             -11.069867
| 45>   H                    : -5.760049            4.649201             -10.628340
| 46>   H                    : -5.338715            6.228068             -10.267397
| 47> *
| 48>
| 49> #Run DFT-D3 single point of the particle with dimer basis set
| 50> $new_job
| 51> %base "20-14_DFT_B"
| 52> ! wB97X-D3 def2-TZVP TIGHTSCF CHELPG PMODEL
| 53>
| 54> %scf
| 55> MaxIter 1000
| 56> end
| 57>
| 58> * xyz 0 1
| 59>   C                    : -3.541612            8.218738             -6.097579
| 60>   O                    : -2.500026            7.841059             -5.165467
| 61>   H                    : -2.808424            8.091062             -4.276652
| 62>   H                    : -4.504519            8.175344             -5.636522
| 63>   H                    : -3.270904            9.255707             -6.480989
| 64>   H                    : -3.586497            7.616042             -6.948879
| 65>   C                      -4.905139            5.262568             -10.301868
| 66>   O                      -4.333922            5.021783             -9.019390
| 67>   H                      -4.942635            5.445550             -8.437080
| 68>   H                      -4.087589            5.285542             -11.069867
| 69>   H                      -5.760049            4.649201             -10.628340
| 70>   H                      -5.338715            6.228068             -10.267397
| 71> *
| 72>
| 73>                          ****END OF INPUT****
 Total Charge           Charge          ....    0
 Multiplicity           Mult            ....    1
 Number of Electrons    NEL             ....   36
Dispersion correction           -0.000967127
FINAL SINGLE POINT ENERGY      -231.460931972673
Dispersion correction           -0.000249729
FINAL SINGLE POINT ENERGY      -115.730626037374

CARTESIAN COORDINATES (ANGSTROEM)
---------------------------------
  C     -3.541612    8.218738   -6.097579
  O     -2.500026    7.841059   -5.165467
  H     -2.808424    8.091062   -4.276652
  H     -4.504519    8.175344   -5.636522
  H     -3.270904    9.255707   -6.480989
  H     -3.586497    7.616042   -6.948879
  C     -4.905139    5.262568  -10.301868
  O     -4.333922    5.021783   -9.019390
  H     -4.942635    5.445550   -8.437080
  H     -4.087589    5.285542  -11.069867
  H     -5.760049    4.649201  -10.628340
  H     -5.338715    6.228068  -10.267397

 Multiplicity           Mult            ....    1
 Number of Electrons    NEL             ....   18
 Basis Dimension        Dim             ....  172

ORBITAL ENERGIES
----------------

  NO   OCC          E(Eh)            E(eV)
   0   2.0000     -19.232518      -523.3434
   1   2.0000     -10.314719      -280.6778
   2   2.0000      -1.142043       -31.0766
   3   2.0000      -0.796089       -21.6627
   4   2.0000      -0.617597       -16.8057
   5   2.0000      -0.537406       -14.6236
   6   2.0000      -0.524611       -14.2754
   7   2.0000      -0.442410       -12.0386
   8   2.0000      -0.375973       -10.2307
   9   0.0000       0.083498         2.2721
  10   0.0000       0.117219         3.1897
  11   0.0000       0.151411         4.1201
  12   0.0000       0.173843         4.7305
  13   0.0000       0.192287         5.2324

MULLIKEN ATOMIC CHARGES
-----------------------
   0 C :    0.004273
   1 O :   -0.000055
   2 H :    0.000000
   3 H :   -0.000097
   4 H :   -0.000176
   5 H :   -0.009059
   6 C :   -0.176817
   7 O :   -0.457056
   8 H :    0.312064
   9 H :    0.117991
  10 H :    0.103147
  11 H :    0.105784
Sum of atomic charges:    0.0000000

LOEWDIN ATOMIC CHARGES
----------------------
   0 C :   -0.000512
   1 O :   -0.000014
   2 H :   -0.000001
   3 H :   -0.000016
   4 H :   -0.000003
   5 H :   -0.002647
   6 C :   -0.382256
   7 O :   -0.071958
   8 H :    0.159361
   9 H :    0.113393
  10 H :    0.095753
  11 H :    0.088899

  Mayer bond orders larger than 0.1
B(  6-C ,  7-O ) :   1.0056 B(  6-C ,  9-H ) :   0.9764 B(  6-C , 10-H ) :   0.9626
B(  6-C , 11-H ) :   0.9906 B(  7-O ,  8-H ) :   0.9056

Dispersion correction           -0.000237191
FINAL SINGLE POINT ENERGY      -115.730441547296

DIPOLE MOMENT
-------------
                                X             Y             Z
Electronic contribution:      0.86253      -0.50762       1.59655
Nuclear contribution   :     -1.48284       0.90684      -1.73393
                        -----------------------------------------
Total Dipole Moment    :     -0.62032       0.39922      -0.13738
                        -----------------------------------------
Magnitude (a.u.)       :      0.75036
Magnitude (Debye)      :      1.90726

Rotational constants in cm-1:     4.333990     0.828496     0.791592
Rotational constants in MHz : 129929.750671 24837.677286 23731.325268

                             ****ORCA TERMINATED NORMALLY****
TOTAL RUN TIME: 0 days 0 hours 0 minutes 52 seconds 717 msec
