                         Program Version 4.1.2  - RELEASE  -
|  1> #Run DFT-D3 single point of the dimer
|  2> ! wB97X-D3 def2-TZVP TIGHTSCF CHELPG PMODEL PAL8
|  3>
|  4> %base "5-40_DFT_AB"
|  5>
|  6> %scf
|  7> MaxIter 1000
|  8> end
|  9>
| 10> * xyz 0 1
| 11>   C                      -2.327879            -1.689422            -8.778547
| 12>   O                      -1.414397            -2.216028            -7.842568
| 13>   H                      -1.431879            -3.135477            -8.159358
| 14>   H                      -1.907718            -1.481460            -9.705796
| 15>   H                      -3.138934            -2.311804            -8.966968
| 16>   H                      -2.843604            -0.810400            -8.339234
| 17>   C                      -0.745910            -4.978390            -10.184007
| 18>   O                      -0.486956            -4.877424            -8.819097
| 19>   H                      -0.942398            -5.613371            -8.446573
| 20>   H                      -0.400305            -5.989052            -10.614495
| 21>   H                      -1.838380            -4.986133            -10.404108
| 22>   H                      -0.206231            -4.276731            -10.733806
| 23> *
| 24>
| 25> #Run DFT-D3 single point of the molecule with dimer basis set
| 26> $new_job
| 27> %base "5-40_DFT_A"
| 28> ! wB97X-D3 def2-TZVP TIGHTSCF CHELPG PMODEL
| 29>
| 30> %scf
| 31> MaxIter 1000
| 32> end
| 33>
| 34> * xyz 0 1
| 35>   C                      -2.327879            -1.689422            -8.778547
| 36>   O                      -1.414397            -2.216028            -7.842568
| 37>   H                      -1.431879            -3.135477            -8.159358
| 38>   H                      -1.907718            -1.481460            -9.705796
| 39>   H                      -3.138934            -2.311804            -8.966968
| 40>   H                      -2.843604            -0.810400            -8.339234
| 41>   C                    : -0.745910            -4.978390            -10.184007
| 42>   O                    : -0.486956            -4.877424            -8.819097
| 43>   H                    : -0.942398            -5.613371            -8.446573
| 44>   H                    : -0.400305            -5.989052            -10.614495
| 45>   H                    : -1.838380            -4.986133            -10.404108
| 46>   H                    : -0.206231            -4.276731            -10.733806
| 47> *
| 48>
| 49> #Run DFT-D3 single point of the particle with dimer basis set
| 50> $new_job
| 51> %base "5-40_DFT_B"
| 52> ! wB97X-D3 def2-TZVP TIGHTSCF CHELPG PMODEL
| 53>
| 54> %scf
| 55> MaxIter 1000
| 56> end
| 57>
| 58> * xyz 0 1
| 59>   C                    : -2.327879            -1.689422            -8.778547
| 60>   O                    : -1.414397            -2.216028            -7.842568
| 61>   H                    : -1.431879            -3.135477            -8.159358
| 62>   H                    : -1.907718            -1.481460            -9.705796
| 63>   H                    : -3.138934            -2.311804            -8.966968
| 64>   H                    : -2.843604            -0.810400            -8.339234
| 65>   C                      -0.745910            -4.978390            -10.184007
| 66>   O                      -0.486956            -4.877424            -8.819097
| 67>   H                      -0.942398            -5.613371            -8.446573
| 68>   H                      -0.400305            -5.989052            -10.614495
| 69>   H                      -1.838380            -4.986133            -10.404108
| 70>   H                      -0.206231            -4.276731            -10.733806
| 71> *
| 72>
| 73>                          ****END OF INPUT****
 Total Charge           Charge          ....    0
 Multiplicity           Mult            ....    1
 Number of Electrons    NEL             ....   36
Dispersion correction           -0.001945192
FINAL SINGLE POINT ENERGY      -231.464034885219
Dispersion correction           -0.000207047
FINAL SINGLE POINT ENERGY      -115.726913349467

CARTESIAN COORDINATES (ANGSTROEM)
---------------------------------
  C     -2.327879   -1.689422   -8.778547
  O     -1.414397   -2.216028   -7.842568
  H     -1.431879   -3.135477   -8.159358
  H     -1.907718   -1.481460   -9.705796
  H     -3.138934   -2.311804   -8.966968
  H     -2.843604   -0.810400   -8.339234
  C     -0.745910   -4.978390  -10.184007
  O     -0.486956   -4.877424   -8.819097
  H     -0.942398   -5.613371   -8.446573
  H     -0.400305   -5.989052  -10.614495
  H     -1.838380   -4.986133  -10.404108
  H     -0.206231   -4.276731  -10.733806

 Multiplicity           Mult            ....    1
 Number of Electrons    NEL             ....   18
 Basis Dimension        Dim             ....  172

ORBITAL ENERGIES
----------------

  NO   OCC          E(Eh)            E(eV)
   0   2.0000     -19.233470      -523.3693
   1   2.0000     -10.315434      -280.6972
   2   2.0000      -1.151774       -31.3414
   3   2.0000      -0.795382       -21.6434
   4   2.0000      -0.618753       -16.8371
   5   2.0000      -0.545922       -14.8553
   6   2.0000      -0.528273       -14.3751
   7   2.0000      -0.443610       -12.0712
   8   2.0000      -0.370581       -10.0840
   9   0.0000       0.092328         2.5124
  10   0.0000       0.125390         3.4120
  11   0.0000       0.153357         4.1731
  12   0.0000       0.184143         5.0108
  13   0.0000       0.193239         5.2583

MULLIKEN ATOMIC CHARGES
-----------------------
   0 C :    0.004269
   1 O :    0.001412
   2 H :   -0.016213
   3 H :   -0.000726
   4 H :   -0.000997
   5 H :   -0.000021
   6 C :   -0.172401
   7 O :   -0.451072
   8 H :    0.315450
   9 H :    0.090628
  10 H :    0.103956
  11 H :    0.125715
Sum of atomic charges:    0.0000000

LOEWDIN ATOMIC CHARGES
----------------------
   0 C :   -0.001954
   1 O :   -0.004446
   2 H :   -0.033460
   3 H :   -0.000215
   4 H :   -0.000282
   5 H :   -0.000019
   6 C :   -0.401764
   7 O :   -0.018240
   8 H :    0.164075
   9 H :    0.101963
  10 H :    0.098528
  11 H :    0.095814

  Mayer bond orders larger than 0.1
B(  6-C ,  7-O ) :   0.9863 B(  6-C ,  9-H ) :   0.9710 B(  6-C , 10-H ) :   0.9780
B(  6-C , 11-H ) :   0.9769 B(  7-O ,  8-H ) :   0.9015

Dispersion correction           -0.000223568
FINAL SINGLE POINT ENERGY      -115.731561791000

DIPOLE MOMENT
-------------
                                X             Y             Z
Electronic contribution:      0.44937       0.47713       1.82851
Nuclear contribution   :     -0.81418      -0.96853      -2.10724
                        -----------------------------------------
Total Dipole Moment    :     -0.36481      -0.49140      -0.27873
                        -----------------------------------------
Magnitude (a.u.)       :      0.67249
Magnitude (Debye)      :      1.70935

Rotational constants in cm-1:     4.270768     0.853041     0.819911
Rotational constants in MHz : 128034.406071 25573.517609 24580.312741

                             ****ORCA TERMINATED NORMALLY****
TOTAL RUN TIME: 0 days 0 hours 0 minutes 59 seconds 175 msec
