                         Program Version 4.1.2  - RELEASE  -
|  1> #Run DFT-D3 single point of the dimer
|  2> ! wB97X-D3 def2-TZVP TIGHTSCF CHELPG PMODEL PAL8
|  3>
|  4> %base "15-33_DFT_AB"
|  5>
|  6> %scf
|  7> MaxIter 1000
|  8> end
|  9>
| 10> * xyz 0 1
| 11>   C                      -6.215711            8.702306             -1.753921
| 12>   O                      -6.204522            7.278721             -1.947713
| 13>   H                      -7.104918            7.064609             -2.073756
| 14>   H                      -5.527617            9.106006             -0.946702
| 15>   H                      -5.940116            9.260479             -2.642426
| 16>   H                      -7.167443            9.114555             -1.494518
| 17>   C                      -6.575508            11.139790            -5.753849
| 18>   O                      -5.235632            11.502627            -5.925440
| 19>   H                      -4.668059            11.114250            -5.220568
| 20>   H                      -7.180906            12.044242            -5.578026
| 21>   H                      -6.971407            10.543566            -6.595920
| 22>   H                      -6.679509            10.539642            -4.838182
| 23> *
| 24>
| 25> #Run DFT-D3 single point of the molecule with dimer basis set
| 26> $new_job
| 27> %base "15-33_DFT_A"
| 28> ! wB97X-D3 def2-TZVP TIGHTSCF CHELPG PMODEL
| 29>
| 30> %scf
| 31> MaxIter 1000
| 32> end
| 33>
| 34> * xyz 0 1
| 35>   C                      -6.215711            8.702306             -1.753921
| 36>   O                      -6.204522            7.278721             -1.947713
| 37>   H                      -7.104918            7.064609             -2.073756
| 38>   H                      -5.527617            9.106006             -0.946702
| 39>   H                      -5.940116            9.260479             -2.642426
| 40>   H                      -7.167443            9.114555             -1.494518
| 41>   C                    : -6.575508            11.139790            -5.753849
| 42>   O                    : -5.235632            11.502627            -5.925440
| 43>   H                    : -4.668059            11.114250            -5.220568
| 44>   H                    : -7.180906            12.044242            -5.578026
| 45>   H                    : -6.971407            10.543566            -6.595920
| 46>   H                    : -6.679509            10.539642            -4.838182
| 47> *
| 48>
| 49> #Run DFT-D3 single point of the particle with dimer basis set
| 50> $new_job
| 51> %base "15-33_DFT_B"
| 52> ! wB97X-D3 def2-TZVP TIGHTSCF CHELPG PMODEL
| 53>
| 54> %scf
| 55> MaxIter 1000
| 56> end
| 57>
| 58> * xyz 0 1
| 59>   C                    : -6.215711            8.702306             -1.753921
| 60>   O                    : -6.204522            7.278721             -1.947713
| 61>   H                    : -7.104918            7.064609             -2.073756
| 62>   H                    : -5.527617            9.106006             -0.946702
| 63>   H                    : -5.940116            9.260479             -2.642426
| 64>   H                    : -7.167443            9.114555             -1.494518
| 65>   C                      -6.575508            11.139790            -5.753849
| 66>   O                      -5.235632            11.502627            -5.925440
| 67>   H                      -4.668059            11.114250            -5.220568
| 68>   H                      -7.180906            12.044242            -5.578026
| 69>   H                      -6.971407            10.543566            -6.595920
| 70>   H                      -6.679509            10.539642            -4.838182
| 71> *
| 72>
| 73>                          ****END OF INPUT****
 Total Charge           Charge          ....    0
 Multiplicity           Mult            ....    1
 Number of Electrons    NEL             ....   36
Dispersion correction           -0.001101302
FINAL SINGLE POINT ENERGY      -231.464072828475
Dispersion correction           -0.000266581
FINAL SINGLE POINT ENERGY      -115.729901290893

CARTESIAN COORDINATES (ANGSTROEM)
---------------------------------
  C     -6.215711    8.702306   -1.753921
  O     -6.204522    7.278721   -1.947713
  H     -7.104918    7.064609   -2.073756
  H     -5.527617    9.106006   -0.946702
  H     -5.940116    9.260479   -2.642426
  H     -7.167443    9.114555   -1.494518
  C     -6.575508   11.139790   -5.753849
  O     -5.235632   11.502627   -5.925440
  H     -4.668059   11.114250   -5.220568
  H     -7.180906   12.044242   -5.578026
  H     -6.971407   10.543566   -6.595920
  H     -6.679509   10.539642   -4.838182

 Multiplicity           Mult            ....    1
 Number of Electrons    NEL             ....   18
 Basis Dimension        Dim             ....  172

ORBITAL ENERGIES
----------------

  NO   OCC          E(Eh)            E(eV)
   0   2.0000     -19.229288      -523.2555
   1   2.0000     -10.314063      -280.6599
   2   2.0000      -1.133865       -30.8540
   3   2.0000      -0.790785       -21.5184
   4   2.0000      -0.611906       -16.6508
   5   2.0000      -0.543337       -14.7850
   6   2.0000      -0.526935       -14.3386
   7   2.0000      -0.423522       -11.5246
   8   2.0000      -0.371984       -10.1222
   9   0.0000       0.075092         2.0434
  10   0.0000       0.114564         3.1174
  11   0.0000       0.152300         4.1443
  12   0.0000       0.163411         4.4466
  13   0.0000       0.184329         5.0158

MULLIKEN ATOMIC CHARGES
-----------------------
   0 C :   -0.002106
   1 O :    0.000020
   2 H :    0.000008
   3 H :    0.000048
   4 H :    0.002865
   5 H :    0.000071
   6 C :   -0.158787
   7 O :   -0.479340
   8 H :    0.321792
   9 H :    0.108741
  10 H :    0.110488
  11 H :    0.096199
Sum of atomic charges:   -0.0000000

LOEWDIN ATOMIC CHARGES
----------------------
   0 C :   -0.001067
   1 O :   -0.000004
   2 H :   -0.000003
   3 H :   -0.000005
   4 H :   -0.001851
   5 H :   -0.000072
   6 C :   -0.399079
   7 O :   -0.082296
   8 H :    0.184579
   9 H :    0.101621
  10 H :    0.101338
  11 H :    0.096840

  Mayer bond orders larger than 0.1
B(  6-C ,  7-O ) :   1.0090 B(  6-C ,  9-H ) :   0.9749 B(  6-C , 10-H ) :   0.9705
B(  6-C , 11-H ) :   0.9861 B(  7-O ,  8-H ) :   0.8934

Dispersion correction           -0.000248155
FINAL SINGLE POINT ENERGY      -115.733779375816

DIPOLE MOMENT
-------------
                                X             Y             Z
Electronic contribution:      1.69631       0.53383      -0.41082
Nuclear contribution   :     -1.84322      -0.93740       0.96180
                        -----------------------------------------
Total Dipole Moment    :     -0.14691      -0.40356       0.55098
                        -----------------------------------------
Magnitude (a.u.)       :      0.69859
Magnitude (Debye)      :      1.77567

Rotational constants in cm-1:     4.231489     0.837773     0.812427
Rotational constants in MHz : 126856.845949 25115.805845 24355.939484

                             ****ORCA TERMINATED NORMALLY****
TOTAL RUN TIME: 0 days 0 hours 1 minutes 2 seconds 618 msec
