                         Program Version 4.1.2  - RELEASE  -
|  1> #Run DFT-D3 single point of the dimer
|  2> ! wB97X-D3 def2-TZVP TIGHTSCF CHELPG PMODEL PAL8
|  3>
|  4> %base "15-177_DFT_AB"
|  5>
|  6> %scf
|  7> MaxIter 1000
|  8> end
|  9>
| 10> * xyz 0 1
| 11>   C                      6.194540             -5.022691            -9.127358
| 12>   O                      5.897896             -3.702648            -8.676208
| 13>   H                      6.666029             -3.206236            -8.325527
| 14>   H                      6.959533             -5.437600            -8.442015
| 15>   H                      5.310719             -5.662027            -9.209727
| 16>   H                      6.578487             -4.900398            -10.130770
| 17>   C                      9.288198             -3.052421            -8.884761
| 18>   O                      8.371604             -2.728053            -7.886528
| 19>   H                      8.713731             -3.126191            -7.071835
| 20>   H                      10.161427            -3.539167            -8.422150
| 21>   H                      9.013080             -3.675182            -9.656898
| 22>   H                      9.634311             -2.149419            -9.448400
| 23> *
| 24>
| 25> #Run DFT-D3 single point of the molecule with dimer basis set
| 26> $new_job
| 27> %base "15-177_DFT_A"
| 28> ! wB97X-D3 def2-TZVP TIGHTSCF CHELPG PMODEL
| 29>
| 30> %scf
| 31> MaxIter 1000
| 32> end
| 33>
| 34> * xyz 0 1
| 35>   C                      6.194540             -5.022691            -9.127358
| 36>   O                      5.897896             -3.702648            -8.676208
| 37>   H                      6.666029             -3.206236            -8.325527
| 38>   H                      6.959533             -5.437600            -8.442015
| 39>   H                      5.310719             -5.662027            -9.209727
| 40>   H                      6.578487             -4.900398            -10.130770
| 41>   C                    : 9.288198             -3.052421            -8.884761
| 42>   O                    : 8.371604             -2.728053            -7.886528
| 43>   H                    : 8.713731             -3.126191            -7.071835
| 44>   H                    : 10.161427            -3.539167            -8.422150
| 45>   H                    : 9.013080             -3.675182            -9.656898
| 46>   H                    : 9.634311             -2.149419            -9.448400
| 47> *
| 48>
| 49> #Run DFT-D3 single point of the particle with dimer basis set
| 50> $new_job
| 51> %base "15-177_DFT_B"
| 52> ! wB97X-D3 def2-TZVP TIGHTSCF CHELPG PMODEL
| 53>
| 54> %scf
| 55> MaxIter 1000
| 56> end
| 57>
| 58> * xyz 0 1
| 59>   C                    : 6.194540             -5.022691            -9.127358
| 60>   O                    : 5.897896             -3.702648            -8.676208
| 61>   H                    : 6.666029             -3.206236            -8.325527
| 62>   H                    : 6.959533             -5.437600            -8.442015
| 63>   H                    : 5.310719             -5.662027            -9.209727
| 64>   H                    : 6.578487             -4.900398            -10.130770
| 65>   C                      9.288198             -3.052421            -8.884761
| 66>   O                      8.371604             -2.728053            -7.886528
| 67>   H                      8.713731             -3.126191            -7.071835
| 68>   H                      10.161427            -3.539167            -8.422150
| 69>   H                      9.013080             -3.675182            -9.656898
| 70>   H                      9.634311             -2.149419            -9.448400
| 71> *
| 72>
| 73>                          ****END OF INPUT****
 Total Charge           Charge          ....    0
 Multiplicity           Mult            ....    1
 Number of Electrons    NEL             ....   36
Dispersion correction           -0.002256714
FINAL SINGLE POINT ENERGY      -231.467842388475
Dispersion correction           -0.000241772
FINAL SINGLE POINT ENERGY      -115.731662928290

CARTESIAN COORDINATES (ANGSTROEM)
---------------------------------
  C      6.194540   -5.022691   -9.127358
  O      5.897896   -3.702648   -8.676208
  H      6.666029   -3.206236   -8.325527
  H      6.959533   -5.437600   -8.442015
  H      5.310719   -5.662027   -9.209727
  H      6.578487   -4.900398  -10.130770
  C      9.288198   -3.052421   -8.884761
  O      8.371604   -2.728053   -7.886528
  H      8.713731   -3.126191   -7.071835
  H     10.161427   -3.539167   -8.422150
  H      9.013080   -3.675182   -9.656898
  H      9.634311   -2.149419   -9.448400

 Multiplicity           Mult            ....    1
 Number of Electrons    NEL             ....   18
 Basis Dimension        Dim             ....  172

ORBITAL ENERGIES
----------------

  NO   OCC          E(Eh)            E(eV)
   0   2.0000     -19.235411      -523.4221
   1   2.0000     -10.308325      -280.5038
   2   2.0000      -1.144590       -31.1459
   3   2.0000      -0.798955       -21.7407
   4   2.0000      -0.618574       -16.8323
   5   2.0000      -0.547377       -14.8949
   6   2.0000      -0.531217       -14.4551
   7   2.0000      -0.432616       -11.7721
   8   2.0000      -0.373893       -10.1742
   9   0.0000       0.092528         2.5178
  10   0.0000       0.122989         3.3467
  11   0.0000       0.152404         4.1471
  12   0.0000       0.192766         5.2454
  13   0.0000       0.196483         5.3466

MULLIKEN ATOMIC CHARGES
-----------------------
   0 C :    0.004785
   1 O :   -0.001600
   2 H :   -0.006005
   3 H :   -0.004680
   4 H :   -0.000171
   5 H :   -0.000555
   6 C :   -0.169770
   7 O :   -0.464681
   8 H :    0.323759
   9 H :    0.094601
  10 H :    0.118936
  11 H :    0.105381
Sum of atomic charges:    0.0000000

LOEWDIN ATOMIC CHARGES
----------------------
   0 C :   -0.006342
   1 O :   -0.007308
   2 H :   -0.055249
   3 H :   -0.002110
   4 H :   -0.000048
   5 H :   -0.001073
   6 C :   -0.395016
   7 O :   -0.006627
   8 H :    0.182534
   9 H :    0.100451
  10 H :    0.084074
  11 H :    0.106714

  Mayer bond orders larger than 0.1
B(  6-C ,  7-O ) :   1.0009 B(  6-C ,  9-H ) :   0.9908 B(  6-C , 10-H ) :   0.9731
B(  6-C , 11-H ) :   0.9812 B(  7-O ,  8-H ) :   0.8946

Dispersion correction           -0.000241685
FINAL SINGLE POINT ENERGY      -115.728227998181

DIPOLE MOMENT
-------------
                                X             Y             Z
Electronic contribution:     -1.44450       0.44031       1.22895
Nuclear contribution   :      2.01378      -0.83512      -1.09279
                        -----------------------------------------
Total Dipole Moment    :      0.56928      -0.39481       0.13615
                        -----------------------------------------
Magnitude (a.u.)       :      0.70604
Magnitude (Debye)      :      1.79461

Rotational constants in cm-1:     4.476285     0.851236     0.808204
Rotational constants in MHz : 134195.643153 25519.410580 24229.354669

                             ****ORCA TERMINATED NORMALLY****
TOTAL RUN TIME: 0 days 0 hours 1 minutes 8 seconds 756 msec
