                         Program Version 4.1.2  - RELEASE  -
|  1> #Run DFT-D3 single point of the dimer
|  2> ! wB97X-D3 def2-TZVP TIGHTSCF CHELPG PMODEL PAL8
|  3>
|  4> %base "10-34_DFT_AB"
|  5>
|  6> %scf
|  7> MaxIter 1000
|  8> end
|  9>
| 10> * xyz 0 1
| 11>   C                      -0.107336            -6.761295            -6.715591
| 12>   O                      -0.840736            -7.925506            -6.762882
| 13>   H                      -0.625648            -8.537022            -6.098598
| 14>   H                      0.918834             -6.900276            -6.443235
| 15>   H                      -0.136207            -6.196261            -7.628469
| 16>   H                      -0.460480            -6.062073            -5.931819
| 17>   C                      1.399449             -3.664081            -2.969672
| 18>   O                      0.705030             -4.800889            -3.411069
| 19>   H                      1.369790             -5.476157            -3.502879
| 20>   H                      1.257249             -2.786384            -3.541360
| 21>   H                      1.256852             -3.331110            -1.938535
| 22>   H                      2.496382             -3.861510            -3.022179
| 23> *
| 24>
| 25> #Run DFT-D3 single point of the molecule with dimer basis set
| 26> $new_job
| 27> %base "10-34_DFT_A"
| 28> ! wB97X-D3 def2-TZVP TIGHTSCF CHELPG PMODEL
| 29>
| 30> %scf
| 31> MaxIter 1000
| 32> end
| 33>
| 34> * xyz 0 1
| 35>   C                      -0.107336            -6.761295            -6.715591
| 36>   O                      -0.840736            -7.925506            -6.762882
| 37>   H                      -0.625648            -8.537022            -6.098598
| 38>   H                      0.918834             -6.900276            -6.443235
| 39>   H                      -0.136207            -6.196261            -7.628469
| 40>   H                      -0.460480            -6.062073            -5.931819
| 41>   C                    : 1.399449             -3.664081            -2.969672
| 42>   O                    : 0.705030             -4.800889            -3.411069
| 43>   H                    : 1.369790             -5.476157            -3.502879
| 44>   H                    : 1.257249             -2.786384            -3.541360
| 45>   H                    : 1.256852             -3.331110            -1.938535
| 46>   H                    : 2.496382             -3.861510            -3.022179
| 47> *
| 48>
| 49> #Run DFT-D3 single point of the particle with dimer basis set
| 50> $new_job
| 51> %base "10-34_DFT_B"
| 52> ! wB97X-D3 def2-TZVP TIGHTSCF CHELPG PMODEL
| 53>
| 54> %scf
| 55> MaxIter 1000
| 56> end
| 57>
| 58> * xyz 0 1
| 59>   C                    : -0.107336            -6.761295            -6.715591
| 60>   O                    : -0.840736            -7.925506            -6.762882
| 61>   H                    : -0.625648            -8.537022            -6.098598
| 62>   H                    : 0.918834             -6.900276            -6.443235
| 63>   H                    : -0.136207            -6.196261            -7.628469
| 64>   H                    : -0.460480            -6.062073            -5.931819
| 65>   C                      1.399449             -3.664081            -2.969672
| 66>   O                      0.705030             -4.800889            -3.411069
| 67>   H                      1.369790             -5.476157            -3.502879
| 68>   H                      1.257249             -2.786384            -3.541360
| 69>   H                      1.256852             -3.331110            -1.938535
| 70>   H                      2.496382             -3.861510            -3.022179
| 71> *
| 72>
| 73>                          ****END OF INPUT****
 Total Charge           Charge          ....    0
 Multiplicity           Mult            ....    1
 Number of Electrons    NEL             ....   36
Dispersion correction           -0.001169977
FINAL SINGLE POINT ENERGY      -231.463710097490
Dispersion correction           -0.000241885
FINAL SINGLE POINT ENERGY      -115.732584998629

CARTESIAN COORDINATES (ANGSTROEM)
---------------------------------
  C     -0.107336   -6.761295   -6.715591
  O     -0.840736   -7.925506   -6.762882
  H     -0.625648   -8.537022   -6.098598
  H      0.918834   -6.900276   -6.443235
  H     -0.136207   -6.196261   -7.628469
  H     -0.460480   -6.062073   -5.931819
  C      1.399449   -3.664081   -2.969672
  O      0.705030   -4.800889   -3.411069
  H      1.369790   -5.476157   -3.502879
  H      1.257249   -2.786384   -3.541360
  H      1.256852   -3.331110   -1.938535
  H      2.496382   -3.861510   -3.022179

 Multiplicity           Mult            ....    1
 Number of Electrons    NEL             ....   18
 Basis Dimension        Dim             ....  172

ORBITAL ENERGIES
----------------

  NO   OCC          E(Eh)            E(eV)
   0   2.0000     -19.235195      -523.4163
   1   2.0000     -10.311728      -280.5964
   2   2.0000      -1.145782       -31.1783
   3   2.0000      -0.799412       -21.7531
   4   2.0000      -0.618149       -16.8207
   5   2.0000      -0.540053       -14.6956
   6   2.0000      -0.536727       -14.6051
   7   2.0000      -0.431734       -11.7481
   8   2.0000      -0.377772       -10.2797
   9   0.0000       0.087047         2.3687
  10   0.0000       0.118464         3.2236
  11   0.0000       0.152451         4.1484
  12   0.0000       0.169638         4.6161
  13   0.0000       0.197504         5.3744

MULLIKEN ATOMIC CHARGES
-----------------------
   0 C :    0.001035
   1 O :   -0.000049
   2 H :   -0.000028
   3 H :   -0.001082
   4 H :   -0.000115
   5 H :   -0.004988
   6 C :   -0.178215
   7 O :   -0.457134
   8 H :    0.322475
   9 H :    0.117795
  10 H :    0.102851
  11 H :    0.097456
Sum of atomic charges:    0.0000000

LOEWDIN ATOMIC CHARGES
----------------------
   0 C :   -0.002192
   1 O :   -0.000023
   2 H :   -0.000003
   3 H :   -0.000536
   4 H :   -0.000011
   5 H :   -0.004019
   6 C :   -0.397663
   7 O :   -0.057150
   8 H :    0.170901
   9 H :    0.092669
  10 H :    0.096567
  11 H :    0.101458

  Mayer bond orders larger than 0.1
B(  6-C ,  7-O ) :   1.0187 B(  6-C ,  9-H ) :   0.9756 B(  6-C , 10-H ) :   0.9696
B(  6-C , 11-H ) :   0.9946 B(  7-O ,  8-H ) :   0.8985

Dispersion correction           -0.000248981
FINAL SINGLE POINT ENERGY      -115.730499997732

DIPOLE MOMENT
-------------
                                X             Y             Z
Electronic contribution:     -1.22575      -1.45522      -0.61291
Nuclear contribution   :      1.93741       1.46693       0.72032
                        -----------------------------------------
Total Dipole Moment    :      0.71166       0.01171       0.10740
                        -----------------------------------------
Magnitude (a.u.)       :      0.71981
Magnitude (Debye)      :      1.82962

Rotational constants in cm-1:     4.512383     0.834369     0.800841
Rotational constants in MHz : 135277.840856 25013.738918 24008.615915

                             ****ORCA TERMINATED NORMALLY****
TOTAL RUN TIME: 0 days 0 hours 1 minutes 5 seconds 288 msec
