                         Program Version 4.1.2  - RELEASE  -
|  1> #Run DFT-D3 single point of the dimer
|  2> ! wB97X-D3 def2-TZVP TIGHTSCF CHELPG PMODEL PAL8
|  3>
|  4> %base "8-158_DFT_AB"
|  5>
|  6> %scf
|  7> MaxIter 1000
|  8> end
|  9>
| 10> * xyz 0 1
| 11>   C                      -2.448626            5.690601             9.930628
| 12>   O                      -2.384524            6.628050             8.851840
| 13>   H                      -1.761138            6.529912             8.172932
| 14>   H                      -1.634249            5.681301             10.645902
| 15>   H                      -3.371178            5.764819             10.581678
| 16>   H                      -2.443107            4.654184             9.502492
| 17>   C                      -2.033540            9.238028             10.264947
| 18>   O                      -3.166251            9.222319             9.440236
| 19>   H                      -3.146534            8.395485             8.933780
| 20>   H                      -1.063467            9.294717             9.660196
| 21>   H                      -2.003530            10.114085            10.944249
| 22>   H                      -1.842318            8.392955             10.908813
| 23> *
| 24>
| 25> #Run DFT-D3 single point of the molecule with dimer basis set
| 26> $new_job
| 27> %base "8-158_DFT_A"
| 28> ! wB97X-D3 def2-TZVP TIGHTSCF CHELPG PMODEL
| 29>
| 30> %scf
| 31> MaxIter 1000
| 32> end
| 33>
| 34> * xyz 0 1
| 35>   C                      -2.448626            5.690601             9.930628
| 36>   O                      -2.384524            6.628050             8.851840
| 37>   H                      -1.761138            6.529912             8.172932
| 38>   H                      -1.634249            5.681301             10.645902
| 39>   H                      -3.371178            5.764819             10.581678
| 40>   H                      -2.443107            4.654184             9.502492
| 41>   C                    : -2.033540            9.238028             10.264947
| 42>   O                    : -3.166251            9.222319             9.440236
| 43>   H                    : -3.146534            8.395485             8.933780
| 44>   H                    : -1.063467            9.294717             9.660196
| 45>   H                    : -2.003530            10.114085            10.944249
| 46>   H                    : -1.842318            8.392955             10.908813
| 47> *
| 48>
| 49> #Run DFT-D3 single point of the particle with dimer basis set
| 50> $new_job
| 51> %base "8-158_DFT_B"
| 52> ! wB97X-D3 def2-TZVP TIGHTSCF CHELPG PMODEL
| 53>
| 54> %scf
| 55> MaxIter 1000
| 56> end
| 57>
| 58> * xyz 0 1
| 59>   C                    : -2.448626            5.690601             9.930628
| 60>   O                    : -2.384524            6.628050             8.851840
| 61>   H                    : -1.761138            6.529912             8.172932
| 62>   H                    : -1.634249            5.681301             10.645902
| 63>   H                    : -3.371178            5.764819             10.581678
| 64>   H                    : -2.443107            4.654184             9.502492
| 65>   C                      -2.033540            9.238028             10.264947
| 66>   O                      -3.166251            9.222319             9.440236
| 67>   H                      -3.146534            8.395485             8.933780
| 68>   H                      -1.063467            9.294717             9.660196
| 69>   H                      -2.003530            10.114085            10.944249
| 70>   H                      -1.842318            8.392955             10.908813
| 71> *
| 72>
| 73>                          ****END OF INPUT****
 Total Charge           Charge          ....    0
 Multiplicity           Mult            ....    1
 Number of Electrons    NEL             ....   36
Dispersion correction           -0.002387762
FINAL SINGLE POINT ENERGY      -231.467240910603
Dispersion correction           -0.000294053
FINAL SINGLE POINT ENERGY      -115.726579731454

CARTESIAN COORDINATES (ANGSTROEM)
---------------------------------
  C     -2.448626    5.690601    9.930628
  O     -2.384524    6.628050    8.851840
  H     -1.761138    6.529912    8.172932
  H     -1.634249    5.681301   10.645902
  H     -3.371178    5.764819   10.581678
  H     -2.443107    4.654184    9.502492
  C     -2.033540    9.238028   10.264947
  O     -3.166251    9.222319    9.440236
  H     -3.146534    8.395485    8.933780
  H     -1.063467    9.294717    9.660196
  H     -2.003530   10.114085   10.944249
  H     -1.842318    8.392955   10.908813

 Multiplicity           Mult            ....    1
 Number of Electrons    NEL             ....   18
 Basis Dimension        Dim             ....  172

ORBITAL ENERGIES
----------------

  NO   OCC          E(Eh)            E(eV)
   0   2.0000     -19.238604      -523.5090
   1   2.0000     -10.317723      -280.7595
   2   2.0000      -1.142235       -31.0818
   3   2.0000      -0.793669       -21.5968
   4   2.0000      -0.618561       -16.8319
   5   2.0000      -0.533051       -14.5051
   6   2.0000      -0.528187       -14.3727
   7   2.0000      -0.436731       -11.8841
   8   2.0000      -0.373263       -10.1570
   9   0.0000       0.069064         1.8793
  10   0.0000       0.131214         3.5705
  11   0.0000       0.145084         3.9479
  12   0.0000       0.162107         4.4111
  13   0.0000       0.196045         5.3347

MULLIKEN ATOMIC CHARGES
-----------------------
   0 C :    0.002226
   1 O :   -0.006011
   2 H :   -0.000494
   3 H :   -0.000993
   4 H :   -0.000605
   5 H :    0.000064
   6 C :   -0.186370
   7 O :   -0.459462
   8 H :    0.321605
   9 H :    0.096074
  10 H :    0.127363
  11 H :    0.106603
Sum of atomic charges:   -0.0000000

LOEWDIN ATOMIC CHARGES
----------------------
   0 C :   -0.008967
   1 O :   -0.023317
   2 H :   -0.001857
   3 H :   -0.001346
   4 H :   -0.000558
   5 H :   -0.000078
   6 C :   -0.404946
   7 O :   -0.052263
   8 H :    0.187346
   9 H :    0.101327
  10 H :    0.111699
  11 H :    0.092960

  Mayer bond orders larger than 0.1
B(  6-C ,  7-O ) :   1.0044 B(  6-C ,  9-H ) :   0.9832 B(  6-C , 10-H ) :   0.9733
B(  6-C , 11-H ) :   0.9675 B(  7-O ,  8-H ) :   0.8991

Dispersion correction           -0.000261426
FINAL SINGLE POINT ENERGY      -115.733012091178

DIPOLE MOMENT
-------------
                                X             Y             Z
Electronic contribution:     -1.75655       0.07169      -1.02519
Nuclear contribution   :      2.17825      -0.58941       1.03697
                        -----------------------------------------
Total Dipole Moment    :      0.42170      -0.51773       0.01178
                        -----------------------------------------
Magnitude (a.u.)       :      0.66784
Magnitude (Debye)      :      1.69751

Rotational constants in cm-1:     4.355102     0.826728     0.793611
Rotational constants in MHz : 130562.666384 24784.668780 23791.848736

                             ****ORCA TERMINATED NORMALLY****
TOTAL RUN TIME: 0 days 0 hours 0 minutes 50 seconds 314 msec
