                         Program Version 4.1.2  - RELEASE  -
|  1> #Run DFT-D3 single point of the dimer
|  2> ! wB97X-D3 def2-TZVP TIGHTSCF  CHELPG PAL8
|  3>
|  4> %base "170_charges"
|  5>
|  6> %scf
|  7> MaxIter 1000
|  8> end
|  9> %output
| 10>   Print[ P_Mayer ] 1
| 11>   Print[ P_NatPop ] 1
| 12>   Print[ P_Hirshfeld ] 1
| 13>   Print[ P_Mulliken ] 1
| 14>   Print [ P_Loewdin ] 1
| 15> end
| 16>
| 17> * xyz 0 1
| 18>   C                      9.460811             7.569415             2.646142
| 19>   O                      10.277766            7.578008             3.750866
| 20>   H                      9.877535             8.298462             4.286560
| 21>   H                      10.065045            7.431555             1.722809
| 22>   H                      8.663923             6.829196             2.670170
| 23>   H                      9.072227             8.614632             2.539681
| 24> *
| 25>
| 26>                          ****END OF INPUT****

CARTESIAN COORDINATES (ANGSTROEM)
---------------------------------
  C      9.460811    7.569415    2.646142
  O     10.277766    7.578008    3.750866
  H      9.877535    8.298462    4.286560
  H     10.065045    7.431555    1.722809
  H      8.663923    6.829196    2.670170
  H      9.072227    8.614632    2.539681

 Total Charge           Charge          ....    0
 Multiplicity           Mult            ....    1
 Number of Electrons    NEL             ....   18
 Basis Dimension        Dim             ....   86

ORBITAL ENERGIES
----------------

  NO   OCC          E(Eh)            E(eV)
   0   2.0000     -19.233011      -523.3568
   1   2.0000     -10.313812      -280.6531
   2   2.0000      -1.150575       -31.3087
   3   2.0000      -0.784610       -21.3503
   4   2.0000      -0.614390       -16.7184
   5   2.0000      -0.553264       -15.0551
   6   2.0000      -0.530356       -14.4317
   7   2.0000      -0.425603       -11.5813
   8   2.0000      -0.374131       -10.1806
   9   0.0000       0.106752         2.9049
  10   0.0000       0.157890         4.2964
  11   0.0000       0.197377         5.3709
  12   0.0000       0.209747         5.7075
  13   0.0000       0.230277         6.2662

MULLIKEN ATOMIC CHARGES
-----------------------
   0 C :   -0.160274
   1 O :   -0.453158
   2 H :    0.321498
   3 H :    0.106568
   4 H :    0.097940
   5 H :    0.087426
Sum of atomic charges:   -0.0000000

LOEWDIN ATOMIC CHARGES
----------------------
   0 C :   -0.427203
   1 O :   -0.059547
   2 H :    0.191423
   3 H :    0.105628
   4 H :    0.090559
   5 H :    0.099139

  Mayer bond orders larger than 0.1
B(  0-C ,  1-O ) :   1.0203 B(  0-C ,  3-H ) :   0.9746 B(  0-C ,  4-H ) :   0.9668
B(  0-C ,  5-H ) :   0.9991 B(  1-O ,  2-H ) :   0.8974

Dispersion correction           -0.000217893
FINAL SINGLE POINT ENERGY      -115.729484059209

DIPOLE MOMENT
-------------
                                X             Y             Z
Electronic contribution:      1.13293      -0.25709       1.47769
Nuclear contribution   :     -1.65959       0.71853      -1.54163
                        -----------------------------------------
Total Dipole Moment    :     -0.52665       0.46144      -0.06394
                        -----------------------------------------
Magnitude (a.u.)       :      0.70312
Magnitude (Debye)      :      1.78719

Rotational constants in cm-1:     4.116133     0.876616     0.845378
Rotational constants in MHz : 123398.560864 26280.281649 25343.795708

                             ****ORCA TERMINATED NORMALLY****
TOTAL RUN TIME: 0 days 0 hours 0 minutes 40 seconds 999 msec
