                         Program Version 4.1.2  - RELEASE  -
|  1> #Run DFT-D3 single point of the dimer
|  2> ! wB97X-D3 def2-TZVP TIGHTSCF CHELPG PMODEL PAL8
|  3>
|  4> %base "19-33_DFT_AB"
|  5>
|  6> %scf
|  7> MaxIter 1000
|  8> end
|  9>
| 10> * xyz 0 1
| 11>   C                      7.257563             6.735818             4.442851
| 12>   O                      8.386543             7.556154             4.548185
| 13>   H                      9.044606             7.039462             5.018656
| 14>   H                      7.278685             6.428361             3.430371
| 15>   H                      7.463774             5.931356             5.183014
| 16>   H                      6.305239             7.244127             4.579032
| 17>   C                      6.485865             6.830318             0.457606
| 18>   O                      6.958456             6.355031             -0.794069
| 19>   H                      7.907226             6.370384             -0.741623
| 20>   H                      6.882538             7.854793             0.749982
| 21>   H                      5.409756             6.912721             0.368214
| 22>   H                      6.865832             6.186334             1.267891
| 23> *
| 24>
| 25> #Run DFT-D3 single point of the molecule with dimer basis set
| 26> $new_job
| 27> %base "19-33_DFT_A"
| 28> ! wB97X-D3 def2-TZVP TIGHTSCF CHELPG PMODEL
| 29>
| 30> %scf
| 31> MaxIter 1000
| 32> end
| 33>
| 34> * xyz 0 1
| 35>   C                      7.257563             6.735818             4.442851
| 36>   O                      8.386543             7.556154             4.548185
| 37>   H                      9.044606             7.039462             5.018656
| 38>   H                      7.278685             6.428361             3.430371
| 39>   H                      7.463774             5.931356             5.183014
| 40>   H                      6.305239             7.244127             4.579032
| 41>   C                    : 6.485865             6.830318             0.457606
| 42>   O                    : 6.958456             6.355031             -0.794069
| 43>   H                    : 7.907226             6.370384             -0.741623
| 44>   H                    : 6.882538             7.854793             0.749982
| 45>   H                    : 5.409756             6.912721             0.368214
| 46>   H                    : 6.865832             6.186334             1.267891
| 47> *
| 48>
| 49> #Run DFT-D3 single point of the particle with dimer basis set
| 50> $new_job
| 51> %base "19-33_DFT_B"
| 52> ! wB97X-D3 def2-TZVP TIGHTSCF CHELPG PMODEL
| 53>
| 54> %scf
| 55> MaxIter 1000
| 56> end
| 57>
| 58> * xyz 0 1
| 59>   C                    : 7.257563             6.735818             4.442851
| 60>   O                    : 8.386543             7.556154             4.548185
| 61>   H                    : 9.044606             7.039462             5.018656
| 62>   H                    : 7.278685             6.428361             3.430371
| 63>   H                    : 7.463774             5.931356             5.183014
| 64>   H                    : 6.305239             7.244127             4.579032
| 65>   C                      6.485865             6.830318             0.457606
| 66>   O                      6.958456             6.355031             -0.794069
| 67>   H                      7.907226             6.370384             -0.741623
| 68>   H                      6.882538             7.854793             0.749982
| 69>   H                      5.409756             6.912721             0.368214
| 70>   H                      6.865832             6.186334             1.267891
| 71> *
| 72>
| 73>                          ****END OF INPUT****
 Total Charge           Charge          ....    0
 Multiplicity           Mult            ....    1
 Number of Electrons    NEL             ....   36
Dispersion correction           -0.001281534
FINAL SINGLE POINT ENERGY      -231.461252960736
Dispersion correction           -0.000206596
FINAL SINGLE POINT ENERGY      -115.726438108637

CARTESIAN COORDINATES (ANGSTROEM)
---------------------------------
  C      7.257563    6.735818    4.442851
  O      8.386543    7.556154    4.548185
  H      9.044606    7.039462    5.018656
  H      7.278685    6.428361    3.430371
  H      7.463774    5.931356    5.183014
  H      6.305239    7.244127    4.579032
  C      6.485865    6.830318    0.457606
  O      6.958456    6.355031   -0.794069
  H      7.907226    6.370384   -0.741623
  H      6.882538    7.854793    0.749982
  H      5.409756    6.912721    0.368214
  H      6.865832    6.186334    1.267891

 Multiplicity           Mult            ....    1
 Number of Electrons    NEL             ....   18
 Basis Dimension        Dim             ....  172

ORBITAL ENERGIES
----------------

  NO   OCC          E(Eh)            E(eV)
   0   2.0000     -19.230642      -523.2924
   1   2.0000     -10.318208      -280.7727
   2   2.0000      -1.138494       -30.9800
   3   2.0000      -0.792688       -21.5701
   4   2.0000      -0.614339       -16.7170
   5   2.0000      -0.538604       -14.6562
   6   2.0000      -0.519935       -14.1482
   7   2.0000      -0.443183       -12.0596
   8   2.0000      -0.371170       -10.1001
   9   0.0000       0.084396         2.2965
  10   0.0000       0.116713         3.1759
  11   0.0000       0.148931         4.0526
  12   0.0000       0.170888         4.6501
  13   0.0000       0.183244         4.9863

MULLIKEN ATOMIC CHARGES
-----------------------
   0 C :    0.004370
   1 O :   -0.000001
   2 H :   -0.000025
   3 H :   -0.009613
   4 H :   -0.000217
   5 H :   -0.000020
   6 C :   -0.163201
   7 O :   -0.465561
   8 H :    0.309716
   9 H :    0.091086
  10 H :    0.124750
  11 H :    0.108716
Sum of atomic charges:   -0.0000000

LOEWDIN ATOMIC CHARGES
----------------------
   0 C :   -0.002561
   1 O :   -0.000025
   2 H :   -0.000003
   3 H :   -0.007601
   4 H :   -0.000018
   5 H :   -0.000057
   6 C :   -0.384626
   7 O :   -0.074049
   8 H :    0.161538
   9 H :    0.099181
  10 H :    0.107854
  11 H :    0.100366

  Mayer bond orders larger than 0.1
B(  6-C ,  7-O ) :   0.9984 B(  6-C ,  9-H ) :   0.9714 B(  6-C , 10-H ) :   0.9685
B(  6-C , 11-H ) :   0.9801 B(  7-O ,  8-H ) :   0.9052

Dispersion correction           -0.000238402
FINAL SINGLE POINT ENERGY      -115.734233038653

DIPOLE MOMENT
-------------
                                X             Y             Z
Electronic contribution:      0.37256      -0.69904      -1.67573
Nuclear contribution   :      0.03754       0.88949       2.18367
                        -----------------------------------------
Total Dipole Moment    :      0.41010       0.19044       0.50794
                        -----------------------------------------
Magnitude (a.u.)       :      0.68003
Magnitude (Debye)      :      1.72851

Rotational constants in cm-1:     4.179154     0.832394     0.794595
Rotational constants in MHz : 125287.887698 24954.551021 23821.352495

                             ****ORCA TERMINATED NORMALLY****
TOTAL RUN TIME: 0 days 0 hours 0 minutes 52 seconds 348 msec
