                         Program Version 4.1.2  - RELEASE  -
|  1> #Run DFT-D3 single point of the dimer
|  2> ! wB97X-D3 def2-TZVP TIGHTSCF CHELPG PMODEL PAL8
|  3>
|  4> %base "9-194_DFT_AB"
|  5>
|  6> %scf
|  7> MaxIter 1000
|  8> end
|  9>
| 10> * xyz 0 1
| 11>   C                      -4.842045            7.838323             1.272649
| 12>   O                      -4.123788            7.309092             2.305676
| 13>   H                      -3.199384            7.520210             2.117756
| 14>   H                      -5.833426            7.371464             1.154109
| 15>   H                      -4.977565            8.933817             1.339982
| 16>   H                      -4.219223            7.709401             0.386398
| 17>   C                      -0.676098            8.392767             1.470357
| 18>   O                      -1.450425            7.890329             2.485881
| 19>   H                      -0.899939            7.273258             2.924053
| 20>   H                      -1.271635            8.689298             0.529120
| 21>   H                      -0.158063            9.324743             1.715549
| 22>   H                      0.009115             7.665358             1.069174
| 23> *
| 24>
| 25> #Run DFT-D3 single point of the molecule with dimer basis set
| 26> $new_job
| 27> %base "9-194_DFT_A"
| 28> ! wB97X-D3 def2-TZVP TIGHTSCF CHELPG PMODEL
| 29>
| 30> %scf
| 31> MaxIter 1000
| 32> end
| 33>
| 34> * xyz 0 1
| 35>   C                      -4.842045            7.838323             1.272649
| 36>   O                      -4.123788            7.309092             2.305676
| 37>   H                      -3.199384            7.520210             2.117756
| 38>   H                      -5.833426            7.371464             1.154109
| 39>   H                      -4.977565            8.933817             1.339982
| 40>   H                      -4.219223            7.709401             0.386398
| 41>   C                    : -0.676098            8.392767             1.470357
| 42>   O                    : -1.450425            7.890329             2.485881
| 43>   H                    : -0.899939            7.273258             2.924053
| 44>   H                    : -1.271635            8.689298             0.529120
| 45>   H                    : -0.158063            9.324743             1.715549
| 46>   H                    : 0.009115             7.665358             1.069174
| 47> *
| 48>
| 49> #Run DFT-D3 single point of the particle with dimer basis set
| 50> $new_job
| 51> %base "9-194_DFT_B"
| 52> ! wB97X-D3 def2-TZVP TIGHTSCF CHELPG PMODEL
| 53>
| 54> %scf
| 55> MaxIter 1000
| 56> end
| 57>
| 58> * xyz 0 1
| 59>   C                    : -4.842045            7.838323             1.272649
| 60>   O                    : -4.123788            7.309092             2.305676
| 61>   H                    : -3.199384            7.520210             2.117756
| 62>   H                    : -5.833426            7.371464             1.154109
| 63>   H                    : -4.977565            8.933817             1.339982
| 64>   H                    : -4.219223            7.709401             0.386398
| 65>   C                      -0.676098            8.392767             1.470357
| 66>   O                      -1.450425            7.890329             2.485881
| 67>   H                      -0.899939            7.273258             2.924053
| 68>   H                      -1.271635            8.689298             0.529120
| 69>   H                      -0.158063            9.324743             1.715549
| 70>   H                      0.009115             7.665358             1.069174
| 71> *
| 72>
| 73>                          ****END OF INPUT****
 Total Charge           Charge          ....    0
 Multiplicity           Mult            ....    1
 Number of Electrons    NEL             ....   36
Dispersion correction           -0.001776050
FINAL SINGLE POINT ENERGY      -231.469153080767
Dispersion correction           -0.000210007
FINAL SINGLE POINT ENERGY      -115.731701086349

CARTESIAN COORDINATES (ANGSTROEM)
---------------------------------
  C     -4.842045    7.838323    1.272649
  O     -4.123788    7.309092    2.305676
  H     -3.199384    7.520210    2.117756
  H     -5.833426    7.371464    1.154109
  H     -4.977565    8.933817    1.339982
  H     -4.219223    7.709401    0.386398
  C     -0.676098    8.392767    1.470357
  O     -1.450425    7.890329    2.485881
  H     -0.899939    7.273258    2.924053
  H     -1.271635    8.689298    0.529120
  H     -0.158063    9.324743    1.715549
  H      0.009115    7.665358    1.069174

 Multiplicity           Mult            ....    1
 Number of Electrons    NEL             ....   18
 Basis Dimension        Dim             ....  172

ORBITAL ENERGIES
----------------

  NO   OCC          E(Eh)            E(eV)
   0   2.0000     -19.233962      -523.3827
   1   2.0000     -10.314139      -280.6620
   2   2.0000      -1.159864       -31.5615
   3   2.0000      -0.793731       -21.5985
   4   2.0000      -0.625406       -17.0182
   5   2.0000      -0.549591       -14.9551
   6   2.0000      -0.530605       -14.4385
   7   2.0000      -0.429809       -11.6957
   8   2.0000      -0.375504       -10.2180
   9   0.0000       0.098813         2.6888
  10   0.0000       0.125073         3.4034
  11   0.0000       0.150632         4.0989
  12   0.0000       0.189069         5.1448
  13   0.0000       0.204050         5.5525

MULLIKEN ATOMIC CHARGES
-----------------------
   0 C :    0.002152
   1 O :    0.002267
   2 H :   -0.014391
   3 H :   -0.000069
   4 H :   -0.000262
   5 H :   -0.000727
   6 C :   -0.177607
   7 O :   -0.445068
   8 H :    0.315239
   9 H :    0.110006
  10 H :    0.101043
  11 H :    0.107413
Sum of atomic charges:   -0.0000000

LOEWDIN ATOMIC CHARGES
----------------------
   0 C :   -0.001721
   1 O :   -0.008948
   2 H :   -0.053837
   3 H :   -0.000023
   4 H :   -0.000061
   5 H :   -0.000469
   6 C :   -0.423407
   7 O :    0.023812
   8 H :    0.162624
   9 H :    0.115220
  10 H :    0.094416
  11 H :    0.092394

  Mayer bond orders larger than 0.1
B(  6-C ,  7-O ) :   0.9973 B(  6-C ,  9-H ) :   0.9781 B(  6-C , 10-H ) :   0.9695
B(  6-C , 11-H ) :   0.9817 B(  7-O ,  8-H ) :   0.9003

Dispersion correction           -0.000236843
FINAL SINGLE POINT ENERGY      -115.730810372972

DIPOLE MOMENT
-------------
                                X             Y             Z
Electronic contribution:     -1.11505      -0.66592       1.51002
Nuclear contribution   :      1.75982       0.43085      -1.60316
                        -----------------------------------------
Total Dipole Moment    :      0.64477      -0.23507      -0.09314
                        -----------------------------------------
Magnitude (a.u.)       :      0.69258
Magnitude (Debye)      :      1.76039

Rotational constants in cm-1:     4.382691     0.860204     0.832537
Rotational constants in MHz : 131389.783227 25788.276731 24958.819361

                             ****ORCA TERMINATED NORMALLY****
TOTAL RUN TIME: 0 days 0 hours 0 minutes 47 seconds 506 msec
