                         Program Version 4.1.2  - RELEASE  -
|  1> #Run DFT-D3 single point of the dimer
|  2> ! wB97X-D3 def2-TZVP TIGHTSCF CHELPG PMODEL PAL8
|  3>
|  4> %base "14-79_DFT_AB"
|  5>
|  6> %scf
|  7> MaxIter 1000
|  8> end
|  9>
| 10> * xyz 0 1
| 11>   C                      -7.703937            4.864431             7.544231
| 12>   O                      -8.044865            6.226566             7.754114
| 13>   H                      -8.552644            6.657544             7.051836
| 14>   H                      -8.567473            4.275343             7.272627
| 15>   H                      -6.941389            4.675493             6.753926
| 16>   H                      -7.290078            4.411499             8.488377
| 17>   C                      -3.680242            8.806137             10.599047
| 18>   O                      -4.600693            9.066485             9.608935
| 19>   H                      -5.473170            8.996398             10.012302
| 20>   H                      -2.726101            8.570485             10.232073
| 21>   H                      -3.536562            9.749122             11.213602
| 22>   H                      -4.068055            8.049899             11.231237
| 23> *
| 24>
| 25> #Run DFT-D3 single point of the molecule with dimer basis set
| 26> $new_job
| 27> %base "14-79_DFT_A"
| 28> ! wB97X-D3 def2-TZVP TIGHTSCF CHELPG PMODEL
| 29>
| 30> %scf
| 31> MaxIter 1000
| 32> end
| 33>
| 34> * xyz 0 1
| 35>   C                      -7.703937            4.864431             7.544231
| 36>   O                      -8.044865            6.226566             7.754114
| 37>   H                      -8.552644            6.657544             7.051836
| 38>   H                      -8.567473            4.275343             7.272627
| 39>   H                      -6.941389            4.675493             6.753926
| 40>   H                      -7.290078            4.411499             8.488377
| 41>   C                    : -3.680242            8.806137             10.599047
| 42>   O                    : -4.600693            9.066485             9.608935
| 43>   H                    : -5.473170            8.996398             10.012302
| 44>   H                    : -2.726101            8.570485             10.232073
| 45>   H                    : -3.536562            9.749122             11.213602
| 46>   H                    : -4.068055            8.049899             11.231237
| 47> *
| 48>
| 49> #Run DFT-D3 single point of the particle with dimer basis set
| 50> $new_job
| 51> %base "14-79_DFT_B"
| 52> ! wB97X-D3 def2-TZVP TIGHTSCF CHELPG PMODEL
| 53>
| 54> %scf
| 55> MaxIter 1000
| 56> end
| 57>
| 58> * xyz 0 1
| 59>   C                    : -7.703937            4.864431             7.544231
| 60>   O                    : -8.044865            6.226566             7.754114
| 61>   H                    : -8.552644            6.657544             7.051836
| 62>   H                    : -8.567473            4.275343             7.272627
| 63>   H                    : -6.941389            4.675493             6.753926
| 64>   H                    : -7.290078            4.411499             8.488377
| 65>   C                      -3.680242            8.806137             10.599047
| 66>   O                      -4.600693            9.066485             9.608935
| 67>   H                      -5.473170            8.996398             10.012302
| 68>   H                      -2.726101            8.570485             10.232073
| 69>   H                      -3.536562            9.749122             11.213602
| 70>   H                      -4.068055            8.049899             11.231237
| 71> *
| 72>
| 73>                          ****END OF INPUT****
 Total Charge           Charge          ....    0
 Multiplicity           Mult            ....    1
 Number of Electrons    NEL             ....   36
Dispersion correction           -0.000630226
FINAL SINGLE POINT ENERGY      -231.464944038705
Dispersion correction           -0.000279199
FINAL SINGLE POINT ENERGY      -115.733497793279

CARTESIAN COORDINATES (ANGSTROEM)
---------------------------------
  C     -7.703937    4.864431    7.544231
  O     -8.044865    6.226566    7.754114
  H     -8.552644    6.657544    7.051836
  H     -8.567473    4.275343    7.272627
  H     -6.941389    4.675493    6.753926
  H     -7.290078    4.411499    8.488377
  C     -3.680242    8.806137   10.599047
  O     -4.600693    9.066485    9.608935
  H     -5.473170    8.996398   10.012302
  H     -2.726101    8.570485   10.232073
  H     -3.536562    9.749122   11.213602
  H     -4.068055    8.049899   11.231237

 Multiplicity           Mult            ....    1
 Number of Electrons    NEL             ....   18
 Basis Dimension        Dim             ....  172

ORBITAL ENERGIES
----------------

  NO   OCC          E(Eh)            E(eV)
   0   2.0000     -19.227800      -523.2150
   1   2.0000     -10.305305      -280.4216
   2   2.0000      -1.147843       -31.2344
   3   2.0000      -0.795550       -21.6480
   4   2.0000      -0.618129       -16.8202
   5   2.0000      -0.545979       -14.8568
   6   2.0000      -0.539172       -14.6716
   7   2.0000      -0.434563       -11.8251
   8   2.0000      -0.366144        -9.9633
   9   0.0000       0.086330         2.3492
  10   0.0000       0.113099         3.0776
  11   0.0000       0.157226         4.2783
  12   0.0000       0.165733         4.5098
  13   0.0000       0.198998         5.4150

MULLIKEN ATOMIC CHARGES
-----------------------
   0 C :   -0.000126
   1 O :    0.000014
   2 H :   -0.000000
   3 H :   -0.000002
   4 H :    0.000012
   5 H :    0.000013
   6 C :   -0.157353
   7 O :   -0.464739
   8 H :    0.316990
   9 H :    0.116445
  10 H :    0.086449
  11 H :    0.102296
Sum of atomic charges:    0.0000000

LOEWDIN ATOMIC CHARGES
----------------------
   0 C :   -0.000039
   1 O :   -0.000024
   2 H :   -0.000004
   3 H :   -0.000002
   4 H :   -0.000000
   5 H :   -0.000001
   6 C :   -0.405672
   7 O :   -0.053764
   8 H :    0.175934
   9 H :    0.095693
  10 H :    0.099369
  11 H :    0.088511

  Mayer bond orders larger than 0.1
B(  6-C ,  7-O ) :   1.0036 B(  6-C ,  9-H ) :   0.9730 B(  6-C , 10-H ) :   0.9797
B(  6-C , 11-H ) :   0.9888 B(  7-O ,  8-H ) :   0.8982

Dispersion correction           -0.000208042
FINAL SINGLE POINT ENERGY      -115.731010841547

DIPOLE MOMENT
-------------
                                X             Y             Z
Electronic contribution:     -1.03372       0.19463      -1.47288
Nuclear contribution   :      0.83028      -0.37004       2.08810
                        -----------------------------------------
Total Dipole Moment    :     -0.20344      -0.17541       0.61522
                        -----------------------------------------
Magnitude (a.u.)       :      0.67131
Magnitude (Debye)      :      1.70632

Rotational constants in cm-1:     4.336967     0.875743     0.843949
Rotational constants in MHz : 130018.999204 26254.109680 25300.948010

                             ****ORCA TERMINATED NORMALLY****
TOTAL RUN TIME: 0 days 0 hours 0 minutes 54 seconds 276 msec
