                         Program Version 4.1.2  - RELEASE  -
|  1> #Run DFT-D3 single point of the dimer
|  2> ! wB97X-D3 def2-TZVP TIGHTSCF CHELPG PMODEL PAL8
|  3>
|  4> %base "7-121_DFT_AB"
|  5>
|  6> %scf
|  7> MaxIter 1000
|  8> end
|  9>
| 10> * xyz 0 1
| 11>   C                      -6.876157            -3.537889            6.430555
| 12>   O                      -7.557125            -4.068631            5.313738
| 13>   H                      -6.837903            -4.361989            4.734408
| 14>   H                      -6.067335            -2.821260            6.093197
| 15>   H                      -7.594730            -2.834349            6.993745
| 16>   H                      -6.463546            -4.327425            7.099497
| 17>   C                      -9.596490            -4.334882            8.446050
| 18>   O                      -9.183912            -5.643515            8.967712
| 19>   H                      -10.048866           -6.109166            8.803399
| 20>   H                      -9.881320            -4.307858            7.423818
| 21>   H                      -10.306380           -3.792558            9.069104
| 22>   H                      -8.740310            -3.654649            8.601008
| 23> *
| 24>
| 25> #Run DFT-D3 single point of the molecule with dimer basis set
| 26> $new_job
| 27> %base "7-121_DFT_A"
| 28> ! wB97X-D3 def2-TZVP TIGHTSCF CHELPG PMODEL
| 29>
| 30> %scf
| 31> MaxIter 1000
| 32> end
| 33>
| 34> * xyz 0 1
| 35>   C                      -6.876157            -3.537889            6.430555
| 36>   O                      -7.557125            -4.068631            5.313738
| 37>   H                      -6.837903            -4.361989            4.734408
| 38>   H                      -6.067335            -2.821260            6.093197
| 39>   H                      -7.594730            -2.834349            6.993745
| 40>   H                      -6.463546            -4.327425            7.099497
| 41>   C                    : -9.596490            -4.334882            8.446050
| 42>   O                    : -9.183912            -5.643515            8.967712
| 43>   H                    : -10.048866           -6.109166            8.803399
| 44>   H                    : -9.881320            -4.307858            7.423818
| 45>   H                    : -10.306380           -3.792558            9.069104
| 46>   H                    : -8.740310            -3.654649            8.601008
| 47> *
| 48>
| 49> #Run DFT-D3 single point of the particle with dimer basis set
| 50> $new_job
| 51> %base "7-121_DFT_B"
| 52> ! wB97X-D3 def2-TZVP TIGHTSCF CHELPG PMODEL
| 53>
| 54> %scf
| 55> MaxIter 1000
| 56> end
| 57>
| 58> * xyz 0 1
| 59>   C                    : -6.876157            -3.537889            6.430555
| 60>   O                    : -7.557125            -4.068631            5.313738
| 61>   H                    : -6.837903            -4.361989            4.734408
| 62>   H                    : -6.067335            -2.821260            6.093197
| 63>   H                    : -7.594730            -2.834349            6.993745
| 64>   H                    : -6.463546            -4.327425            7.099497
| 65>   C                      -9.596490            -4.334882            8.446050
| 66>   O                      -9.183912            -5.643515            8.967712
| 67>   H                      -10.048866           -6.109166            8.803399
| 68>   H                      -9.881320            -4.307858            7.423818
| 69>   H                      -10.306380           -3.792558            9.069104
| 70>   H                      -8.740310            -3.654649            8.601008
| 71> *
| 72>
| 73>                          ****END OF INPUT****
 Total Charge           Charge          ....    0
 Multiplicity           Mult            ....    1
 Number of Electrons    NEL             ....   36
Dispersion correction           -0.001888930
FINAL SINGLE POINT ENERGY      -231.459349886090
Dispersion correction           -0.000243711
FINAL SINGLE POINT ENERGY      -115.732306218179

CARTESIAN COORDINATES (ANGSTROEM)
---------------------------------
  C     -6.876157   -3.537889    6.430555
  O     -7.557125   -4.068631    5.313738
  H     -6.837903   -4.361989    4.734408
  H     -6.067335   -2.821260    6.093197
  H     -7.594730   -2.834349    6.993745
  H     -6.463546   -4.327425    7.099497
  C     -9.596490   -4.334882    8.446050
  O     -9.183912   -5.643515    8.967712
  H    -10.048866   -6.109166    8.803399
  H     -9.881320   -4.307858    7.423818
  H    -10.306380   -3.792558    9.069104
  H     -8.740310   -3.654649    8.601008

 Multiplicity           Mult            ....    1
 Number of Electrons    NEL             ....   18
 Basis Dimension        Dim             ....  172

ORBITAL ENERGIES
----------------

  NO   OCC          E(Eh)            E(eV)
   0   2.0000     -19.240779      -523.5682
   1   2.0000     -10.313859      -280.6544
   2   2.0000      -1.122487       -30.5444
   3   2.0000      -0.796905       -21.6849
   4   2.0000      -0.596622       -16.2349
   5   2.0000      -0.546742       -14.8776
   6   2.0000      -0.510872       -13.9015
   7   2.0000      -0.443831       -12.0773
   8   2.0000      -0.381047       -10.3688
   9   0.0000       0.089541         2.4365
  10   0.0000       0.115494         3.1428
  11   0.0000       0.148974         4.0538
  12   0.0000       0.164862         4.4861
  13   0.0000       0.195666         5.3243

MULLIKEN ATOMIC CHARGES
-----------------------
   0 C :    0.001673
   1 O :    0.000059
   2 H :   -0.000002
   3 H :    0.000137
   4 H :   -0.003030
   5 H :    0.000055
   6 C :   -0.207327
   7 O :   -0.457068
   8 H :    0.313747
   9 H :    0.118814
  10 H :    0.113015
  11 H :    0.119926
Sum of atomic charges:   -0.0000000

LOEWDIN ATOMIC CHARGES
----------------------
   0 C :   -0.010098
   1 O :   -0.000441
   2 H :   -0.000028
   3 H :   -0.000033
   4 H :   -0.008919
   5 H :   -0.000951
   6 C :   -0.360370
   7 O :   -0.118932
   8 H :    0.190635
   9 H :    0.091938
  10 H :    0.097249
  11 H :    0.119950

  Mayer bond orders larger than 0.1
B(  6-C ,  7-O ) :   1.0153 B(  6-C ,  9-H ) :   0.9691 B(  6-C , 10-H ) :   0.9648
B(  6-C , 11-H ) :   0.9786 B(  7-O ,  8-H ) :   0.9027

Dispersion correction           -0.000254174
FINAL SINGLE POINT ENERGY      -115.726627033729

DIPOLE MOMENT
-------------
                                X             Y             Z
Electronic contribution:      0.58966      -1.74689       0.58718
Nuclear contribution   :     -1.25437       2.01232      -0.88089
                        -----------------------------------------
Total Dipole Moment    :     -0.66471       0.26542      -0.29371
                        -----------------------------------------
Magnitude (a.u.)       :      0.77366
Magnitude (Debye)      :      1.96650

Rotational constants in cm-1:     4.280555     0.786736     0.757797
Rotational constants in MHz : 128327.805826 23585.749849 22718.172212

                             ****ORCA TERMINATED NORMALLY****
TOTAL RUN TIME: 0 days 0 hours 1 minutes 12 seconds 37 msec
