                         Program Version 4.1.2  - RELEASE  -
|  1> #Run DFT-D3 single point of the dimer
|  2> ! wB97X-D3 def2-TZVP TIGHTSCF CHELPG PMODEL PAL8
|  3>
|  4> %base "14-153_DFT_AB"
|  5>
|  6> %scf
|  7> MaxIter 1000
|  8> end
|  9>
| 10> * xyz 0 1
| 11>   C                      8.290622             5.239301             -9.015405
| 12>   O                      7.716649             6.173702             -8.101895
| 13>   H                      8.239089             5.969744             -7.352667
| 14>   H                      7.967459             4.219938             -8.846703
| 15>   H                      7.958367             5.425387             -10.042128
| 16>   H                      9.361778             5.266100             -8.805668
| 17>   C                      7.087538             3.114760             -6.287559
| 18>   O                      8.478925             2.966955             -6.142406
| 19>   H                      8.946655             3.760954             -6.069125
| 20>   H                      6.609672             3.351330             -5.335322
| 21>   H                      6.831918             3.872074             -7.095502
| 22>   H                      6.668333             2.144904             -6.663838
| 23> *
| 24>
| 25> #Run DFT-D3 single point of the molecule with dimer basis set
| 26> $new_job
| 27> %base "14-153_DFT_A"
| 28> ! wB97X-D3 def2-TZVP TIGHTSCF CHELPG PMODEL
| 29>
| 30> %scf
| 31> MaxIter 1000
| 32> end
| 33>
| 34> * xyz 0 1
| 35>   C                      8.290622             5.239301             -9.015405
| 36>   O                      7.716649             6.173702             -8.101895
| 37>   H                      8.239089             5.969744             -7.352667
| 38>   H                      7.967459             4.219938             -8.846703
| 39>   H                      7.958367             5.425387             -10.042128
| 40>   H                      9.361778             5.266100             -8.805668
| 41>   C                    : 7.087538             3.114760             -6.287559
| 42>   O                    : 8.478925             2.966955             -6.142406
| 43>   H                    : 8.946655             3.760954             -6.069125
| 44>   H                    : 6.609672             3.351330             -5.335322
| 45>   H                    : 6.831918             3.872074             -7.095502
| 46>   H                    : 6.668333             2.144904             -6.663838
| 47> *
| 48>
| 49> #Run DFT-D3 single point of the particle with dimer basis set
| 50> $new_job
| 51> %base "14-153_DFT_B"
| 52> ! wB97X-D3 def2-TZVP TIGHTSCF CHELPG PMODEL
| 53>
| 54> %scf
| 55> MaxIter 1000
| 56> end
| 57>
| 58> * xyz 0 1
| 59>   C                    : 8.290622             5.239301             -9.015405
| 60>   O                    : 7.716649             6.173702             -8.101895
| 61>   H                    : 8.239089             5.969744             -7.352667
| 62>   H                    : 7.967459             4.219938             -8.846703
| 63>   H                    : 7.958367             5.425387             -10.042128
| 64>   H                    : 9.361778             5.266100             -8.805668
| 65>   C                      7.087538             3.114760             -6.287559
| 66>   O                      8.478925             2.966955             -6.142406
| 67>   H                      8.946655             3.760954             -6.069125
| 68>   H                      6.609672             3.351330             -5.335322
| 69>   H                      6.831918             3.872074             -7.095502
| 70>   H                      6.668333             2.144904             -6.663838
| 71> *
| 72>
| 73>                          ****END OF INPUT****
 Total Charge           Charge          ....    0
 Multiplicity           Mult            ....    1
 Number of Electrons    NEL             ....   36
Dispersion correction           -0.002332180
FINAL SINGLE POINT ENERGY      -231.463487588981
Dispersion correction           -0.000210599
FINAL SINGLE POINT ENERGY      -115.729419898084

CARTESIAN COORDINATES (ANGSTROEM)
---------------------------------
  C      8.290622    5.239301   -9.015405
  O      7.716649    6.173702   -8.101895
  H      8.239089    5.969744   -7.352667
  H      7.967459    4.219938   -8.846703
  H      7.958367    5.425387  -10.042128
  H      9.361778    5.266100   -8.805668
  C      7.087538    3.114760   -6.287559
  O      8.478925    2.966955   -6.142406
  H      8.946655    3.760954   -6.069125
  H      6.609672    3.351330   -5.335322
  H      6.831918    3.872074   -7.095502
  H      6.668333    2.144904   -6.663838

 Multiplicity           Mult            ....    1
 Number of Electrons    NEL             ....   18
 Basis Dimension        Dim             ....  172

ORBITAL ENERGIES
----------------

  NO   OCC          E(Eh)            E(eV)
   0   2.0000     -19.225225      -523.1450
   1   2.0000     -10.320895      -280.8458
   2   2.0000      -1.141625       -31.0652
   3   2.0000      -0.797453       -21.6998
   4   2.0000      -0.613967       -16.7069
   5   2.0000      -0.545346       -14.8396
   6   2.0000      -0.525597       -14.3022
   7   2.0000      -0.421951       -11.4819
   8   2.0000      -0.375688       -10.2230
   9   0.0000       0.078667         2.1406
  10   0.0000       0.137127         3.7314
  11   0.0000       0.151302         4.1171
  12   0.0000       0.169979         4.6254
  13   0.0000       0.197810         5.3827

MULLIKEN ATOMIC CHARGES
-----------------------
   0 C :   -0.007284
   1 O :    0.000893
   2 H :   -0.000862
   3 H :    0.004161
   4 H :    0.000157
   5 H :    0.000732
   6 C :   -0.153230
   7 O :   -0.477083
   8 H :    0.311403
   9 H :    0.112034
  10 H :    0.092811
  11 H :    0.116268
Sum of atomic charges:    0.0000000

LOEWDIN ATOMIC CHARGES
----------------------
   0 C :   -0.010746
   1 O :   -0.002604
   2 H :   -0.002659
   3 H :   -0.006381
   4 H :   -0.000078
   5 H :   -0.000417
   6 C :   -0.384560
   7 O :   -0.051765
   8 H :    0.142333
   9 H :    0.094094
  10 H :    0.108408
  11 H :    0.114376

  Mayer bond orders larger than 0.1
B(  6-C ,  7-O ) :   0.9875 B(  6-C ,  9-H ) :   0.9774 B(  6-C , 10-H ) :   0.9778
B(  6-C , 11-H ) :   0.9736 B(  7-O ,  8-H ) :   0.9045

Dispersion correction           -0.000258891
FINAL SINGLE POINT ENERGY      -115.733927010536

DIPOLE MOMENT
-------------
                                X             Y             Z
Electronic contribution:      1.77563      -0.25435       0.27361
Nuclear contribution   :     -2.01782       0.82521      -0.28202
                        -----------------------------------------
Total Dipole Moment    :     -0.24218       0.57086      -0.00840
                        -----------------------------------------
Magnitude (a.u.)       :      0.62017
Magnitude (Debye)      :      1.57634

Rotational constants in cm-1:     4.271065     0.825163     0.805100
Rotational constants in MHz : 128043.319033 24737.763917 24136.293527

                             ****ORCA TERMINATED NORMALLY****
TOTAL RUN TIME: 0 days 0 hours 1 minutes 9 seconds 817 msec
