                         Program Version 4.1.2  - RELEASE  -
|  1> #Run DFT-D3 single point of the dimer
|  2> ! wB97X-D3 def2-TZVP TIGHTSCF CHELPG PMODEL PAL8
|  3>
|  4> %base "21-29_DFT_AB"
|  5>
|  6> %scf
|  7> MaxIter 1000
|  8> end
|  9>
| 10> * xyz 0 1
| 11>   C                      2.453454             1.166860             -5.874115
| 12>   O                      3.686145             1.240109             -5.184784
| 13>   H                      3.920853             2.166736             -5.242162
| 14>   H                      1.624176             1.779049             -5.362332
| 15>   H                      2.542419             1.779453             -6.767790
| 16>   H                      2.112095             0.179773             -6.170195
| 17>   C                      -0.476332            5.228080             -3.863871
| 18>   O                      0.558869             4.308490             -3.545075
| 19>   H                      0.259840             3.888630             -2.740243
| 20>   H                      -0.393640            5.740900             -4.847753
| 21>   H                      -1.548750            4.885884             -3.895985
| 22>   H                      -0.448631            6.086702             -3.136892
| 23> *
| 24>
| 25> #Run DFT-D3 single point of the molecule with dimer basis set
| 26> $new_job
| 27> %base "21-29_DFT_A"
| 28> ! wB97X-D3 def2-TZVP TIGHTSCF CHELPG PMODEL
| 29>
| 30> %scf
| 31> MaxIter 1000
| 32> end
| 33>
| 34> * xyz 0 1
| 35>   C                      2.453454             1.166860             -5.874115
| 36>   O                      3.686145             1.240109             -5.184784
| 37>   H                      3.920853             2.166736             -5.242162
| 38>   H                      1.624176             1.779049             -5.362332
| 39>   H                      2.542419             1.779453             -6.767790
| 40>   H                      2.112095             0.179773             -6.170195
| 41>   C                    : -0.476332            5.228080             -3.863871
| 42>   O                    : 0.558869             4.308490             -3.545075
| 43>   H                    : 0.259840             3.888630             -2.740243
| 44>   H                    : -0.393640            5.740900             -4.847753
| 45>   H                    : -1.548750            4.885884             -3.895985
| 46>   H                    : -0.448631            6.086702             -3.136892
| 47> *
| 48>
| 49> #Run DFT-D3 single point of the particle with dimer basis set
| 50> $new_job
| 51> %base "21-29_DFT_B"
| 52> ! wB97X-D3 def2-TZVP TIGHTSCF CHELPG PMODEL
| 53>
| 54> %scf
| 55> MaxIter 1000
| 56> end
| 57>
| 58> * xyz 0 1
| 59>   C                    : 2.453454             1.166860             -5.874115
| 60>   O                    : 3.686145             1.240109             -5.184784
| 61>   H                    : 3.920853             2.166736             -5.242162
| 62>   H                    : 1.624176             1.779049             -5.362332
| 63>   H                    : 2.542419             1.779453             -6.767790
| 64>   H                    : 2.112095             0.179773             -6.170195
| 65>   C                      -0.476332            5.228080             -3.863871
| 66>   O                      0.558869             4.308490             -3.545075
| 67>   H                      0.259840             3.888630             -2.740243
| 68>   H                      -0.393640            5.740900             -4.847753
| 69>   H                      -1.548750            4.885884             -3.895985
| 70>   H                      -0.448631            6.086702             -3.136892
| 71> *
| 72>
| 73>                          ****END OF INPUT****
 Total Charge           Charge          ....    0
 Multiplicity           Mult            ....    1
 Number of Electrons    NEL             ....   36
Dispersion correction           -0.000935578
FINAL SINGLE POINT ENERGY      -231.460125574767
Dispersion correction           -0.000230652
FINAL SINGLE POINT ENERGY      -115.728320860753

CARTESIAN COORDINATES (ANGSTROEM)
---------------------------------
  C      2.453454    1.166860   -5.874115
  O      3.686145    1.240109   -5.184784
  H      3.920853    2.166736   -5.242162
  H      1.624176    1.779049   -5.362332
  H      2.542419    1.779453   -6.767790
  H      2.112095    0.179773   -6.170195
  C     -0.476332    5.228080   -3.863871
  O      0.558869    4.308490   -3.545075
  H      0.259840    3.888630   -2.740243
  H     -0.393640    5.740900   -4.847753
  H     -1.548750    4.885884   -3.895985
  H     -0.448631    6.086702   -3.136892

 Multiplicity           Mult            ....    1
 Number of Electrons    NEL             ....   18
 Basis Dimension        Dim             ....  172

ORBITAL ENERGIES
----------------

  NO   OCC          E(Eh)            E(eV)
   0   2.0000     -19.239104      -523.5226
   1   2.0000     -10.323253      -280.9100
   2   2.0000      -1.141680       -31.0667
   3   2.0000      -0.792411       -21.5626
   4   2.0000      -0.611980       -16.6528
   5   2.0000      -0.535908       -14.5828
   6   2.0000      -0.525992       -14.3130
   7   2.0000      -0.435416       -11.8483
   8   2.0000      -0.376654       -10.2493
   9   0.0000       0.096310         2.6207
  10   0.0000       0.118252         3.2178
  11   0.0000       0.145512         3.9596
  12   0.0000       0.175670         4.7802
  13   0.0000       0.194288         5.2869

MULLIKEN ATOMIC CHARGES
-----------------------
   0 C :    0.002395
   1 O :   -0.000007
   2 H :   -0.000171
   3 H :   -0.006221
   4 H :   -0.000165
   5 H :   -0.000079
   6 C :   -0.192883
   7 O :   -0.454051
   8 H :    0.318577
   9 H :    0.123282
  10 H :    0.105974
  11 H :    0.103348
Sum of atomic charges:   -0.0000000

LOEWDIN ATOMIC CHARGES
----------------------
   0 C :   -0.000633
   1 O :   -0.000010
   2 H :   -0.000075
   3 H :   -0.003340
   4 H :   -0.000015
   5 H :   -0.000004
   6 C :   -0.406128
   7 O :   -0.070702
   8 H :    0.171112
   9 H :    0.111401
  10 H :    0.099533
  11 H :    0.098861

  Mayer bond orders larger than 0.1
B(  6-C ,  7-O ) :   1.0031 B(  6-C ,  9-H ) :   0.9728 B(  6-C , 10-H ) :   0.9654
B(  6-C , 11-H ) :   0.9778 B(  7-O ,  8-H ) :   0.8979

Dispersion correction           -0.000272320
FINAL SINGLE POINT ENERGY      -115.730206510248

DIPOLE MOMENT
-------------
                                X             Y             Z
Electronic contribution:      1.53183      -1.36092       0.28153
Nuclear contribution   :     -2.11719       1.46204       0.08910
                        -----------------------------------------
Total Dipole Moment    :     -0.58536       0.10111       0.37063
                        -----------------------------------------
Magnitude (a.u.)       :      0.70017
Magnitude (Debye)      :      1.77969

Rotational constants in cm-1:     4.339773     0.803215     0.778991
Rotational constants in MHz : 130103.124568 24079.771208 23353.570006

                             ****ORCA TERMINATED NORMALLY****
TOTAL RUN TIME: 0 days 0 hours 0 minutes 57 seconds 842 msec
