                         Program Version 4.1.2  - RELEASE  -
|  1> #Run DFT-D3 single point of the dimer
|  2> ! wB97X-D3 def2-TZVP TIGHTSCF  CHELPG PAL8
|  3>
|  4> %base "70_charges"
|  5>
|  6> %scf
|  7> MaxIter 1000
|  8> end
|  9> %output
| 10>   Print[ P_Mayer ] 1
| 11>   Print[ P_NatPop ] 1
| 12>   Print[ P_Hirshfeld ] 1
| 13>   Print[ P_Mulliken ] 1
| 14>   Print [ P_Loewdin ] 1
| 15> end
| 16>
| 17> * xyz 0 1
| 18>   C                      -4.902399            1.529532             6.620932
| 19>   O                      -4.184793            2.412390             7.502470
| 20>   H                      -4.650581            2.309619             8.354580
| 21>   H                      -5.752063            1.147483             7.123201
| 22>   H                      -5.201289            1.910354             5.720830
| 23>   H                      -4.322883            0.653788             6.476745
| 24> *
| 25>
| 26>                          ****END OF INPUT****

CARTESIAN COORDINATES (ANGSTROEM)
---------------------------------
  C     -4.902399    1.529532    6.620932
  O     -4.184793    2.412390    7.502470
  H     -4.650581    2.309619    8.354580
  H     -5.752063    1.147483    7.123201
  H     -5.201289    1.910354    5.720830
  H     -4.322883    0.653788    6.476745

 Total Charge           Charge          ....    0
 Multiplicity           Mult            ....    1
 Number of Electrons    NEL             ....   18
 Basis Dimension        Dim             ....   86

ORBITAL ENERGIES
----------------

  NO   OCC          E(Eh)            E(eV)
   0   2.0000     -19.230617      -523.2917
   1   2.0000     -10.299028      -280.2508
   2   2.0000      -1.127128       -30.6707
   3   2.0000      -0.806220       -21.9384
   4   2.0000      -0.606895       -16.5145
   5   2.0000      -0.551003       -14.9935
   6   2.0000      -0.526079       -14.3153
   7   2.0000      -0.438381       -11.9290
   8   2.0000      -0.374965       -10.2033
   9   0.0000       0.110587         3.0092
  10   0.0000       0.157427         4.2838
  11   0.0000       0.200563         5.4576
  12   0.0000       0.218172         5.9368
  13   0.0000       0.237336         6.4582

MULLIKEN ATOMIC CHARGES
-----------------------
   0 C :   -0.168345
   1 O :   -0.473940
   2 H :    0.317110
   3 H :    0.101082
   4 H :    0.116234
   5 H :    0.107860
Sum of atomic charges:    0.0000000

LOEWDIN ATOMIC CHARGES
----------------------
   0 C :   -0.351123
   1 O :   -0.102510
   2 H :    0.180155
   3 H :    0.092991
   4 H :    0.085264
   5 H :    0.095223

  Mayer bond orders larger than 0.1
B(  0-C ,  1-O ) :   1.0138 B(  0-C ,  3-H ) :   0.9933 B(  0-C ,  4-H ) :   0.9746
B(  0-C ,  5-H ) :   0.9805 B(  1-O ,  2-H ) :   0.9016

Dispersion correction           -0.000227351
FINAL SINGLE POINT ENERGY      -115.726441194801

DIPOLE MOMENT
-------------
                                X             Y             Z
Electronic contribution:      0.98709       1.28362       0.84644
Nuclear contribution   :     -1.59933      -1.72715      -0.66855
                        -----------------------------------------
Total Dipole Moment    :     -0.61224      -0.44353       0.17789
                        -----------------------------------------
Magnitude (a.u.)       :      0.77666
Magnitude (Debye)      :      1.97411

Rotational constants in cm-1:     4.568601     0.818955     0.788666
Rotational constants in MHz : 136963.219203 24551.660541 23643.608512

                             ****ORCA TERMINATED NORMALLY****
TOTAL RUN TIME: 0 days 0 hours 0 minutes 41 seconds 668 msec
