                         Program Version 4.1.2  - RELEASE  -
|  1> #Run DFT-D3 single point of the dimer
|  2> ! wB97X-D3 def2-TZVP TIGHTSCF CHELPG PMODEL PAL8
|  3>
|  4> %base "5-72_DFT_AB"
|  5>
|  6> %scf
|  7> MaxIter 1000
|  8> end
|  9>
| 10> * xyz 0 1
| 11>   C                      0.496941             1.392049             5.026981
| 12>   O                      -0.494197            0.337308             5.082726
| 13>   H                      -0.689183            0.394878             4.127763
| 14>   H                      1.282604             1.248695             5.776744
| 15>   H                      1.032644             1.416140             4.066925
| 16>   H                      -0.013328            2.353019             5.225455
| 17>   C                      -4.440723            0.124851             4.082596
| 18>   O                      -4.745330            0.522823             2.728726
| 19>   H                      -4.412200            -0.146942            2.170394
| 20>   H                      -4.800838            0.880417             4.720140
| 21>   H                      -4.841633            -0.879362            4.273459
| 22>   H                      -3.412028            0.008074             4.126415
| 23> *
| 24>
| 25> #Run DFT-D3 single point of the molecule with dimer basis set
| 26> $new_job
| 27> %base "5-72_DFT_A"
| 28> ! wB97X-D3 def2-TZVP TIGHTSCF CHELPG PMODEL
| 29>
| 30> %scf
| 31> MaxIter 1000
| 32> end
| 33>
| 34> * xyz 0 1
| 35>   C                      0.496941             1.392049             5.026981
| 36>   O                      -0.494197            0.337308             5.082726
| 37>   H                      -0.689183            0.394878             4.127763
| 38>   H                      1.282604             1.248695             5.776744
| 39>   H                      1.032644             1.416140             4.066925
| 40>   H                      -0.013328            2.353019             5.225455
| 41>   C                    : -4.440723            0.124851             4.082596
| 42>   O                    : -4.745330            0.522823             2.728726
| 43>   H                    : -4.412200            -0.146942            2.170394
| 44>   H                    : -4.800838            0.880417             4.720140
| 45>   H                    : -4.841633            -0.879362            4.273459
| 46>   H                    : -3.412028            0.008074             4.126415
| 47> *
| 48>
| 49> #Run DFT-D3 single point of the particle with dimer basis set
| 50> $new_job
| 51> %base "5-72_DFT_B"
| 52> ! wB97X-D3 def2-TZVP TIGHTSCF CHELPG PMODEL
| 53>
| 54> %scf
| 55> MaxIter 1000
| 56> end
| 57>
| 58> * xyz 0 1
| 59>   C                    : 0.496941             1.392049             5.026981
| 60>   O                    : -0.494197            0.337308             5.082726
| 61>   H                    : -0.689183            0.394878             4.127763
| 62>   H                    : 1.282604             1.248695             5.776744
| 63>   H                    : 1.032644             1.416140             4.066925
| 64>   H                    : -0.013328            2.353019             5.225455
| 65>   C                      -4.440723            0.124851             4.082596
| 66>   O                      -4.745330            0.522823             2.728726
| 67>   H                      -4.412200            -0.146942            2.170394
| 68>   H                      -4.800838            0.880417             4.720140
| 69>   H                      -4.841633            -0.879362            4.273459
| 70>   H                      -3.412028            0.008074             4.126415
| 71> *
| 72>
| 73>                          ****END OF INPUT****
 Total Charge           Charge          ....    0
 Multiplicity           Mult            ....    1
 Number of Electrons    NEL             ....   36
Dispersion correction           -0.001035538
FINAL SINGLE POINT ENERGY      -231.460624881141
Dispersion correction           -0.000226452
FINAL SINGLE POINT ENERGY      -115.729036694125

CARTESIAN COORDINATES (ANGSTROEM)
---------------------------------
  C      0.496941    1.392049    5.026981
  O     -0.494197    0.337308    5.082726
  H     -0.689183    0.394878    4.127763
  H      1.282604    1.248695    5.776744
  H      1.032644    1.416140    4.066925
  H     -0.013328    2.353019    5.225455
  C     -4.440723    0.124851    4.082596
  O     -4.745330    0.522823    2.728726
  H     -4.412200   -0.146942    2.170394
  H     -4.800838    0.880417    4.720140
  H     -4.841633   -0.879362    4.273459
  H     -3.412028    0.008074    4.126415

 Multiplicity           Mult            ....    1
 Number of Electrons    NEL             ....   18
 Basis Dimension        Dim             ....  172

ORBITAL ENERGIES
----------------

  NO   OCC          E(Eh)            E(eV)
   0   2.0000     -19.221711      -523.0494
   1   2.0000     -10.305176      -280.4181
   2   2.0000      -1.131190       -30.7812
   3   2.0000      -0.804078       -21.8801
   4   2.0000      -0.611593       -16.6423
   5   2.0000      -0.539926       -14.6921
   6   2.0000      -0.531114       -14.4523
   7   2.0000      -0.442540       -12.0421
   8   2.0000      -0.370489       -10.0815
   9   0.0000       0.084879         2.3097
  10   0.0000       0.118227         3.2171
  11   0.0000       0.153650         4.1810
  12   0.0000       0.173376         4.7178
  13   0.0000       0.195419         5.3176

MULLIKEN ATOMIC CHARGES
-----------------------
   0 C :   -0.000421
   1 O :   -0.000274
   2 H :    0.000952
   3 H :    0.000004
   4 H :   -0.000001
   5 H :    0.000015
   6 C :   -0.164191
   7 O :   -0.480575
   8 H :    0.304371
   9 H :    0.128726
  10 H :    0.101189
  11 H :    0.110206
Sum of atomic charges:    0.0000000

LOEWDIN ATOMIC CHARGES
----------------------
   0 C :   -0.000115
   1 O :   -0.001030
   2 H :   -0.001478
   3 H :   -0.000001
   4 H :   -0.000001
   5 H :   -0.000008
   6 C :   -0.340553
   7 O :   -0.088782
   8 H :    0.146316
   9 H :    0.102380
  10 H :    0.098183
  11 H :    0.085089

  Mayer bond orders larger than 0.1
B(  6-C ,  7-O ) :   0.9813 B(  6-C ,  9-H ) :   0.9723 B(  6-C , 10-H ) :   0.9790
B(  6-C , 11-H ) :   0.9824 B(  7-O ,  8-H ) :   0.9108

Dispersion correction           -0.000208780
FINAL SINGLE POINT ENERGY      -115.730682166038

DIPOLE MOMENT
-------------
                                X             Y             Z
Electronic contribution:     -0.44730       0.67304      -1.45502
Nuclear contribution   :      0.81129      -1.26506       1.67440
                        -----------------------------------------
Total Dipole Moment    :      0.36399      -0.59202       0.21938
                        -----------------------------------------
Magnitude (a.u.)       :      0.72877
Magnitude (Debye)      :      1.85239

Rotational constants in cm-1:     4.399674     0.828642     0.790649
Rotational constants in MHz : 131898.902888 24842.062333 23703.063878

                             ****ORCA TERMINATED NORMALLY****
TOTAL RUN TIME: 0 days 0 hours 1 minutes 3 seconds 757 msec
