                         Program Version 4.1.2  - RELEASE  -
|  1> #Run DFT-D3 single point of the dimer
|  2> ! wB97X-D3 def2-TZVP TIGHTSCF CHELPG PMODEL PAL8
|  3>
|  4> %base "21-127_DFT_AB"
|  5>
|  6> %scf
|  7> MaxIter 1000
|  8> end
|  9>
| 10> * xyz 0 1
| 11>   C                      -5.919274            -3.266028            -9.765933
| 12>   O                      -7.007712            -2.477800            -10.131426
| 13>   H                      -7.419284            -2.264709            -9.271346
| 14>   H                      -5.092639            -3.122663            -10.527099
| 15>   H                      -5.501222            -2.933932            -8.783267
| 16>   H                      -6.205399            -4.343898            -9.720369
| 17>   C                      -3.389755            -0.935923            -6.500137
| 18>   O                      -3.259672            -0.825678            -7.883029
| 19>   H                      -2.382912            -0.578327            -8.113036
| 20>   H                      -3.148542            0.079052             -5.986449
| 21>   H                      -4.350042            -1.219182            -6.114905
| 22>   H                      -2.645313            -1.593143            -6.048752
| 23> *
| 24>
| 25> #Run DFT-D3 single point of the molecule with dimer basis set
| 26> $new_job
| 27> %base "21-127_DFT_A"
| 28> ! wB97X-D3 def2-TZVP TIGHTSCF CHELPG PMODEL
| 29>
| 30> %scf
| 31> MaxIter 1000
| 32> end
| 33>
| 34> * xyz 0 1
| 35>   C                      -5.919274            -3.266028            -9.765933
| 36>   O                      -7.007712            -2.477800            -10.131426
| 37>   H                      -7.419284            -2.264709            -9.271346
| 38>   H                      -5.092639            -3.122663            -10.527099
| 39>   H                      -5.501222            -2.933932            -8.783267
| 40>   H                      -6.205399            -4.343898            -9.720369
| 41>   C                    : -3.389755            -0.935923            -6.500137
| 42>   O                    : -3.259672            -0.825678            -7.883029
| 43>   H                    : -2.382912            -0.578327            -8.113036
| 44>   H                    : -3.148542            0.079052             -5.986449
| 45>   H                    : -4.350042            -1.219182            -6.114905
| 46>   H                    : -2.645313            -1.593143            -6.048752
| 47> *
| 48>
| 49> #Run DFT-D3 single point of the particle with dimer basis set
| 50> $new_job
| 51> %base "21-127_DFT_B"
| 52> ! wB97X-D3 def2-TZVP TIGHTSCF CHELPG PMODEL
| 53>
| 54> %scf
| 55> MaxIter 1000
| 56> end
| 57>
| 58> * xyz 0 1
| 59>   C                    : -5.919274            -3.266028            -9.765933
| 60>   O                    : -7.007712            -2.477800            -10.131426
| 61>   H                    : -7.419284            -2.264709            -9.271346
| 62>   H                    : -5.092639            -3.122663            -10.527099
| 63>   H                    : -5.501222            -2.933932            -8.783267
| 64>   H                    : -6.205399            -4.343898            -9.720369
| 65>   C                      -3.389755            -0.935923            -6.500137
| 66>   O                      -3.259672            -0.825678            -7.883029
| 67>   H                      -2.382912            -0.578327            -8.113036
| 68>   H                      -3.148542            0.079052             -5.986449
| 69>   H                      -4.350042            -1.219182            -6.114905
| 70>   H                      -2.645313            -1.593143            -6.048752
| 71> *
| 72>
| 73>                          ****END OF INPUT****
 Total Charge           Charge          ....    0
 Multiplicity           Mult            ....    1
 Number of Electrons    NEL             ....   36
Dispersion correction           -0.001115209
FINAL SINGLE POINT ENERGY      -231.465022576907
Dispersion correction           -0.000230944
FINAL SINGLE POINT ENERGY      -115.733229076208

CARTESIAN COORDINATES (ANGSTROEM)
---------------------------------
  C     -5.919274   -3.266028   -9.765933
  O     -7.007712   -2.477800  -10.131426
  H     -7.419284   -2.264709   -9.271346
  H     -5.092639   -3.122663  -10.527099
  H     -5.501222   -2.933932   -8.783267
  H     -6.205399   -4.343898   -9.720369
  C     -3.389755   -0.935923   -6.500137
  O     -3.259672   -0.825678   -7.883029
  H     -2.382912   -0.578327   -8.113036
  H     -3.148542    0.079052   -5.986449
  H     -4.350042   -1.219182   -6.114905
  H     -2.645313   -1.593143   -6.048752

 Multiplicity           Mult            ....    1
 Number of Electrons    NEL             ....   18
 Basis Dimension        Dim             ....  172

ORBITAL ENERGIES
----------------

  NO   OCC          E(Eh)            E(eV)
   0   2.0000     -19.231605      -523.3186
   1   2.0000     -10.317832      -280.7625
   2   2.0000      -1.147322       -31.2202
   3   2.0000      -0.797778       -21.7087
   4   2.0000      -0.621321       -16.9070
   5   2.0000      -0.541315       -14.7299
   6   2.0000      -0.530563       -14.4374
   7   2.0000      -0.432950       -11.7812
   8   2.0000      -0.369527       -10.0553
   9   0.0000       0.096411         2.6235
  10   0.0000       0.119279         3.2457
  11   0.0000       0.150254         4.0886
  12   0.0000       0.177151         4.8205
  13   0.0000       0.194636         5.2963

MULLIKEN ATOMIC CHARGES
-----------------------
   0 C :   -0.000732
   1 O :    0.000026
   2 H :   -0.000014
   3 H :   -0.000331
   4 H :   -0.001177
   5 H :   -0.000100
   6 C :   -0.167256
   7 O :   -0.463080
   8 H :    0.315767
   9 H :    0.088363
  10 H :    0.126602
  11 H :    0.101932
Sum of atomic charges:   -0.0000000

LOEWDIN ATOMIC CHARGES
----------------------
   0 C :   -0.001676
   1 O :   -0.000010
   2 H :   -0.000007
   3 H :   -0.000278
   4 H :   -0.001639
   5 H :   -0.000016
   6 C :   -0.404424
   7 O :   -0.048042
   8 H :    0.159715
   9 H :    0.101808
  10 H :    0.102786
  11 H :    0.091783

  Mayer bond orders larger than 0.1
B(  6-C ,  7-O ) :   0.9953 B(  6-C ,  9-H ) :   0.9791 B(  6-C , 10-H ) :   0.9713
B(  6-C , 11-H ) :   0.9760 B(  7-O ,  8-H ) :   0.8974

Dispersion correction           -0.000246505
FINAL SINGLE POINT ENERGY      -115.730913004080

DIPOLE MOMENT
-------------
                                X             Y             Z
Electronic contribution:     -0.08562      -0.05141      -1.98272
Nuclear contribution   :      0.60327       0.14841       2.36575
                        -----------------------------------------
Total Dipole Moment    :      0.51765       0.09700       0.38304
                        -----------------------------------------
Magnitude (a.u.)       :      0.65122
Magnitude (Debye)      :      1.65527

Rotational constants in cm-1:     4.401858     0.835743     0.806067
Rotational constants in MHz : 131964.392234 25054.957202 24165.281604

                             ****ORCA TERMINATED NORMALLY****
TOTAL RUN TIME: 0 days 0 hours 1 minutes 1 seconds 42 msec
