                         Program Version 4.1.2  - RELEASE  -
|  1> #Run DFT-D3 single point of the dimer
|  2> ! wB97X-D3 def2-TZVP TIGHTSCF CHELPG PMODEL PAL8
|  3>
|  4> %base "12-7_DFT_AB"
|  5>
|  6> %scf
|  7> MaxIter 1000
|  8> end
|  9>
| 10> * xyz 0 1
| 11>   C                      -3.318311            -0.619609            -4.975786
| 12>   O                      -2.848868            -0.188945            -3.711665
| 13>   H                      -2.709265            0.711760             -3.772373
| 14>   H                      -2.662649            -0.195860            -5.703031
| 15>   H                      -3.228268            -1.702189            -5.124246
| 16>   H                      -4.392851            -0.308560            -5.145854
| 17>   C                      -4.457753            0.302622             -8.468040
| 18>   O                      -4.609920            1.414455             -7.704517
| 19>   H                      -3.849356            2.042617             -7.768961
| 20>   H                      -3.651086            -0.370586            -8.200092
| 21>   H                      -5.302765            -0.325117            -8.665945
| 22>   H                      -4.199064            0.684449             -9.470733
| 23> *
| 24>
| 25> #Run DFT-D3 single point of the molecule with dimer basis set
| 26> $new_job
| 27> %base "12-7_DFT_A"
| 28> ! wB97X-D3 def2-TZVP TIGHTSCF CHELPG PMODEL
| 29>
| 30> %scf
| 31> MaxIter 1000
| 32> end
| 33>
| 34> * xyz 0 1
| 35>   C                      -3.318311            -0.619609            -4.975786
| 36>   O                      -2.848868            -0.188945            -3.711665
| 37>   H                      -2.709265            0.711760             -3.772373
| 38>   H                      -2.662649            -0.195860            -5.703031
| 39>   H                      -3.228268            -1.702189            -5.124246
| 40>   H                      -4.392851            -0.308560            -5.145854
| 41>   C                    : -4.457753            0.302622             -8.468040
| 42>   O                    : -4.609920            1.414455             -7.704517
| 43>   H                    : -3.849356            2.042617             -7.768961
| 44>   H                    : -3.651086            -0.370586            -8.200092
| 45>   H                    : -5.302765            -0.325117            -8.665945
| 46>   H                    : -4.199064            0.684449             -9.470733
| 47> *
| 48>
| 49> #Run DFT-D3 single point of the particle with dimer basis set
| 50> $new_job
| 51> %base "12-7_DFT_B"
| 52> ! wB97X-D3 def2-TZVP TIGHTSCF CHELPG PMODEL
| 53>
| 54> %scf
| 55> MaxIter 1000
| 56> end
| 57>
| 58> * xyz 0 1
| 59>   C                    : -3.318311            -0.619609            -4.975786
| 60>   O                    : -2.848868            -0.188945            -3.711665
| 61>   H                    : -2.709265            0.711760             -3.772373
| 62>   H                    : -2.662649            -0.195860            -5.703031
| 63>   H                    : -3.228268            -1.702189            -5.124246
| 64>   H                    : -4.392851            -0.308560            -5.145854
| 65>   C                      -4.457753            0.302622             -8.468040
| 66>   O                      -4.609920            1.414455             -7.704517
| 67>   H                      -3.849356            2.042617             -7.768961
| 68>   H                      -3.651086            -0.370586            -8.200092
| 69>   H                      -5.302765            -0.325117            -8.665945
| 70>   H                      -4.199064            0.684449             -9.470733
| 71> *
| 72>
| 73>                          ****END OF INPUT****
 Total Charge           Charge          ....    0
 Multiplicity           Mult            ....    1
 Number of Electrons    NEL             ....   36
Dispersion correction           -0.001774866
FINAL SINGLE POINT ENERGY      -231.459091192466
Dispersion correction           -0.000229502
FINAL SINGLE POINT ENERGY      -115.731597394655

CARTESIAN COORDINATES (ANGSTROEM)
---------------------------------
  C     -3.318311   -0.619609   -4.975786
  O     -2.848868   -0.188945   -3.711665
  H     -2.709265    0.711760   -3.772373
  H     -2.662649   -0.195860   -5.703031
  H     -3.228268   -1.702189   -5.124246
  H     -4.392851   -0.308560   -5.145854
  C     -4.457753    0.302622   -8.468040
  O     -4.609920    1.414455   -7.704517
  H     -3.849356    2.042617   -7.768961
  H     -3.651086   -0.370586   -8.200092
  H     -5.302765   -0.325117   -8.665945
  H     -4.199064    0.684449   -9.470733

 Multiplicity           Mult            ....    1
 Number of Electrons    NEL             ....   18
 Basis Dimension        Dim             ....  172

ORBITAL ENERGIES
----------------

  NO   OCC          E(Eh)            E(eV)
   0   2.0000     -19.232053      -523.3308
   1   2.0000     -10.306250      -280.4473
   2   2.0000      -1.147643       -31.2289
   3   2.0000      -0.796665       -21.6783
   4   2.0000      -0.622157       -16.9298
   5   2.0000      -0.545428       -14.8418
   6   2.0000      -0.543206       -14.7814
   7   2.0000      -0.418095       -11.3769
   8   2.0000      -0.367087        -9.9889
   9   0.0000       0.086441         2.3522
  10   0.0000       0.122570         3.3353
  11   0.0000       0.146854         3.9961
  12   0.0000       0.176858         4.8126
  13   0.0000       0.190158         5.1745

MULLIKEN ATOMIC CHARGES
-----------------------
   0 C :    0.002075
   1 O :    0.000162
   2 H :   -0.000103
   3 H :   -0.002515
   4 H :   -0.000312
   5 H :   -0.001760
   6 C :   -0.159894
   7 O :   -0.477544
   8 H :    0.328679
   9 H :    0.095553
  10 H :    0.124143
  11 H :    0.091516
Sum of atomic charges:   -0.0000000

LOEWDIN ATOMIC CHARGES
----------------------
   0 C :   -0.005868
   1 O :   -0.000029
   2 H :   -0.000032
   3 H :   -0.001875
   4 H :   -0.000146
   5 H :   -0.002570
   6 C :   -0.431629
   7 O :   -0.043237
   8 H :    0.193920
   9 H :    0.090065
  10 H :    0.104523
  11 H :    0.096878

  Mayer bond orders larger than 0.1
B(  6-C ,  7-O ) :   0.9955 B(  6-C ,  9-H ) :   0.9716 B(  6-C , 10-H ) :   0.9690
B(  6-C , 11-H ) :   0.9979 B(  7-O ,  8-H ) :   0.8816

Dispersion correction           -0.000229863
FINAL SINGLE POINT ENERGY      -115.726157288797

DIPOLE MOMENT
-------------
                                X             Y             Z
Electronic contribution:     -0.43273       1.39965       1.27046
Nuclear contribution   :      0.96328      -1.40226      -1.61647
                        -----------------------------------------
Total Dipole Moment    :      0.53056      -0.00261      -0.34600
                        -----------------------------------------
Magnitude (a.u.)       :      0.63342
Magnitude (Debye)      :      1.61002

Rotational constants in cm-1:     4.558635     0.868350     0.840210
Rotational constants in MHz : 136664.440221 26032.472102 25188.872467

                             ****ORCA TERMINATED NORMALLY****
TOTAL RUN TIME: 0 days 0 hours 1 minutes 8 seconds 536 msec
