                         Program Version 4.1.2  - RELEASE  -
|  1> #Run DFT-D3 single point of the dimer
|  2> ! wB97X-D3 def2-TZVP TIGHTSCF  CHELPG PAL8
|  3>
|  4> %base "142_charges"
|  5>
|  6> %scf
|  7> MaxIter 1000
|  8> end
|  9> %output
| 10>   Print[ P_Mayer ] 1
| 11>   Print[ P_NatPop ] 1
| 12>   Print[ P_Hirshfeld ] 1
| 13>   Print[ P_Mulliken ] 1
| 14>   Print [ P_Loewdin ] 1
| 15> end
| 16>
| 17> * xyz 0 1
| 18>   C                      9.413836             8.100781             8.324935
| 19>   O                      10.177641            9.186433             8.799578
| 20>   H                      10.466779            8.798903             9.636599
| 21>   H                      8.906484             7.716654             9.237874
| 22>   H                      8.584639             8.337450             7.716500
| 23>   H                      10.071720            7.308813             7.854180
| 24> *
| 25>
| 26>                          ****END OF INPUT****

CARTESIAN COORDINATES (ANGSTROEM)
---------------------------------
  C      9.413836    8.100781    8.324935
  O     10.177641    9.186433    8.799578
  H     10.466779    8.798903    9.636599
  H      8.906484    7.716654    9.237874
  H      8.584639    8.337450    7.716500
  H     10.071720    7.308813    7.854180

 Total Charge           Charge          ....    0
 Multiplicity           Mult            ....    1
 Number of Electrons    NEL             ....   18
 Basis Dimension        Dim             ....   86

ORBITAL ENERGIES
----------------

  NO   OCC          E(Eh)            E(eV)
   0   2.0000     -19.232292      -523.3373
   1   2.0000     -10.315716      -280.7049
   2   2.0000      -1.143740       -31.1228
   3   2.0000      -0.789797       -21.4915
   4   2.0000      -0.606514       -16.5041
   5   2.0000      -0.550135       -14.9699
   6   2.0000      -0.532286       -14.4842
   7   2.0000      -0.431946       -11.7538
   8   2.0000      -0.374637       -10.1944
   9   0.0000       0.109845         2.9890
  10   0.0000       0.156818         4.2672
  11   0.0000       0.196042         5.3346
  12   0.0000       0.209524         5.7014
  13   0.0000       0.221320         6.0224

MULLIKEN ATOMIC CHARGES
-----------------------
   0 C :   -0.181301
   1 O :   -0.457991
   2 H :    0.319492
   3 H :    0.093430
   4 H :    0.125078
   5 H :    0.101293
Sum of atomic charges:    0.0000000

LOEWDIN ATOMIC CHARGES
----------------------
   0 C :   -0.398344
   1 O :   -0.080133
   2 H :    0.180407
   3 H :    0.100463
   4 H :    0.095508
   5 H :    0.102099

  Mayer bond orders larger than 0.1
B(  0-C ,  1-O ) :   1.0011 B(  0-C ,  3-H ) :   0.9977 B(  0-C ,  4-H ) :   0.9698
B(  0-C ,  5-H ) :   0.9691 B(  1-O ,  2-H ) :   0.9011

Dispersion correction           -0.000213402
FINAL SINGLE POINT ENERGY      -115.726290630687

DIPOLE MOMENT
-------------
                                X             Y             Z
Electronic contribution:      0.96713       1.59675       0.28949
Nuclear contribution   :     -1.11876      -2.22402       0.05298
                        -----------------------------------------
Total Dipole Moment    :     -0.15163      -0.62727       0.34248
                        -----------------------------------------
Magnitude (a.u.)       :      0.73058
Magnitude (Debye)      :      1.85698

Rotational constants in cm-1:     4.171560     0.840312     0.821920
Rotational constants in MHz : 125060.222799 25191.930145 24640.527336

                             ****ORCA TERMINATED NORMALLY****
TOTAL RUN TIME: 0 days 0 hours 0 minutes 40 seconds 417 msec
