                         Program Version 4.1.2  - RELEASE  -
|  1> #Run DFT-D3 single point of the dimer
|  2> ! wB97X-D3 def2-TZVP TIGHTSCF CHELPG PMODEL PAL8
|  3>
|  4> %base "17-76_DFT_AB"
|  5>
|  6> %scf
|  7> MaxIter 1000
|  8> end
|  9>
| 10> * xyz 0 1
| 11>   C                      -1.143472            3.251015             -8.383428
| 12>   O                      -1.942154            2.903486             -9.464382
| 13>   H                      -1.698939            3.509440             -10.183064
| 14>   H                      -1.426148            2.504044             -7.571571
| 15>   H                      -0.084644            3.152513             -8.594473
| 16>   H                      -1.392792            4.268874             -8.070492
| 17>   C                      -1.627934            6.266983             -5.420462
| 18>   O                      -2.389891            5.130978             -5.209662
| 19>   H                      -3.228653            5.374556             -5.691346
| 20>   H                      -0.709581            6.221348             -4.813212
| 21>   H                      -1.362621            6.499080             -6.477642
| 22>   H                      -2.295527            7.046350             -5.054601
| 23> *
| 24>
| 25> #Run DFT-D3 single point of the molecule with dimer basis set
| 26> $new_job
| 27> %base "17-76_DFT_A"
| 28> ! wB97X-D3 def2-TZVP TIGHTSCF CHELPG PMODEL
| 29>
| 30> %scf
| 31> MaxIter 1000
| 32> end
| 33>
| 34> * xyz 0 1
| 35>   C                      -1.143472            3.251015             -8.383428
| 36>   O                      -1.942154            2.903486             -9.464382
| 37>   H                      -1.698939            3.509440             -10.183064
| 38>   H                      -1.426148            2.504044             -7.571571
| 39>   H                      -0.084644            3.152513             -8.594473
| 40>   H                      -1.392792            4.268874             -8.070492
| 41>   C                    : -1.627934            6.266983             -5.420462
| 42>   O                    : -2.389891            5.130978             -5.209662
| 43>   H                    : -3.228653            5.374556             -5.691346
| 44>   H                    : -0.709581            6.221348             -4.813212
| 45>   H                    : -1.362621            6.499080             -6.477642
| 46>   H                    : -2.295527            7.046350             -5.054601
| 47> *
| 48>
| 49> #Run DFT-D3 single point of the particle with dimer basis set
| 50> $new_job
| 51> %base "17-76_DFT_B"
| 52> ! wB97X-D3 def2-TZVP TIGHTSCF CHELPG PMODEL
| 53>
| 54> %scf
| 55> MaxIter 1000
| 56> end
| 57>
| 58> * xyz 0 1
| 59>   C                    : -1.143472            3.251015             -8.383428
| 60>   O                    : -1.942154            2.903486             -9.464382
| 61>   H                    : -1.698939            3.509440             -10.183064
| 62>   H                    : -1.426148            2.504044             -7.571571
| 63>   H                    : -0.084644            3.152513             -8.594473
| 64>   H                    : -1.392792            4.268874             -8.070492
| 65>   C                      -1.627934            6.266983             -5.420462
| 66>   O                      -2.389891            5.130978             -5.209662
| 67>   H                      -3.228653            5.374556             -5.691346
| 68>   H                      -0.709581            6.221348             -4.813212
| 69>   H                      -1.362621            6.499080             -6.477642
| 70>   H                      -2.295527            7.046350             -5.054601
| 71> *
| 72>
| 73>                          ****END OF INPUT****
 Total Charge           Charge          ....    0
 Multiplicity           Mult            ....    1
 Number of Electrons    NEL             ....   36
Dispersion correction           -0.001357234
FINAL SINGLE POINT ENERGY      -231.463968972252
Dispersion correction           -0.000216689
FINAL SINGLE POINT ENERGY      -115.734452322967

CARTESIAN COORDINATES (ANGSTROEM)
---------------------------------
  C     -1.143472    3.251015   -8.383428
  O     -1.942154    2.903486   -9.464382
  H     -1.698939    3.509440  -10.183064
  H     -1.426148    2.504044   -7.571571
  H     -0.084644    3.152513   -8.594473
  H     -1.392792    4.268874   -8.070492
  C     -1.627934    6.266983   -5.420462
  O     -2.389891    5.130978   -5.209662
  H     -3.228653    5.374556   -5.691346
  H     -0.709581    6.221348   -4.813212
  H     -1.362621    6.499080   -6.477642
  H     -2.295527    7.046350   -5.054601

 Multiplicity           Mult            ....    1
 Number of Electrons    NEL             ....   18
 Basis Dimension        Dim             ....  172

ORBITAL ENERGIES
----------------

  NO   OCC          E(Eh)            E(eV)
   0   2.0000     -19.234594      -523.3999
   1   2.0000     -10.312970      -280.6302
   2   2.0000      -1.145905       -31.1816
   3   2.0000      -0.783858       -21.3299
   4   2.0000      -0.612708       -16.6726
   5   2.0000      -0.549300       -14.9472
   6   2.0000      -0.528171       -14.3723
   7   2.0000      -0.436961       -11.8903
   8   2.0000      -0.368304       -10.0221
   9   0.0000       0.087218         2.3733
  10   0.0000       0.115440         3.1413
  11   0.0000       0.155063         4.2195
  12   0.0000       0.172833         4.7030
  13   0.0000       0.190764         5.1909

MULLIKEN ATOMIC CHARGES
-----------------------
   0 C :   -0.000733
   1 O :    0.000051
   2 H :    0.000001
   3 H :   -0.000716
   4 H :   -0.000282
   5 H :   -0.001151
   6 C :   -0.165458
   7 O :   -0.458028
   8 H :    0.317247
   9 H :    0.116075
  10 H :    0.092819
  11 H :    0.100175
Sum of atomic charges:    0.0000000

LOEWDIN ATOMIC CHARGES
----------------------
   0 C :   -0.003156
   1 O :   -0.000019
   2 H :   -0.000003
   3 H :   -0.000830
   4 H :   -0.000035
   5 H :   -0.002189
   6 C :   -0.419991
   7 O :   -0.069435
   8 H :    0.197742
   9 H :    0.108849
  10 H :    0.093495
  11 H :    0.095573

  Mayer bond orders larger than 0.1
B(  6-C ,  7-O ) :   0.9971 B(  6-C ,  9-H ) :   0.9731 B(  6-C , 10-H ) :   0.9629
B(  6-C , 11-H ) :   0.9975 B(  7-O ,  8-H ) :   0.8958

Dispersion correction           -0.000204709
FINAL SINGLE POINT ENERGY      -115.728559482571

DIPOLE MOMENT
-------------
                                X             Y             Z
Electronic contribution:     -0.76679      -1.61730       0.34322
Nuclear contribution   :      0.53306       2.18037      -0.68437
                        -----------------------------------------
Total Dipole Moment    :     -0.23373       0.56307      -0.34115
                        -----------------------------------------
Magnitude (a.u.)       :      0.69862
Magnitude (Debye)      :      1.77574

Rotational constants in cm-1:     4.093950     0.877046     0.835152
Rotational constants in MHz : 122733.539579 26293.167508 25037.235435

                             ****ORCA TERMINATED NORMALLY****
TOTAL RUN TIME: 0 days 0 hours 1 minutes 11 seconds 515 msec
