                         Program Version 4.1.2  - RELEASE  -
|  1> #Run DFT-D3 single point of the dimer
|  2> ! wB97X-D3 def2-TZVP TIGHTSCF CHELPG PMODEL PAL8
|  3>
|  4> %base "4-46_DFT_AB"
|  5>
|  6> %scf
|  7> MaxIter 1000
|  8> end
|  9>
| 10> * xyz 0 1
| 11>   C                      4.599833             1.923888             6.602593
| 12>   O                      3.786116             2.729609             7.484004
| 13>   H                      3.607876             3.440949             6.897519
| 14>   H                      5.455821             2.534420             6.223668
| 15>   H                      5.103900             1.124986             7.097621
| 16>   H                      4.070648             1.512387             5.743250
| 17>   C                      8.138163             2.013779             8.440012
| 18>   O                      8.449880             2.296050             7.073773
| 19>   H                      8.958610             1.573154             6.754095
| 20>   H                      7.680784             2.922407             8.860548
| 21>   H                      7.458505             1.109173             8.484702
| 22>   H                      9.035666             1.771950             8.988343
| 23> *
| 24>
| 25> #Run DFT-D3 single point of the molecule with dimer basis set
| 26> $new_job
| 27> %base "4-46_DFT_A"
| 28> ! wB97X-D3 def2-TZVP TIGHTSCF CHELPG PMODEL
| 29>
| 30> %scf
| 31> MaxIter 1000
| 32> end
| 33>
| 34> * xyz 0 1
| 35>   C                      4.599833             1.923888             6.602593
| 36>   O                      3.786116             2.729609             7.484004
| 37>   H                      3.607876             3.440949             6.897519
| 38>   H                      5.455821             2.534420             6.223668
| 39>   H                      5.103900             1.124986             7.097621
| 40>   H                      4.070648             1.512387             5.743250
| 41>   C                    : 8.138163             2.013779             8.440012
| 42>   O                    : 8.449880             2.296050             7.073773
| 43>   H                    : 8.958610             1.573154             6.754095
| 44>   H                    : 7.680784             2.922407             8.860548
| 45>   H                    : 7.458505             1.109173             8.484702
| 46>   H                    : 9.035666             1.771950             8.988343
| 47> *
| 48>
| 49> #Run DFT-D3 single point of the particle with dimer basis set
| 50> $new_job
| 51> %base "4-46_DFT_B"
| 52> ! wB97X-D3 def2-TZVP TIGHTSCF CHELPG PMODEL
| 53>
| 54> %scf
| 55> MaxIter 1000
| 56> end
| 57>
| 58> * xyz 0 1
| 59>   C                    : 4.599833             1.923888             6.602593
| 60>   O                    : 3.786116             2.729609             7.484004
| 61>   H                    : 3.607876             3.440949             6.897519
| 62>   H                    : 5.455821             2.534420             6.223668
| 63>   H                    : 5.103900             1.124986             7.097621
| 64>   H                    : 4.070648             1.512387             5.743250
| 65>   C                      8.138163             2.013779             8.440012
| 66>   O                      8.449880             2.296050             7.073773
| 67>   H                      8.958610             1.573154             6.754095
| 68>   H                      7.680784             2.922407             8.860548
| 69>   H                      7.458505             1.109173             8.484702
| 70>   H                      9.035666             1.771950             8.988343
| 71> *
| 72>
| 73>                          ****END OF INPUT****
 Total Charge           Charge          ....    0
 Multiplicity           Mult            ....    1
 Number of Electrons    NEL             ....   36
Dispersion correction           -0.001616492
FINAL SINGLE POINT ENERGY      -231.468691668996
Dispersion correction           -0.000234917
FINAL SINGLE POINT ENERGY      -115.731318496602

CARTESIAN COORDINATES (ANGSTROEM)
---------------------------------
  C      4.599833    1.923888    6.602593
  O      3.786116    2.729609    7.484004
  H      3.607876    3.440949    6.897519
  H      5.455821    2.534420    6.223668
  H      5.103900    1.124986    7.097621
  H      4.070648    1.512387    5.743250
  C      8.138163    2.013779    8.440012
  O      8.449880    2.296050    7.073773
  H      8.958610    1.573154    6.754095
  H      7.680784    2.922407    8.860548
  H      7.458505    1.109173    8.484702
  H      9.035666    1.771950    8.988343

 Multiplicity           Mult            ....    1
 Number of Electrons    NEL             ....   18
 Basis Dimension        Dim             ....  172

ORBITAL ENERGIES
----------------

  NO   OCC          E(Eh)            E(eV)
   0   2.0000     -19.226628      -523.1831
   1   2.0000     -10.317869      -280.7635
   2   2.0000      -1.135798       -30.9066
   3   2.0000      -0.793954       -21.6046
   4   2.0000      -0.610395       -16.6097
   5   2.0000      -0.538711       -14.6591
   6   2.0000      -0.524100       -14.2615
   7   2.0000      -0.438940       -11.9442
   8   2.0000      -0.372496       -10.1361
   9   0.0000       0.091577         2.4919
  10   0.0000       0.121709         3.3119
  11   0.0000       0.155291         4.2257
  12   0.0000       0.169370         4.6088
  13   0.0000       0.195607         5.3227

MULLIKEN ATOMIC CHARGES
-----------------------
   0 C :    0.001653
   1 O :   -0.000121
   2 H :   -0.000032
   3 H :   -0.003909
   4 H :    0.000511
   5 H :    0.000110
   6 C :   -0.171951
   7 O :   -0.472847
   8 H :    0.308042
   9 H :    0.124148
  10 H :    0.101205
  11 H :    0.113190
Sum of atomic charges:   -0.0000000

LOEWDIN ATOMIC CHARGES
----------------------
   0 C :   -0.002358
   1 O :   -0.000029
   2 H :   -0.000004
   3 H :   -0.003132
   4 H :   -0.001436
   5 H :   -0.000004
   6 C :   -0.372719
   7 O :   -0.079049
   8 H :    0.152964
   9 H :    0.112030
  10 H :    0.102034
  11 H :    0.091704

  Mayer bond orders larger than 0.1
B(  6-C ,  7-O ) :   0.9825 B(  6-C ,  9-H ) :   0.9743 B(  6-C , 10-H ) :   0.9764
B(  6-C , 11-H ) :   0.9734 B(  7-O ,  8-H ) :   0.9058

Dispersion correction           -0.000231342
FINAL SINGLE POINT ENERGY      -115.735436639852

DIPOLE MOMENT
-------------
                                X             Y             Z
Electronic contribution:      0.33449       0.52039      -1.64297
Nuclear contribution   :     -0.10563      -1.08290       1.99881
                        -----------------------------------------
Total Dipole Moment    :      0.22886      -0.56251       0.35583
                        -----------------------------------------
Magnitude (a.u.)       :      0.70385
Magnitude (Debye)      :      1.78906

Rotational constants in cm-1:     4.160589     0.826118     0.794158
Rotational constants in MHz : 124731.324227 24766.396054 23808.266008

                             ****ORCA TERMINATED NORMALLY****
TOTAL RUN TIME: 0 days 0 hours 1 minutes 23 seconds 135 msec
