                         Program Version 4.1.2  - RELEASE  -
|  1> #Run DFT-D3 single point of the dimer
|  2> ! wB97X-D3 def2-TZVP TIGHTSCF CHELPG PMODEL PAL8
|  3>
|  4> %base "20-77_DFT_AB"
|  5>
|  6> %scf
|  7> MaxIter 1000
|  8> end
|  9>
| 10> * xyz 0 1
| 11>   C                      -2.839955            -3.953407            -0.078150
| 12>   O                      -2.008247            -2.946951            0.371114
| 13>   H                      -2.187683            -2.219467            -0.178250
| 14>   H                      -3.058394            -3.772306            -1.120352
| 15>   H                      -2.431864            -4.948480            0.016022
| 16>   H                      -3.792097            -3.920621            0.402216
| 17>   C                      -1.450184            -1.622072            3.478730
| 18>   O                      -0.620804            -2.459296            2.638625
| 19>   H                      -1.236569            -2.930839            2.061761
| 20>   H                      -0.843443            -0.982371            4.031398
| 21>   H                      -2.157079            -1.009784            2.875178
| 22>   H                      -2.096073            -2.239981            4.112396
| 23> *
| 24>
| 25> #Run DFT-D3 single point of the molecule with dimer basis set
| 26> $new_job
| 27> %base "20-77_DFT_A"
| 28> ! wB97X-D3 def2-TZVP TIGHTSCF CHELPG PMODEL
| 29>
| 30> %scf
| 31> MaxIter 1000
| 32> end
| 33>
| 34> * xyz 0 1
| 35>   C                      -2.839955            -3.953407            -0.078150
| 36>   O                      -2.008247            -2.946951            0.371114
| 37>   H                      -2.187683            -2.219467            -0.178250
| 38>   H                      -3.058394            -3.772306            -1.120352
| 39>   H                      -2.431864            -4.948480            0.016022
| 40>   H                      -3.792097            -3.920621            0.402216
| 41>   C                    : -1.450184            -1.622072            3.478730
| 42>   O                    : -0.620804            -2.459296            2.638625
| 43>   H                    : -1.236569            -2.930839            2.061761
| 44>   H                    : -0.843443            -0.982371            4.031398
| 45>   H                    : -2.157079            -1.009784            2.875178
| 46>   H                    : -2.096073            -2.239981            4.112396
| 47> *
| 48>
| 49> #Run DFT-D3 single point of the particle with dimer basis set
| 50> $new_job
| 51> %base "20-77_DFT_B"
| 52> ! wB97X-D3 def2-TZVP TIGHTSCF CHELPG PMODEL
| 53>
| 54> %scf
| 55> MaxIter 1000
| 56> end
| 57>
| 58> * xyz 0 1
| 59>   C                    : -2.839955            -3.953407            -0.078150
| 60>   O                    : -2.008247            -2.946951            0.371114
| 61>   H                    : -2.187683            -2.219467            -0.178250
| 62>   H                    : -3.058394            -3.772306            -1.120352
| 63>   H                    : -2.431864            -4.948480            0.016022
| 64>   H                    : -3.792097            -3.920621            0.402216
| 65>   C                      -1.450184            -1.622072            3.478730
| 66>   O                      -0.620804            -2.459296            2.638625
| 67>   H                      -1.236569            -2.930839            2.061761
| 68>   H                      -0.843443            -0.982371            4.031398
| 69>   H                      -2.157079            -1.009784            2.875178
| 70>   H                      -2.096073            -2.239981            4.112396
| 71> *
| 72>
| 73>                          ****END OF INPUT****
 Total Charge           Charge          ....    0
 Multiplicity           Mult            ....    1
 Number of Electrons    NEL             ....   36
Dispersion correction           -0.001718361
FINAL SINGLE POINT ENERGY      -231.471592042547
Dispersion correction           -0.000207890
FINAL SINGLE POINT ENERGY      -115.732178633608

CARTESIAN COORDINATES (ANGSTROEM)
---------------------------------
  C     -2.839955   -3.953407   -0.078150
  O     -2.008247   -2.946951    0.371114
  H     -2.187683   -2.219467   -0.178250
  H     -3.058394   -3.772306   -1.120352
  H     -2.431864   -4.948480    0.016022
  H     -3.792097   -3.920621    0.402216
  C     -1.450184   -1.622072    3.478730
  O     -0.620804   -2.459296    2.638625
  H     -1.236569   -2.930839    2.061761
  H     -0.843443   -0.982371    4.031398
  H     -2.157079   -1.009784    2.875178
  H     -2.096073   -2.239981    4.112396

 Multiplicity           Mult            ....    1
 Number of Electrons    NEL             ....   18
 Basis Dimension        Dim             ....  172

ORBITAL ENERGIES
----------------

  NO   OCC          E(Eh)            E(eV)
   0   2.0000     -19.232269      -523.3367
   1   2.0000     -10.313394      -280.6417
   2   2.0000      -1.127140       -30.6710
   3   2.0000      -0.798978       -21.7413
   4   2.0000      -0.605944       -16.4886
   5   2.0000      -0.537390       -14.6231
   6   2.0000      -0.526513       -14.3271
   7   2.0000      -0.444621       -12.0987
   8   2.0000      -0.373561       -10.1651
   9   0.0000       0.069090         1.8800
  10   0.0000       0.132841         3.6148
  11   0.0000       0.152258         4.1431
  12   0.0000       0.160939         4.3794
  13   0.0000       0.193893         5.2761

MULLIKEN ATOMIC CHARGES
-----------------------
   0 C :   -0.002692
   1 O :   -0.007405
   2 H :   -0.000942
   3 H :    0.000009
   4 H :    0.000146
   5 H :    0.000073
   6 C :   -0.167957
   7 O :   -0.463709
   8 H :    0.311983
   9 H :    0.126414
  10 H :    0.099499
  11 H :    0.104581
Sum of atomic charges:   -0.0000000

LOEWDIN ATOMIC CHARGES
----------------------
   0 C :   -0.004213
   1 O :   -0.027815
   2 H :   -0.001962
   3 H :   -0.000117
   4 H :   -0.000197
   5 H :   -0.000146
   6 C :   -0.353147
   7 O :   -0.084376
   8 H :    0.181707
   9 H :    0.095070
  10 H :    0.098895
  11 H :    0.096302

  Mayer bond orders larger than 0.1
B(  6-C ,  7-O ) :   0.9970 B(  6-C ,  9-H ) :   0.9753 B(  6-C , 10-H ) :   0.9739
B(  6-C , 11-H ) :   0.9801 B(  7-O ,  8-H ) :   0.9064

Dispersion correction           -0.000237979
FINAL SINGLE POINT ENERGY      -115.734722978595

DIPOLE MOMENT
-------------
                                X             Y             Z
Electronic contribution:      1.27639      -0.94433      -0.88370
Nuclear contribution   :     -1.98434       1.00956       0.88420
                        -----------------------------------------
Total Dipole Moment    :     -0.70795       0.06523       0.00050
                        -----------------------------------------
Magnitude (a.u.)       :      0.71095
Magnitude (Debye)      :      1.80708

Rotational constants in cm-1:     4.291517     0.807967     0.776545
Rotational constants in MHz : 128656.440534 24222.233756 23280.243413

                             ****ORCA TERMINATED NORMALLY****
TOTAL RUN TIME: 0 days 0 hours 1 minutes 1 seconds 643 msec
