                         Program Version 4.1.2  - RELEASE  -
|  1> #Run DFT-D3 single point of the dimer
|  2> ! wB97X-D3 def2-TZVP TIGHTSCF CHELPG PMODEL PAL8
|  3>
|  4> %base "20-95_DFT_AB"
|  5>
|  6> %scf
|  7> MaxIter 1000
|  8> end
|  9>
| 10> * xyz 0 1
| 11>   C                      -5.619514            -0.230082            9.710258
| 12>   O                      -5.919557            0.391140             10.949691
| 13>   H                      -5.148180            1.017697             11.036180
| 14>   H                      -6.402927            -0.922974            9.360529
| 15>   H                      -5.635728            0.617874             8.986753
| 16>   H                      -4.641547            -0.829193            9.755749
| 17>   C                      -6.980682            -3.287969            5.853607
| 18>   O                      -6.599467            -2.790154            7.111817
| 19>   H                      -7.028270            -3.384493            7.749280
| 20>   H                      -7.681012            -4.109412            5.997408
| 21>   H                      -7.493825            -2.515695            5.337518
| 22>   H                      -6.164806            -3.675723            5.310850
| 23> *
| 24>
| 25> #Run DFT-D3 single point of the molecule with dimer basis set
| 26> $new_job
| 27> %base "20-95_DFT_A"
| 28> ! wB97X-D3 def2-TZVP TIGHTSCF CHELPG PMODEL
| 29>
| 30> %scf
| 31> MaxIter 1000
| 32> end
| 33>
| 34> * xyz 0 1
| 35>   C                      -5.619514            -0.230082            9.710258
| 36>   O                      -5.919557            0.391140             10.949691
| 37>   H                      -5.148180            1.017697             11.036180
| 38>   H                      -6.402927            -0.922974            9.360529
| 39>   H                      -5.635728            0.617874             8.986753
| 40>   H                      -4.641547            -0.829193            9.755749
| 41>   C                    : -6.980682            -3.287969            5.853607
| 42>   O                    : -6.599467            -2.790154            7.111817
| 43>   H                    : -7.028270            -3.384493            7.749280
| 44>   H                    : -7.681012            -4.109412            5.997408
| 45>   H                    : -7.493825            -2.515695            5.337518
| 46>   H                    : -6.164806            -3.675723            5.310850
| 47> *
| 48>
| 49> #Run DFT-D3 single point of the particle with dimer basis set
| 50> $new_job
| 51> %base "20-95_DFT_B"
| 52> ! wB97X-D3 def2-TZVP TIGHTSCF CHELPG PMODEL
| 53>
| 54> %scf
| 55> MaxIter 1000
| 56> end
| 57>
| 58> * xyz 0 1
| 59>   C                    : -5.619514            -0.230082            9.710258
| 60>   O                    : -5.919557            0.391140             10.949691
| 61>   H                    : -5.148180            1.017697             11.036180
| 62>   H                    : -6.402927            -0.922974            9.360529
| 63>   H                    : -5.635728            0.617874             8.986753
| 64>   H                    : -4.641547            -0.829193            9.755749
| 65>   C                      -6.980682            -3.287969            5.853607
| 66>   O                      -6.599467            -2.790154            7.111817
| 67>   H                      -7.028270            -3.384493            7.749280
| 68>   H                      -7.681012            -4.109412            5.997408
| 69>   H                      -7.493825            -2.515695            5.337518
| 70>   H                      -6.164806            -3.675723            5.310850
| 71> *
| 72>
| 73>                          ****END OF INPUT****
 Total Charge           Charge          ....    0
 Multiplicity           Mult            ....    1
 Number of Electrons    NEL             ....   36
Dispersion correction           -0.001074434
FINAL SINGLE POINT ENERGY      -231.462347873621
Dispersion correction           -0.000228326
FINAL SINGLE POINT ENERGY      -115.728402824846

CARTESIAN COORDINATES (ANGSTROEM)
---------------------------------
  C     -5.619514   -0.230082    9.710258
  O     -5.919557    0.391140   10.949691
  H     -5.148180    1.017697   11.036180
  H     -6.402927   -0.922974    9.360529
  H     -5.635728    0.617874    8.986753
  H     -4.641547   -0.829193    9.755749
  C     -6.980682   -3.287969    5.853607
  O     -6.599467   -2.790154    7.111817
  H     -7.028270   -3.384493    7.749280
  H     -7.681012   -4.109412    5.997408
  H     -7.493825   -2.515695    5.337518
  H     -6.164806   -3.675723    5.310850

 Multiplicity           Mult            ....    1
 Number of Electrons    NEL             ....   18
 Basis Dimension        Dim             ....  172

ORBITAL ENERGIES
----------------

  NO   OCC          E(Eh)            E(eV)
   0   2.0000     -19.228700      -523.2395
   1   2.0000     -10.303068      -280.3607
   2   2.0000      -1.137878       -30.9632
   3   2.0000      -0.797413       -21.6987
   4   2.0000      -0.612036       -16.6543
   5   2.0000      -0.553823       -15.0703
   6   2.0000      -0.527582       -14.3562
   7   2.0000      -0.432977       -11.7819
   8   2.0000      -0.374631       -10.1942
   9   0.0000       0.095608         2.6016
  10   0.0000       0.114208         3.1078
  11   0.0000       0.158196         4.3047
  12   0.0000       0.185763         5.0549
  13   0.0000       0.203226         5.5301

MULLIKEN ATOMIC CHARGES
-----------------------
   0 C :    0.002668
   1 O :   -0.000074
   2 H :   -0.000009
   3 H :   -0.007031
   4 H :   -0.000564
   5 H :   -0.000595
   6 C :   -0.165818
   7 O :   -0.463757
   8 H :    0.318036
   9 H :    0.095963
  10 H :    0.111925
  11 H :    0.109257
Sum of atomic charges:    0.0000000

LOEWDIN ATOMIC CHARGES
----------------------
   0 C :   -0.003155
   1 O :   -0.000023
   2 H :   -0.000009
   3 H :   -0.004373
   4 H :   -0.000123
   5 H :   -0.000251
   6 C :   -0.379892
   7 O :   -0.074407
   8 H :    0.179210
   9 H :    0.096545
  10 H :    0.095609
  11 H :    0.090868

  Mayer bond orders larger than 0.1
B(  6-C ,  7-O ) :   1.0075 B(  6-C ,  9-H ) :   0.9933 B(  6-C , 10-H ) :   0.9800
B(  6-C , 11-H ) :   0.9723 B(  7-O ,  8-H ) :   0.8998

Dispersion correction           -0.000218011
FINAL SINGLE POINT ENERGY      -115.732411440021

DIPOLE MOMENT
-------------
                                X             Y             Z
Electronic contribution:      0.64115       0.77327       1.44897
Nuclear contribution   :     -1.07639      -1.36635      -1.54451
                        -----------------------------------------
Total Dipole Moment    :     -0.43524      -0.59308      -0.09554
                        -----------------------------------------
Magnitude (a.u.)       :      0.74182
Magnitude (Debye)      :      1.88556

Rotational constants in cm-1:     4.352563     0.853309     0.822277
Rotational constants in MHz : 130486.553249 25581.571916 24651.229560

                             ****ORCA TERMINATED NORMALLY****
TOTAL RUN TIME: 0 days 0 hours 0 minutes 49 seconds 761 msec
