                         Program Version 4.1.2  - RELEASE  -
|  1> #Run DFT-D3 single point of the dimer
|  2> ! wB97X-D3 def2-TZVP TIGHTSCF  CHELPG PAL8
|  3>
|  4> %base "164_charges"
|  5>
|  6> %scf
|  7> MaxIter 1000
|  8> end
|  9> %output
| 10>   Print[ P_Mayer ] 1
| 11>   Print[ P_NatPop ] 1
| 12>   Print[ P_Hirshfeld ] 1
| 13>   Print[ P_Mulliken ] 1
| 14>   Print [ P_Loewdin ] 1
| 15> end
| 16>
| 17> * xyz 0 1
| 18>   C                      -10.916770           0.075466             -0.303007
| 19>   O                      -9.722043            -0.693363            -0.133890
| 20>   H                      -9.606149            -0.505505            0.780545
| 21>   H                      -10.700667           1.102500             -0.691226
| 22>   H                      -11.643613           -0.361264            -1.045425
| 23>   H                      -11.482279           0.300125             0.650516
| 24> *
| 25>
| 26>                          ****END OF INPUT****

CARTESIAN COORDINATES (ANGSTROEM)
---------------------------------
  C    -10.916770    0.075466   -0.303007
  O     -9.722043   -0.693363   -0.133890
  H     -9.606149   -0.505505    0.780545
  H    -10.700667    1.102500   -0.691226
  H    -11.643613   -0.361264   -1.045425
  H    -11.482279    0.300125    0.650516

 Total Charge           Charge          ....    0
 Multiplicity           Mult            ....    1
 Number of Electrons    NEL             ....   18
 Basis Dimension        Dim             ....   86

ORBITAL ENERGIES
----------------

  NO   OCC          E(Eh)            E(eV)
   0   2.0000     -19.237157      -523.4697
   1   2.0000     -10.326041      -280.9859
   2   2.0000      -1.146687       -31.2029
   3   2.0000      -0.787810       -21.4374
   4   2.0000      -0.612165       -16.6579
   5   2.0000      -0.529969       -14.4212
   6   2.0000      -0.525344       -14.2953
   7   2.0000      -0.448997       -12.2178
   8   2.0000      -0.375469       -10.2170
   9   0.0000       0.112659         3.0656
  10   0.0000       0.150357         4.0914
  11   0.0000       0.190104         5.1730
  12   0.0000       0.202397         5.5075
  13   0.0000       0.235362         6.4045

MULLIKEN ATOMIC CHARGES
-----------------------
   0 C :   -0.203578
   1 O :   -0.443748
   2 H :    0.314062
   3 H :    0.103973
   4 H :    0.121442
   5 H :    0.107848
Sum of atomic charges:   -0.0000000

LOEWDIN ATOMIC CHARGES
----------------------
   0 C :   -0.398989
   1 O :   -0.073860
   2 H :    0.163093
   3 H :    0.097904
   4 H :    0.109778
   5 H :    0.102073

  Mayer bond orders larger than 0.1
B(  0-C ,  1-O ) :   1.0084 B(  0-C ,  3-H ) :   0.9701 B(  0-C ,  4-H ) :   0.9727
B(  0-C ,  5-H ) :   0.9788 B(  1-O ,  2-H ) :   0.9066

Dispersion correction           -0.000254751
FINAL SINGLE POINT ENERGY      -115.727776804956

DIPOLE MOMENT
-------------
                                X             Y             Z
Electronic contribution:      1.66000      -1.22020       0.08596
Nuclear contribution   :     -2.03770       1.62671       0.42733
                        -----------------------------------------
Total Dipole Moment    :     -0.37770       0.40651       0.51329
                        -----------------------------------------
Magnitude (a.u.)       :      0.75589
Magnitude (Debye)      :      1.92133

Rotational constants in cm-1:     4.182111     0.814230     0.778028
Rotational constants in MHz : 125376.544083 24409.987934 23324.691264

                             ****ORCA TERMINATED NORMALLY****
TOTAL RUN TIME: 0 days 0 hours 0 minutes 41 seconds 706 msec
