                         Program Version 4.1.2  - RELEASE  -
|  1> #Run DFT-D3 single point of the dimer
|  2> ! wB97X-D3 def2-TZVP TIGHTSCF CHELPG PMODEL PAL8
|  3>
|  4> %base "10-196_DFT_AB"
|  5>
|  6> %scf
|  7> MaxIter 1000
|  8> end
|  9>
| 10> * xyz 0 1
| 11>   C                      3.420418             5.845011             0.660086
| 12>   O                      2.429957             6.029736             -0.337725
| 13>   H                      1.566711             5.596374             -0.098511
| 14>   H                      4.368750             5.492269             0.227254
| 15>   H                      3.701800             6.816077             1.027696
| 16>   H                      2.997500             5.226315             1.460489
| 17>   C                      -0.763538            4.518089             0.464524
| 18>   O                      0.245991             4.951680             1.330421
| 19>   H                      -0.039478            4.728302             2.232446
| 20>   H                      -1.715412            5.158409             0.546746
| 21>   H                      -0.446664            4.588392             -0.586874
| 22>   H                      -1.020754            3.449014             0.638337
| 23> *
| 24>
| 25> #Run DFT-D3 single point of the molecule with dimer basis set
| 26> $new_job
| 27> %base "10-196_DFT_A"
| 28> ! wB97X-D3 def2-TZVP TIGHTSCF CHELPG PMODEL
| 29>
| 30> %scf
| 31> MaxIter 1000
| 32> end
| 33>
| 34> * xyz 0 1
| 35>   C                      3.420418             5.845011             0.660086
| 36>   O                      2.429957             6.029736             -0.337725
| 37>   H                      1.566711             5.596374             -0.098511
| 38>   H                      4.368750             5.492269             0.227254
| 39>   H                      3.701800             6.816077             1.027696
| 40>   H                      2.997500             5.226315             1.460489
| 41>   C                    : -0.763538            4.518089             0.464524
| 42>   O                    : 0.245991             4.951680             1.330421
| 43>   H                    : -0.039478            4.728302             2.232446
| 44>   H                    : -1.715412            5.158409             0.546746
| 45>   H                    : -0.446664            4.588392             -0.586874
| 46>   H                    : -1.020754            3.449014             0.638337
| 47> *
| 48>
| 49> #Run DFT-D3 single point of the particle with dimer basis set
| 50> $new_job
| 51> %base "10-196_DFT_B"
| 52> ! wB97X-D3 def2-TZVP TIGHTSCF CHELPG PMODEL
| 53>
| 54> %scf
| 55> MaxIter 1000
| 56> end
| 57>
| 58> * xyz 0 1
| 59>   C                    : 3.420418             5.845011             0.660086
| 60>   O                    : 2.429957             6.029736             -0.337725
| 61>   H                    : 1.566711             5.596374             -0.098511
| 62>   H                    : 4.368750             5.492269             0.227254
| 63>   H                    : 3.701800             6.816077             1.027696
| 64>   H                    : 2.997500             5.226315             1.460489
| 65>   C                      -0.763538            4.518089             0.464524
| 66>   O                      0.245991             4.951680             1.330421
| 67>   H                      -0.039478            4.728302             2.232446
| 68>   H                      -1.715412            5.158409             0.546746
| 69>   H                      -0.446664            4.588392             -0.586874
| 70>   H                      -1.020754            3.449014             0.638337
| 71> *
| 72>
| 73>                          ****END OF INPUT****
 Total Charge           Charge          ....    0
 Multiplicity           Mult            ....    1
 Number of Electrons    NEL             ....   36
Dispersion correction           -0.001842816
FINAL SINGLE POINT ENERGY      -231.472000338810
Dispersion correction           -0.000248258
FINAL SINGLE POINT ENERGY      -115.731113173815

CARTESIAN COORDINATES (ANGSTROEM)
---------------------------------
  C      3.420418    5.845011    0.660086
  O      2.429957    6.029736   -0.337725
  H      1.566711    5.596374   -0.098511
  H      4.368750    5.492269    0.227254
  H      3.701800    6.816077    1.027696
  H      2.997500    5.226315    1.460489
  C     -0.763538    4.518089    0.464524
  O      0.245991    4.951680    1.330421
  H     -0.039478    4.728302    2.232446
  H     -1.715412    5.158409    0.546746
  H     -0.446664    4.588392   -0.586874
  H     -1.020754    3.449014    0.638337

 Multiplicity           Mult            ....    1
 Number of Electrons    NEL             ....   18
 Basis Dimension        Dim             ....  172

ORBITAL ENERGIES
----------------

  NO   OCC          E(Eh)            E(eV)
   0   2.0000     -19.235064      -523.4127
   1   2.0000     -10.320879      -280.8454
   2   2.0000      -1.141598       -31.0645
   3   2.0000      -0.788544       -21.4574
   4   2.0000      -0.610660       -16.6169
   5   2.0000      -0.538714       -14.6591
   6   2.0000      -0.530648       -14.4397
   7   2.0000      -0.431622       -11.7450
   8   2.0000      -0.373398       -10.1607
   9   0.0000       0.101033         2.7492
  10   0.0000       0.124039         3.3753
  11   0.0000       0.149494         4.0679
  12   0.0000       0.182978         4.9791
  13   0.0000       0.199018         5.4156

MULLIKEN ATOMIC CHARGES
-----------------------
   0 C :    0.004986
   1 O :    0.000355
   2 H :   -0.004673
   3 H :   -0.000162
   4 H :   -0.000460
   5 H :   -0.008038
   6 C :   -0.168147
   7 O :   -0.454185
   8 H :    0.313981
   9 H :    0.093860
  10 H :    0.121231
  11 H :    0.101252
Sum of atomic charges:   -0.0000000

LOEWDIN ATOMIC CHARGES
----------------------
   0 C :   -0.006937
   1 O :   -0.003248
   2 H :   -0.023349
   3 H :   -0.000057
   4 H :   -0.000097
   5 H :   -0.005932
   6 C :   -0.405108
   7 O :   -0.041840
   8 H :    0.178904
   9 H :    0.101232
  10 H :    0.110030
  11 H :    0.096401

  Mayer bond orders larger than 0.1
B(  6-C ,  7-O ) :   0.9981 B(  6-C ,  9-H ) :   0.9689 B(  6-C , 10-H ) :   0.9764
B(  6-C , 11-H ) :   0.9748 B(  7-O ,  8-H ) :   0.8943

Dispersion correction           -0.000248401
FINAL SINGLE POINT ENERGY      -115.735219269235

DIPOLE MOMENT
-------------
                                X             Y             Z
Electronic contribution:      1.47849       0.61455       1.04697
Nuclear contribution   :     -2.02199      -0.93075      -0.81892
                        -----------------------------------------
Total Dipole Moment    :     -0.54350      -0.31619       0.22805
                        -----------------------------------------
Magnitude (a.u.)       :      0.66886
Magnitude (Debye)      :      1.70010

Rotational constants in cm-1:     4.139513     0.834111     0.809100
Rotational constants in MHz : 124099.487756 25006.015487 24256.198036

                             ****ORCA TERMINATED NORMALLY****
TOTAL RUN TIME: 0 days 0 hours 1 minutes 8 seconds 446 msec
