                         Program Version 4.1.2  - RELEASE  -
|  1> #Run DFT-D3 single point of the dimer
|  2> ! wB97X-D3 def2-TZVP TIGHTSCF CHELPG PMODEL PAL8
|  3>
|  4> %base "7-140_DFT_AB"
|  5>
|  6> %scf
|  7> MaxIter 1000
|  8> end
|  9>
| 10> * xyz 0 1
| 11>   C                      -0.791871            0.813297             -8.061991
| 12>   O                      0.599258             1.023185             -8.096228
| 13>   H                      0.860506             1.887036             -7.719944
| 14>   H                      -1.410076            1.673867             -8.405220
| 15>   H                      -1.066712            -0.003070            -8.757313
| 16>   H                      -1.275459            0.581455             -7.114919
| 17>   C                      -1.555646            5.231252             -6.405208
| 18>   O                      -0.346762            4.541400             -6.399865
| 19>   H                      0.267018             4.970165             -5.812395
| 20>   H                      -1.461585            6.358154             -6.598062
| 21>   H                      -2.193016            4.839029             -7.166690
| 22>   H                      -2.062145            5.051455             -5.484070
| 23> *
| 24>
| 25> #Run DFT-D3 single point of the molecule with dimer basis set
| 26> $new_job
| 27> %base "7-140_DFT_A"
| 28> ! wB97X-D3 def2-TZVP TIGHTSCF CHELPG PMODEL
| 29>
| 30> %scf
| 31> MaxIter 1000
| 32> end
| 33>
| 34> * xyz 0 1
| 35>   C                      -0.791871            0.813297             -8.061991
| 36>   O                      0.599258             1.023185             -8.096228
| 37>   H                      0.860506             1.887036             -7.719944
| 38>   H                      -1.410076            1.673867             -8.405220
| 39>   H                      -1.066712            -0.003070            -8.757313
| 40>   H                      -1.275459            0.581455             -7.114919
| 41>   C                    : -1.555646            5.231252             -6.405208
| 42>   O                    : -0.346762            4.541400             -6.399865
| 43>   H                    : 0.267018             4.970165             -5.812395
| 44>   H                    : -1.461585            6.358154             -6.598062
| 45>   H                    : -2.193016            4.839029             -7.166690
| 46>   H                    : -2.062145            5.051455             -5.484070
| 47> *
| 48>
| 49> #Run DFT-D3 single point of the particle with dimer basis set
| 50> $new_job
| 51> %base "7-140_DFT_B"
| 52> ! wB97X-D3 def2-TZVP TIGHTSCF CHELPG PMODEL
| 53>
| 54> %scf
| 55> MaxIter 1000
| 56> end
| 57>
| 58> * xyz 0 1
| 59>   C                    : -0.791871            0.813297             -8.061991
| 60>   O                    : 0.599258             1.023185             -8.096228
| 61>   H                    : 0.860506             1.887036             -7.719944
| 62>   H                    : -1.410076            1.673867             -8.405220
| 63>   H                    : -1.066712            -0.003070            -8.757313
| 64>   H                    : -1.275459            0.581455             -7.114919
| 65>   C                      -1.555646            5.231252             -6.405208
| 66>   O                      -0.346762            4.541400             -6.399865
| 67>   H                      0.267018             4.970165             -5.812395
| 68>   H                      -1.461585            6.358154             -6.598062
| 69>   H                      -2.193016            4.839029             -7.166690
| 70>   H                      -2.062145            5.051455             -5.484070
| 71> *
| 72>
| 73>                          ****END OF INPUT****
 Total Charge           Charge          ....    0
 Multiplicity           Mult            ....    1
 Number of Electrons    NEL             ....   36
Dispersion correction           -0.001263629
FINAL SINGLE POINT ENERGY      -231.470276694587
Dispersion correction           -0.000281572
FINAL SINGLE POINT ENERGY      -115.732823371773

CARTESIAN COORDINATES (ANGSTROEM)
---------------------------------
  C     -0.791871    0.813297   -8.061991
  O      0.599258    1.023185   -8.096228
  H      0.860506    1.887036   -7.719944
  H     -1.410076    1.673867   -8.405220
  H     -1.066712   -0.003070   -8.757313
  H     -1.275459    0.581455   -7.114919
  C     -1.555646    5.231252   -6.405208
  O     -0.346762    4.541400   -6.399865
  H      0.267018    4.970165   -5.812395
  H     -1.461585    6.358154   -6.598062
  H     -2.193016    4.839029   -7.166690
  H     -2.062145    5.051455   -5.484070

 Multiplicity           Mult            ....    1
 Number of Electrons    NEL             ....   18
 Basis Dimension        Dim             ....  172

ORBITAL ENERGIES
----------------

  NO   OCC          E(Eh)            E(eV)
   0   2.0000     -19.229087      -523.2501
   1   2.0000     -10.310621      -280.5663
   2   2.0000      -1.143914       -31.1275
   3   2.0000      -0.797783       -21.7088
   4   2.0000      -0.613473       -16.6935
   5   2.0000      -0.545842       -14.8531
   6   2.0000      -0.532929       -14.5017
   7   2.0000      -0.429590       -11.6897
   8   2.0000      -0.373149       -10.1539
   9   0.0000       0.095462         2.5977
  10   0.0000       0.121849         3.3157
  11   0.0000       0.152162         4.1405
  12   0.0000       0.184643         5.0244
  13   0.0000       0.186363         5.0712

MULLIKEN ATOMIC CHARGES
-----------------------
   0 C :   -0.000279
   1 O :    0.000514
   2 H :   -0.002853
   3 H :   -0.000625
   4 H :   -0.000098
   5 H :   -0.000232
   6 C :   -0.160240
   7 O :   -0.469490
   8 H :    0.313893
   9 H :    0.093800
  10 H :    0.121204
  11 H :    0.104406
Sum of atomic charges:   -0.0000000

LOEWDIN ATOMIC CHARGES
----------------------
   0 C :   -0.001229
   1 O :   -0.000115
   2 H :   -0.002953
   3 H :   -0.000237
   4 H :   -0.000025
   5 H :   -0.000116
   6 C :   -0.400406
   7 O :   -0.054323
   8 H :    0.164840
   9 H :    0.102498
  10 H :    0.103031
  11 H :    0.089035

  Mayer bond orders larger than 0.1
B(  6-C ,  7-O ) :   0.9954 B(  6-C ,  9-H ) :   0.9719 B(  6-C , 10-H ) :   0.9738
B(  6-C , 11-H ) :   0.9802 B(  7-O ,  8-H ) :   0.8985

Dispersion correction           -0.000237677
FINAL SINGLE POINT ENERGY      -115.734287462801

DIPOLE MOMENT
-------------
                                X             Y             Z
Electronic contribution:      1.53406      -1.00469      -0.07591
Nuclear contribution   :     -1.62275       1.52833       0.44872
                        -----------------------------------------
Total Dipole Moment    :     -0.08869       0.52364       0.37281
                        -----------------------------------------
Magnitude (a.u.)       :      0.64889
Magnitude (Debye)      :      1.64935

Rotational constants in cm-1:     4.351750     0.848086     0.821047
Rotational constants in MHz : 130462.177985 25424.990898 24614.378657

                             ****ORCA TERMINATED NORMALLY****
TOTAL RUN TIME: 0 days 0 hours 1 minutes 2 seconds 689 msec
