                         Program Version 4.1.2  - RELEASE  -
|  1> #Run DFT-D3 single point of the dimer
|  2> ! wB97X-D3 def2-TZVP TIGHTSCF CHELPG PMODEL PAL8
|  3>
|  4> %base "10-174_DFT_AB"
|  5>
|  6> %scf
|  7> MaxIter 1000
|  8> end
|  9>
| 10> * xyz 0 1
| 11>   C                      -4.165208            -6.874129            5.786169
| 12>   O                      -4.507028            -5.521137            6.047845
| 13>   H                      -3.898203            -4.878910            5.624120
| 14>   H                      -4.916415            -7.543379            6.206603
| 15>   H                      -4.069517            -7.060152            4.748270
| 16>   H                      -3.136415            -7.146011            6.180695
| 17>   C                      -0.976261            -4.778894            3.075659
| 18>   O                      -1.981688            -4.680600            4.052134
| 19>   H                      -2.180852            -3.778540            4.143792
| 20>   H                      -0.078852            -4.236185            3.416926
| 21>   H                      -0.658904            -5.813757            2.888926
| 22>   H                      -1.308365            -4.289112            2.135208
| 23> *
| 24>
| 25> #Run DFT-D3 single point of the molecule with dimer basis set
| 26> $new_job
| 27> %base "10-174_DFT_A"
| 28> ! wB97X-D3 def2-TZVP TIGHTSCF CHELPG PMODEL
| 29>
| 30> %scf
| 31> MaxIter 1000
| 32> end
| 33>
| 34> * xyz 0 1
| 35>   C                      -4.165208            -6.874129            5.786169
| 36>   O                      -4.507028            -5.521137            6.047845
| 37>   H                      -3.898203            -4.878910            5.624120
| 38>   H                      -4.916415            -7.543379            6.206603
| 39>   H                      -4.069517            -7.060152            4.748270
| 40>   H                      -3.136415            -7.146011            6.180695
| 41>   C                    : -0.976261            -4.778894            3.075659
| 42>   O                    : -1.981688            -4.680600            4.052134
| 43>   H                    : -2.180852            -3.778540            4.143792
| 44>   H                    : -0.078852            -4.236185            3.416926
| 45>   H                    : -0.658904            -5.813757            2.888926
| 46>   H                    : -1.308365            -4.289112            2.135208
| 47> *
| 48>
| 49> #Run DFT-D3 single point of the particle with dimer basis set
| 50> $new_job
| 51> %base "10-174_DFT_B"
| 52> ! wB97X-D3 def2-TZVP TIGHTSCF CHELPG PMODEL
| 53>
| 54> %scf
| 55> MaxIter 1000
| 56> end
| 57>
| 58> * xyz 0 1
| 59>   C                    : -4.165208            -6.874129            5.786169
| 60>   O                    : -4.507028            -5.521137            6.047845
| 61>   H                    : -3.898203            -4.878910            5.624120
| 62>   H                    : -4.916415            -7.543379            6.206603
| 63>   H                    : -4.069517            -7.060152            4.748270
| 64>   H                    : -3.136415            -7.146011            6.180695
| 65>   C                      -0.976261            -4.778894            3.075659
| 66>   O                      -1.981688            -4.680600            4.052134
| 67>   H                      -2.180852            -3.778540            4.143792
| 68>   H                      -0.078852            -4.236185            3.416926
| 69>   H                      -0.658904            -5.813757            2.888926
| 70>   H                      -1.308365            -4.289112            2.135208
| 71> *
| 72>
| 73>                          ****END OF INPUT****
 Total Charge           Charge          ....    0
 Multiplicity           Mult            ....    1
 Number of Electrons    NEL             ....   36
Dispersion correction           -0.001576825
FINAL SINGLE POINT ENERGY      -231.471921015745
Dispersion correction           -0.000257692
FINAL SINGLE POINT ENERGY      -115.733454478615

CARTESIAN COORDINATES (ANGSTROEM)
---------------------------------
  C     -4.165208   -6.874129    5.786169
  O     -4.507028   -5.521137    6.047845
  H     -3.898203   -4.878910    5.624120
  H     -4.916415   -7.543379    6.206603
  H     -4.069517   -7.060152    4.748270
  H     -3.136415   -7.146011    6.180695
  C     -0.976261   -4.778894    3.075659
  O     -1.981688   -4.680600    4.052134
  H     -2.180852   -3.778540    4.143792
  H     -0.078852   -4.236185    3.416926
  H     -0.658904   -5.813757    2.888926
  H     -1.308365   -4.289112    2.135208

 Multiplicity           Mult            ....    1
 Number of Electrons    NEL             ....   18
 Basis Dimension        Dim             ....  172

ORBITAL ENERGIES
----------------

  NO   OCC          E(Eh)            E(eV)
   0   2.0000     -19.227696      -523.2122
   1   2.0000     -10.316316      -280.7212
   2   2.0000      -1.146794       -31.2059
   3   2.0000      -0.795257       -21.6400
   4   2.0000      -0.615521       -16.7492
   5   2.0000      -0.541466       -14.7340
   6   2.0000      -0.532437       -14.4883
   7   2.0000      -0.435848       -11.8600
   8   2.0000      -0.372046       -10.1239
   9   0.0000       0.099876         2.7178
  10   0.0000       0.125400         3.4123
  11   0.0000       0.152276         4.1436
  12   0.0000       0.188424         5.1273
  13   0.0000       0.199459         5.4276

MULLIKEN ATOMIC CHARGES
-----------------------
   0 C :    0.006343
   1 O :    0.000181
   2 H :   -0.006783
   3 H :   -0.000283
   4 H :   -0.004693
   5 H :   -0.002366
   6 C :   -0.161492
   7 O :   -0.453917
   8 H :    0.309249
   9 H :    0.097336
  10 H :    0.119785
  11 H :    0.096639
Sum of atomic charges:    0.0000000

LOEWDIN ATOMIC CHARGES
----------------------
   0 C :   -0.005295
   1 O :   -0.000998
   2 H :   -0.010013
   3 H :   -0.000059
   4 H :   -0.001759
   5 H :   -0.000832
   6 C :   -0.390129
   7 O :   -0.043377
   8 H :    0.151438
   9 H :    0.095098
  10 H :    0.109226
  11 H :    0.096700

  Mayer bond orders larger than 0.1
B(  6-C ,  7-O ) :   0.9912 B(  6-C ,  9-H ) :   0.9775 B(  6-C , 10-H ) :   0.9735
B(  6-C , 11-H ) :   0.9775 B(  7-O ,  8-H ) :   0.9036

Dispersion correction           -0.000224851
FINAL SINGLE POINT ENERGY      -115.734999337342

DIPOLE MOMENT
-------------
                                X             Y             Z
Electronic contribution:     -1.33102      -0.09622       1.26748
Nuclear contribution   :      1.61263       0.63455      -1.59115
                        -----------------------------------------
Total Dipole Moment    :      0.28161       0.53832      -0.32367
                        -----------------------------------------
Magnitude (a.u.)       :      0.68837
Magnitude (Debye)      :      1.74970

Rotational constants in cm-1:     4.277171     0.841868     0.810527
Rotational constants in MHz : 128226.348281 25238.577080 24299.002071

                             ****ORCA TERMINATED NORMALLY****
TOTAL RUN TIME: 0 days 0 hours 1 minutes 3 seconds 852 msec
