                         Program Version 4.1.2  - RELEASE  -
|  1> #Run DFT-D3 single point of the dimer
|  2> ! wB97X-D3 def2-TZVP TIGHTSCF CHELPG PMODEL PAL8
|  3>
|  4> %base "1-171_DFT_AB"
|  5>
|  6> %scf
|  7> MaxIter 1000
|  8> end
|  9>
| 10> * xyz 0 1
| 11>   C                      -5.817098            5.117289             0.959725
| 12>   O                      -5.056655            4.313537             0.051820
| 13>   H                      -5.327587            3.399154             0.011948
| 14>   H                      -5.612948            6.226188             0.834569
| 15>   H                      -6.906491            4.974172             0.815594
| 16>   H                      -5.504647            4.884335             1.969630
| 17>   C                      -7.383524            3.060164             -0.078590
| 18>   O                      -8.585551            2.833917             0.656873
| 19>   H                      -9.181825            3.527931             0.406084
| 20>   H                      -7.269240            2.349186             -0.874769
| 21>   H                      -7.253227            4.048759             -0.503714
| 22>   H                      -6.526529            2.898875             0.498537
| 23> *
| 24>
| 25> #Run DFT-D3 single point of the molecule with dimer basis set
| 26> $new_job
| 27> %base "1-171_DFT_A"
| 28> ! wB97X-D3 def2-TZVP TIGHTSCF CHELPG PMODEL
| 29>
| 30> %scf
| 31> MaxIter 1000
| 32> end
| 33>
| 34> * xyz 0 1
| 35>   C                      -5.817098            5.117289             0.959725
| 36>   O                      -5.056655            4.313537             0.051820
| 37>   H                      -5.327587            3.399154             0.011948
| 38>   H                      -5.612948            6.226188             0.834569
| 39>   H                      -6.906491            4.974172             0.815594
| 40>   H                      -5.504647            4.884335             1.969630
| 41>   C                    : -7.383524            3.060164             -0.078590
| 42>   O                    : -8.585551            2.833917             0.656873
| 43>   H                    : -9.181825            3.527931             0.406084
| 44>   H                    : -7.269240            2.349186             -0.874769
| 45>   H                    : -7.253227            4.048759             -0.503714
| 46>   H                    : -6.526529            2.898875             0.498537
| 47> *
| 48>
| 49> #Run DFT-D3 single point of the particle with dimer basis set
| 50> $new_job
| 51> %base "1-171_DFT_B"
| 52> ! wB97X-D3 def2-TZVP TIGHTSCF CHELPG PMODEL
| 53>
| 54> %scf
| 55> MaxIter 1000
| 56> end
| 57>
| 58> * xyz 0 1
| 59>   C                    : -5.817098            5.117289             0.959725
| 60>   O                    : -5.056655            4.313537             0.051820
| 61>   H                    : -5.327587            3.399154             0.011948
| 62>   H                    : -5.612948            6.226188             0.834569
| 63>   H                    : -6.906491            4.974172             0.815594
| 64>   H                    : -5.504647            4.884335             1.969630
| 65>   C                      -7.383524            3.060164             -0.078590
| 66>   O                      -8.585551            2.833917             0.656873
| 67>   H                      -9.181825            3.527931             0.406084
| 68>   H                      -7.269240            2.349186             -0.874769
| 69>   H                      -7.253227            4.048759             -0.503714
| 70>   H                      -6.526529            2.898875             0.498537
| 71> *
| 72>
| 73>                          ****END OF INPUT****
 Total Charge           Charge          ....    0
 Multiplicity           Mult            ....    1
 Number of Electrons    NEL             ....   36
Dispersion correction           -0.002101721
FINAL SINGLE POINT ENERGY      -231.438924233178
Dispersion correction           -0.000265335
FINAL SINGLE POINT ENERGY      -115.733992424558

CARTESIAN COORDINATES (ANGSTROEM)
---------------------------------
  C     -5.817098    5.117289    0.959725
  O     -5.056655    4.313537    0.051820
  H     -5.327587    3.399154    0.011948
  H     -5.612948    6.226188    0.834569
  H     -6.906491    4.974172    0.815594
  H     -5.504647    4.884335    1.969630
  C     -7.383524    3.060164   -0.078590
  O     -8.585551    2.833917    0.656873
  H     -9.181825    3.527931    0.406084
  H     -7.269240    2.349186   -0.874769
  H     -7.253227    4.048759   -0.503714
  H     -6.526529    2.898875    0.498537

 Multiplicity           Mult            ....    1
 Number of Electrons    NEL             ....   18
 Basis Dimension        Dim             ....  172

ORBITAL ENERGIES
----------------

  NO   OCC          E(Eh)            E(eV)
   0   2.0000     -19.232190      -523.3345
   1   2.0000     -10.305228      -280.4195
   2   2.0000      -1.136195       -30.9174
   3   2.0000      -0.805553       -21.9202
   4   2.0000      -0.613197       -16.6859
   5   2.0000      -0.537425       -14.6241
   6   2.0000      -0.531225       -14.4554
   7   2.0000      -0.442096       -12.0300
   8   2.0000      -0.375324       -10.2131
   9   0.0000       0.092830         2.5260
  10   0.0000       0.119871         3.2619
  11   0.0000       0.155764         4.2386
  12   0.0000       0.174761         4.7555
  13   0.0000       0.195559         5.3214

MULLIKEN ATOMIC CHARGES
-----------------------
   0 C :   -0.005708
   1 O :   -0.003585
   2 H :   -0.001285
   3 H :    0.000521
   4 H :    0.002144
   5 H :   -0.000609
   6 C :   -0.157216
   7 O :   -0.469989
   8 H :    0.314772
   9 H :    0.108459
  10 H :    0.101860
  11 H :    0.110635
Sum of atomic charges:   -0.0000000

LOEWDIN ATOMIC CHARGES
----------------------
   0 C :   -0.047172
   1 O :   -0.021992
   2 H :   -0.041090
   3 H :   -0.000486
   4 H :   -0.026340
   5 H :   -0.001141
   6 C :   -0.310429
   7 O :   -0.069425
   8 H :    0.163972
   9 H :    0.096997
  10 H :    0.125651
  11 H :    0.131455

  Mayer bond orders larger than 0.1
B(  6-C ,  7-O ) :   1.0072 B(  6-C ,  9-H ) :   0.9767 B(  6-C , 10-H ) :   0.9850
B(  6-C , 11-H ) :   0.9766 B(  7-O ,  8-H ) :   0.9046

Dispersion correction           -0.000253110
FINAL SINGLE POINT ENERGY      -115.732487088648

DIPOLE MOMENT
-------------
                                X             Y             Z
Electronic contribution:     -1.56187      -0.36430       1.05478
Nuclear contribution   :      1.67235       0.90102      -1.50338
                        -----------------------------------------
Total Dipole Moment    :      0.11049       0.53672      -0.44861
                        -----------------------------------------
Magnitude (a.u.)       :      0.70818
Magnitude (Debye)      :      1.80006

Rotational constants in cm-1:     4.603411     0.817817     0.785823
Rotational constants in MHz : 138006.775383 24517.527879 23558.366397

                             ****ORCA TERMINATED NORMALLY****
TOTAL RUN TIME: 0 days 0 hours 6 minutes 0 seconds 665 msec
