                         Program Version 4.1.2  - RELEASE  -
|  1> #Run DFT-D3 single point of the dimer
|  2> ! wB97X-D3 def2-TZVP TIGHTSCF CHELPG PMODEL PAL8
|  3>
|  4> %base "22-34_DFT_AB"
|  5>
|  6> %scf
|  7> MaxIter 1000
|  8> end
|  9>
| 10> * xyz 0 1
| 11>   C                      -7.103731            6.653923             -1.669574
| 12>   O                      -6.894566            5.210805             -1.789627
| 13>   H                      -7.334692            4.689197             -1.072243
| 14>   H                      -8.194465            6.918869             -1.815733
| 15>   H                      -6.801057            7.072376             -0.661411
| 16>   H                      -6.560077            7.160748             -2.438667
| 17>   C                      -9.900357            2.853123             -1.111949
| 18>   O                      -8.766684            3.144909             -0.341812
| 19>   H                      -8.696717            2.494082             0.361125
| 20>   H                      -9.710659            2.398470             -2.115626
| 21>   H                      -10.564443           2.097338             -0.666892
| 22>   H                      -10.546540           3.699203             -1.270643
| 23> *
| 24>
| 25> #Run DFT-D3 single point of the molecule with dimer basis set
| 26> $new_job
| 27> %base "22-34_DFT_A"
| 28> ! wB97X-D3 def2-TZVP TIGHTSCF CHELPG PMODEL
| 29>
| 30> %scf
| 31> MaxIter 1000
| 32> end
| 33>
| 34> * xyz 0 1
| 35>   C                      -7.103731            6.653923             -1.669574
| 36>   O                      -6.894566            5.210805             -1.789627
| 37>   H                      -7.334692            4.689197             -1.072243
| 38>   H                      -8.194465            6.918869             -1.815733
| 39>   H                      -6.801057            7.072376             -0.661411
| 40>   H                      -6.560077            7.160748             -2.438667
| 41>   C                    : -9.900357            2.853123             -1.111949
| 42>   O                    : -8.766684            3.144909             -0.341812
| 43>   H                    : -8.696717            2.494082             0.361125
| 44>   H                    : -9.710659            2.398470             -2.115626
| 45>   H                    : -10.564443           2.097338             -0.666892
| 46>   H                    : -10.546540           3.699203             -1.270643
| 47> *
| 48>
| 49> #Run DFT-D3 single point of the particle with dimer basis set
| 50> $new_job
| 51> %base "22-34_DFT_B"
| 52> ! wB97X-D3 def2-TZVP TIGHTSCF CHELPG PMODEL
| 53>
| 54> %scf
| 55> MaxIter 1000
| 56> end
| 57>
| 58> * xyz 0 1
| 59>   C                    : -7.103731            6.653923             -1.669574
| 60>   O                    : -6.894566            5.210805             -1.789627
| 61>   H                    : -7.334692            4.689197             -1.072243
| 62>   H                    : -8.194465            6.918869             -1.815733
| 63>   H                    : -6.801057            7.072376             -0.661411
| 64>   H                    : -6.560077            7.160748             -2.438667
| 65>   C                      -9.900357            2.853123             -1.111949
| 66>   O                      -8.766684            3.144909             -0.341812
| 67>   H                      -8.696717            2.494082             0.361125
| 68>   H                      -9.710659            2.398470             -2.115626
| 69>   H                      -10.564443           2.097338             -0.666892
| 70>   H                      -10.546540           3.699203             -1.270643
| 71> *
| 72>
| 73>                          ****END OF INPUT****
 Total Charge           Charge          ....    0
 Multiplicity           Mult            ....    1
 Number of Electrons    NEL             ....   36
Dispersion correction           -0.001518642
FINAL SINGLE POINT ENERGY      -231.471785789073
Dispersion correction           -0.000295650
FINAL SINGLE POINT ENERGY      -115.732044558545

CARTESIAN COORDINATES (ANGSTROEM)
---------------------------------
  C     -7.103731    6.653923   -1.669574
  O     -6.894566    5.210805   -1.789627
  H     -7.334692    4.689197   -1.072243
  H     -8.194465    6.918869   -1.815733
  H     -6.801057    7.072376   -0.661411
  H     -6.560077    7.160748   -2.438667
  C     -9.900357    2.853123   -1.111949
  O     -8.766684    3.144909   -0.341812
  H     -8.696717    2.494082    0.361125
  H     -9.710659    2.398470   -2.115626
  H    -10.564443    2.097338   -0.666892
  H    -10.546540    3.699203   -1.270643

 Multiplicity           Mult            ....    1
 Number of Electrons    NEL             ....   18
 Basis Dimension        Dim             ....  172

ORBITAL ENERGIES
----------------

  NO   OCC          E(Eh)            E(eV)
   0   2.0000     -19.235196      -523.4163
   1   2.0000     -10.314013      -280.6586
   2   2.0000      -1.142109       -31.0784
   3   2.0000      -0.797506       -21.7012
   4   2.0000      -0.619983       -16.8706
   5   2.0000      -0.538693       -14.6586
   6   2.0000      -0.528168       -14.3722
   7   2.0000      -0.431188       -11.7332
   8   2.0000      -0.375912       -10.2291
   9   0.0000       0.097233         2.6458
  10   0.0000       0.118212         3.2167
  11   0.0000       0.148943         4.0530
  12   0.0000       0.187443         5.1006
  13   0.0000       0.196110         5.3364

MULLIKEN ATOMIC CHARGES
-----------------------
   0 C :   -0.000160
   1 O :   -0.000289
   2 H :   -0.007499
   3 H :   -0.000037
   4 H :    0.000011
   5 H :   -0.000044
   6 C :   -0.175315
   7 O :   -0.460477
   8 H :    0.318918
   9 H :    0.101151
  10 H :    0.105117
  11 H :    0.118623
Sum of atomic charges:    0.0000000

LOEWDIN ATOMIC CHARGES
----------------------
   0 C :   -0.000410
   1 O :   -0.002090
   2 H :   -0.023217
   3 H :   -0.000024
   4 H :   -0.000010
   5 H :   -0.000009
   6 C :   -0.402937
   7 O :   -0.042928
   8 H :    0.173302
   9 H :    0.100803
  10 H :    0.098851
  11 H :    0.098669

  Mayer bond orders larger than 0.1
B(  6-C ,  7-O ) :   1.0098 B(  6-C ,  9-H ) :   0.9717 B(  6-C , 10-H ) :   0.9785
B(  6-C , 11-H ) :   0.9760 B(  7-O ,  8-H ) :   0.8959

Dispersion correction           -0.000263408
FINAL SINGLE POINT ENERGY      -115.733066110663

DIPOLE MOMENT
-------------
                                X             Y             Z
Electronic contribution:      1.62819       0.58640       1.00651
Nuclear contribution   :     -2.04777      -1.13752      -0.81790
                        -----------------------------------------
Total Dipole Moment    :     -0.41957      -0.55112       0.18861
                        -----------------------------------------
Magnitude (a.u.)       :      0.71788
Magnitude (Debye)      :      1.82470

Rotational constants in cm-1:     4.469201     0.825005     0.799093
Rotational constants in MHz : 133983.261519 24733.030876 23956.218226

                             ****ORCA TERMINATED NORMALLY****
TOTAL RUN TIME: 0 days 0 hours 0 minutes 59 seconds 649 msec
