                         Program Version 4.1.2  - RELEASE  -
|  1> #Run DFT-D3 single point of the dimer
|  2> ! wB97X-D3 def2-TZVP TIGHTSCF CHELPG PMODEL PAL8
|  3>
|  4> %base "16-4_DFT_AB"
|  5>
|  6> %scf
|  7> MaxIter 1000
|  8> end
|  9>
| 10> * xyz 0 1
| 11>   C                      -3.613576            2.949622             3.934506
| 12>   O                      -3.601508            3.698823             5.159507
| 13>   H                      -2.638820            3.713132             5.390762
| 14>   H                      -2.909974            3.467466             3.239017
| 15>   H                      -3.265800            1.935287             3.994618
| 16>   H                      -4.596142            2.930245             3.440482
| 17>   C                      -4.355825            3.684646             -0.788535
| 18>   O                      -3.446795            3.823115             0.278876
| 19>   H                      -2.672503            4.139131             -0.019758
| 20>   H                      -4.056790            2.832902             -1.405011
| 21>   H                      -5.318373            3.372870             -0.422924
| 22>   H                      -4.425202            4.594607             -1.357747
| 23> *
| 24>
| 25> #Run DFT-D3 single point of the molecule with dimer basis set
| 26> $new_job
| 27> %base "16-4_DFT_A"
| 28> ! wB97X-D3 def2-TZVP TIGHTSCF CHELPG PMODEL
| 29>
| 30> %scf
| 31> MaxIter 1000
| 32> end
| 33>
| 34> * xyz 0 1
| 35>   C                      -3.613576            2.949622             3.934506
| 36>   O                      -3.601508            3.698823             5.159507
| 37>   H                      -2.638820            3.713132             5.390762
| 38>   H                      -2.909974            3.467466             3.239017
| 39>   H                      -3.265800            1.935287             3.994618
| 40>   H                      -4.596142            2.930245             3.440482
| 41>   C                    : -4.355825            3.684646             -0.788535
| 42>   O                    : -3.446795            3.823115             0.278876
| 43>   H                    : -2.672503            4.139131             -0.019758
| 44>   H                    : -4.056790            2.832902             -1.405011
| 45>   H                    : -5.318373            3.372870             -0.422924
| 46>   H                    : -4.425202            4.594607             -1.357747
| 47> *
| 48>
| 49> #Run DFT-D3 single point of the particle with dimer basis set
| 50> $new_job
| 51> %base "16-4_DFT_B"
| 52> ! wB97X-D3 def2-TZVP TIGHTSCF CHELPG PMODEL
| 53>
| 54> %scf
| 55> MaxIter 1000
| 56> end
| 57>
| 58> * xyz 0 1
| 59>   C                    : -3.613576            2.949622             3.934506
| 60>   O                    : -3.601508            3.698823             5.159507
| 61>   H                    : -2.638820            3.713132             5.390762
| 62>   H                    : -2.909974            3.467466             3.239017
| 63>   H                    : -3.265800            1.935287             3.994618
| 64>   H                    : -4.596142            2.930245             3.440482
| 65>   C                      -4.355825            3.684646             -0.788535
| 66>   O                      -3.446795            3.823115             0.278876
| 67>   H                      -2.672503            4.139131             -0.019758
| 68>   H                      -4.056790            2.832902             -1.405011
| 69>   H                      -5.318373            3.372870             -0.422924
| 70>   H                      -4.425202            4.594607             -1.357747
| 71> *
| 72>
| 73>                          ****END OF INPUT****
 Total Charge           Charge          ....    0
 Multiplicity           Mult            ....    1
 Number of Electrons    NEL             ....   36
Dispersion correction           -0.001156328
FINAL SINGLE POINT ENERGY      -231.463245165299
Dispersion correction           -0.000238810
FINAL SINGLE POINT ENERGY      -115.732066019826

CARTESIAN COORDINATES (ANGSTROEM)
---------------------------------
  C     -3.613576    2.949622    3.934506
  O     -3.601508    3.698823    5.159507
  H     -2.638820    3.713132    5.390762
  H     -2.909974    3.467466    3.239017
  H     -3.265800    1.935287    3.994618
  H     -4.596142    2.930245    3.440482
  C     -4.355825    3.684646   -0.788535
  O     -3.446795    3.823115    0.278876
  H     -2.672503    4.139131   -0.019758
  H     -4.056790    2.832902   -1.405011
  H     -5.318373    3.372870   -0.422924
  H     -4.425202    4.594607   -1.357747

 Multiplicity           Mult            ....    1
 Number of Electrons    NEL             ....   18
 Basis Dimension        Dim             ....  172

ORBITAL ENERGIES
----------------

  NO   OCC          E(Eh)            E(eV)
   0   2.0000     -19.220569      -523.0183
   1   2.0000     -10.309420      -280.5336
   2   2.0000      -1.150968       -31.3194
   3   2.0000      -0.806481       -21.9455
   4   2.0000      -0.618153       -16.8208
   5   2.0000      -0.551306       -15.0018
   6   2.0000      -0.531434       -14.4611
   7   2.0000      -0.432741       -11.7755
   8   2.0000      -0.374755       -10.1976
   9   0.0000       0.099122         2.6972
  10   0.0000       0.124782         3.3955
  11   0.0000       0.158970         4.3258
  12   0.0000       0.174569         4.7503
  13   0.0000       0.203576         5.5396

MULLIKEN ATOMIC CHARGES
-----------------------
   0 C :    0.001131
   1 O :   -0.000020
   2 H :   -0.000008
   3 H :   -0.003807
   4 H :   -0.000311
   5 H :   -0.001355
   6 C :   -0.154439
   7 O :   -0.457151
   8 H :    0.294769
   9 H :    0.099787
  10 H :    0.115783
  11 H :    0.105621
Sum of atomic charges:    0.0000000

LOEWDIN ATOMIC CHARGES
----------------------
   0 C :   -0.003746
   1 O :   -0.000028
   2 H :   -0.000002
   3 H :   -0.003685
   4 H :   -0.000066
   5 H :   -0.000657
   6 C :   -0.373052
   7 O :   -0.030793
   8 H :    0.116927
   9 H :    0.096420
  10 H :    0.105485
  11 H :    0.093198

  Mayer bond orders larger than 0.1
B(  6-C ,  7-O ) :   0.9897 B(  6-C ,  9-H ) :   0.9802 B(  6-C , 10-H ) :   0.9755
B(  6-C , 11-H ) :   0.9767 B(  7-O ,  8-H ) :   0.9184

Dispersion correction           -0.000223615
FINAL SINGLE POINT ENERGY      -115.730112772341

DIPOLE MOMENT
-------------
                                X             Y             Z
Electronic contribution:      1.04856       0.24366       1.39416
Nuclear contribution   :     -0.91756      -0.09374      -2.03423
                        -----------------------------------------
Total Dipole Moment    :      0.13100       0.14991      -0.64007
                        -----------------------------------------
Magnitude (a.u.)       :      0.67032
Magnitude (Debye)      :      1.70382

Rotational constants in cm-1:     4.499474     0.840250     0.816743
Rotational constants in MHz : 134890.847775 25190.066893 24485.345183

                             ****ORCA TERMINATED NORMALLY****
TOTAL RUN TIME: 0 days 0 hours 1 minutes 3 seconds 629 msec
