                         Program Version 4.1.2  - RELEASE  -
|  1> #Run DFT-D3 single point of the dimer
|  2> ! wB97X-D3 def2-TZVP TIGHTSCF CHELPG PMODEL PAL8
|  3>
|  4> %base "12-127_DFT_AB"
|  5>
|  6> %scf
|  7> MaxIter 1000
|  8> end
|  9>
| 10> * xyz 0 1
| 11>   C                      -0.481099            9.376045             6.559686
| 12>   O                      -1.784589            9.792264             6.733425
| 13>   H                      -1.960106            10.217070            5.901776
| 14>   H                      0.121125             10.172576            6.041656
| 15>   H                      -0.019971            9.083515             7.531341
| 16>   H                      -0.468462            8.544020             5.812568
| 17>   C                      -2.317205            8.892948             11.292753
| 18>   O                      -3.647134            8.711647             10.800370
| 19>   H                      -3.560660            8.821451             9.892221
| 20>   H                      -2.353586            9.104131             12.371504
| 21>   H                      -1.625960            8.131129             10.992430
| 22>   H                      -1.778977            9.724011             10.888744
| 23> *
| 24>
| 25> #Run DFT-D3 single point of the molecule with dimer basis set
| 26> $new_job
| 27> %base "12-127_DFT_A"
| 28> ! wB97X-D3 def2-TZVP TIGHTSCF CHELPG PMODEL
| 29>
| 30> %scf
| 31> MaxIter 1000
| 32> end
| 33>
| 34> * xyz 0 1
| 35>   C                      -0.481099            9.376045             6.559686
| 36>   O                      -1.784589            9.792264             6.733425
| 37>   H                      -1.960106            10.217070            5.901776
| 38>   H                      0.121125             10.172576            6.041656
| 39>   H                      -0.019971            9.083515             7.531341
| 40>   H                      -0.468462            8.544020             5.812568
| 41>   C                    : -2.317205            8.892948             11.292753
| 42>   O                    : -3.647134            8.711647             10.800370
| 43>   H                    : -3.560660            8.821451             9.892221
| 44>   H                    : -2.353586            9.104131             12.371504
| 45>   H                    : -1.625960            8.131129             10.992430
| 46>   H                    : -1.778977            9.724011             10.888744
| 47> *
| 48>
| 49> #Run DFT-D3 single point of the particle with dimer basis set
| 50> $new_job
| 51> %base "12-127_DFT_B"
| 52> ! wB97X-D3 def2-TZVP TIGHTSCF CHELPG PMODEL
| 53>
| 54> %scf
| 55> MaxIter 1000
| 56> end
| 57>
| 58> * xyz 0 1
| 59>   C                    : -0.481099            9.376045             6.559686
| 60>   O                    : -1.784589            9.792264             6.733425
| 61>   H                    : -1.960106            10.217070            5.901776
| 62>   H                    : 0.121125             10.172576            6.041656
| 63>   H                    : -0.019971            9.083515             7.531341
| 64>   H                    : -0.468462            8.544020             5.812568
| 65>   C                      -2.317205            8.892948             11.292753
| 66>   O                      -3.647134            8.711647             10.800370
| 67>   H                      -3.560660            8.821451             9.892221
| 68>   H                      -2.353586            9.104131             12.371504
| 69>   H                      -1.625960            8.131129             10.992430
| 70>   H                      -1.778977            9.724011             10.888744
| 71> *
| 72>
| 73>                          ****END OF INPUT****
 Total Charge           Charge          ....    0
 Multiplicity           Mult            ....    1
 Number of Electrons    NEL             ....   36
Dispersion correction           -0.000884877
FINAL SINGLE POINT ENERGY      -231.461610077826
Dispersion correction           -0.000206102
FINAL SINGLE POINT ENERGY      -115.731219264130

CARTESIAN COORDINATES (ANGSTROEM)
---------------------------------
  C     -0.481099    9.376045    6.559686
  O     -1.784589    9.792264    6.733425
  H     -1.960106   10.217070    5.901776
  H      0.121125   10.172576    6.041656
  H     -0.019971    9.083515    7.531341
  H     -0.468462    8.544020    5.812568
  C     -2.317205    8.892948   11.292753
  O     -3.647134    8.711647   10.800370
  H     -3.560660    8.821451    9.892221
  H     -2.353586    9.104131   12.371504
  H     -1.625960    8.131129   10.992430
  H     -1.778977    9.724011   10.888744

 Multiplicity           Mult            ....    1
 Number of Electrons    NEL             ....   18
 Basis Dimension        Dim             ....  172

ORBITAL ENERGIES
----------------

  NO   OCC          E(Eh)            E(eV)
   0   2.0000     -19.230120      -523.2782
   1   2.0000     -10.310151      -280.5535
   2   2.0000      -1.144043       -31.1310
   3   2.0000      -0.803974       -21.8773
   4   2.0000      -0.622339       -16.9347
   5   2.0000      -0.540057       -14.6957
   6   2.0000      -0.516749       -14.0615
   7   2.0000      -0.448459       -12.2032
   8   2.0000      -0.375527       -10.2186
   9   0.0000       0.073680         2.0049
  10   0.0000       0.116328         3.1654
  11   0.0000       0.143959         3.9173
  12   0.0000       0.170310         4.6344
  13   0.0000       0.190002         5.1702

MULLIKEN ATOMIC CHARGES
-----------------------
   0 C :    0.000014
   1 O :   -0.000031
   2 H :   -0.000000
   3 H :    0.000000
   4 H :   -0.000105
   5 H :   -0.000001
   6 C :   -0.183147
   7 O :   -0.456504
   8 H :    0.302949
   9 H :    0.125382
  10 H :    0.107356
  11 H :    0.104087
Sum of atomic charges:    0.0000000

LOEWDIN ATOMIC CHARGES
----------------------
   0 C :   -0.000085
   1 O :   -0.000108
   2 H :   -0.000006
   3 H :   -0.000001
   4 H :   -0.000058
   5 H :   -0.000001
   6 C :   -0.375726
   7 O :   -0.061336
   8 H :    0.141649
   9 H :    0.113070
  10 H :    0.091998
  11 H :    0.090604

  Mayer bond orders larger than 0.1
B(  6-C ,  7-O ) :   0.9989 B(  6-C ,  9-H ) :   0.9762 B(  6-C , 10-H ) :   0.9713
B(  6-C , 11-H ) :   0.9745 B(  7-O ,  8-H ) :   0.9148

Dispersion correction           -0.000237096
FINAL SINGLE POINT ENERGY      -115.728396327690

DIPOLE MOMENT
-------------
                                X             Y             Z
Electronic contribution:     -1.84127      -0.33369      -0.48304
Nuclear contribution   :      2.44086       0.50963       0.07791
                        -----------------------------------------
Total Dipole Moment    :      0.59959       0.17593      -0.40513
                        -----------------------------------------
Magnitude (a.u.)       :      0.74471
Magnitude (Debye)      :      1.89290

Rotational constants in cm-1:     4.525117     0.822927     0.782897
Rotational constants in MHz : 135659.607282 24670.735604 23470.653991

                             ****ORCA TERMINATED NORMALLY****
TOTAL RUN TIME: 0 days 0 hours 1 minutes 6 seconds 256 msec
