                         Program Version 4.1.2  - RELEASE  -
|  1> #Run DFT-D3 single point of the dimer
|  2> ! wB97X-D3 def2-TZVP TIGHTSCF CHELPG PMODEL PAL8
|  3>
|  4> %base "19-8_DFT_AB"
|  5>
|  6> %scf
|  7> MaxIter 1000
|  8> end
|  9>
| 10> * xyz 0 1
| 11>   C                      -7.667179            -9.209066            3.339312
| 12>   O                      -8.331323            -9.779651            4.428187
| 13>   H                      -8.630029            -10.674345           4.174091
| 14>   H                      -6.594837            -9.317972            3.473686
| 15>   H                      -7.952272            -9.648018            2.417688
| 16>   H                      -7.931544            -8.142269            3.023550
| 17>   C                      -5.894835            -4.536025            1.406599
| 18>   O                      -5.274735            -3.349634            1.808370
| 19>   H                      -5.727982            -3.102801            2.615311
| 20>   H                      -5.648396            -4.665075            0.317086
| 21>   H                      -5.501447            -5.436554            1.904823
| 22>   H                      -6.964361            -4.431291            1.368194
| 23> *
| 24>
| 25> #Run DFT-D3 single point of the molecule with dimer basis set
| 26> $new_job
| 27> %base "19-8_DFT_A"
| 28> ! wB97X-D3 def2-TZVP TIGHTSCF CHELPG PMODEL
| 29>
| 30> %scf
| 31> MaxIter 1000
| 32> end
| 33>
| 34> * xyz 0 1
| 35>   C                      -7.667179            -9.209066            3.339312
| 36>   O                      -8.331323            -9.779651            4.428187
| 37>   H                      -8.630029            -10.674345           4.174091
| 38>   H                      -6.594837            -9.317972            3.473686
| 39>   H                      -7.952272            -9.648018            2.417688
| 40>   H                      -7.931544            -8.142269            3.023550
| 41>   C                    : -5.894835            -4.536025            1.406599
| 42>   O                    : -5.274735            -3.349634            1.808370
| 43>   H                    : -5.727982            -3.102801            2.615311
| 44>   H                    : -5.648396            -4.665075            0.317086
| 45>   H                    : -5.501447            -5.436554            1.904823
| 46>   H                    : -6.964361            -4.431291            1.368194
| 47> *
| 48>
| 49> #Run DFT-D3 single point of the particle with dimer basis set
| 50> $new_job
| 51> %base "19-8_DFT_B"
| 52> ! wB97X-D3 def2-TZVP TIGHTSCF CHELPG PMODEL
| 53>
| 54> %scf
| 55> MaxIter 1000
| 56> end
| 57>
| 58> * xyz 0 1
| 59>   C                    : -7.667179            -9.209066            3.339312
| 60>   O                    : -8.331323            -9.779651            4.428187
| 61>   H                    : -8.630029            -10.674345           4.174091
| 62>   H                    : -6.594837            -9.317972            3.473686
| 63>   H                    : -7.952272            -9.648018            2.417688
| 64>   H                    : -7.931544            -8.142269            3.023550
| 65>   C                      -5.894835            -4.536025            1.406599
| 66>   O                      -5.274735            -3.349634            1.808370
| 67>   H                      -5.727982            -3.102801            2.615311
| 68>   H                      -5.648396            -4.665075            0.317086
| 69>   H                      -5.501447            -5.436554            1.904823
| 70>   H                      -6.964361            -4.431291            1.368194
| 71> *
| 72>
| 73>                          ****END OF INPUT****
 Total Charge           Charge          ....    0
 Multiplicity           Mult            ....    1
 Number of Electrons    NEL             ....   36
Dispersion correction           -0.000693544
FINAL SINGLE POINT ENERGY      -231.460176977058
Dispersion correction           -0.000250984
FINAL SINGLE POINT ENERGY      -115.726809693408

CARTESIAN COORDINATES (ANGSTROEM)
---------------------------------
  C     -7.667179   -9.209066    3.339312
  O     -8.331323   -9.779651    4.428187
  H     -8.630029  -10.674345    4.174091
  H     -6.594837   -9.317972    3.473686
  H     -7.952272   -9.648018    2.417688
  H     -7.931544   -8.142269    3.023550
  C     -5.894835   -4.536025    1.406599
  O     -5.274735   -3.349634    1.808370
  H     -5.727982   -3.102801    2.615311
  H     -5.648396   -4.665075    0.317086
  H     -5.501447   -5.436554    1.904823
  H     -6.964361   -4.431291    1.368194

 Multiplicity           Mult            ....    1
 Number of Electrons    NEL             ....   18
 Basis Dimension        Dim             ....  172

ORBITAL ENERGIES
----------------

  NO   OCC          E(Eh)            E(eV)
   0   2.0000     -19.231588      -523.3181
   1   2.0000     -10.312416      -280.6151
   2   2.0000      -1.144571       -31.1454
   3   2.0000      -0.792316       -21.5600
   4   2.0000      -0.610904       -16.6235
   5   2.0000      -0.554283       -15.0828
   6   2.0000      -0.522381       -14.2147
   7   2.0000      -0.427287       -11.6271
   8   2.0000      -0.377731       -10.2786
   9   0.0000       0.082814         2.2535
  10   0.0000       0.116247         3.1633
  11   0.0000       0.141921         3.8619
  12   0.0000       0.173922         4.7326
  13   0.0000       0.186539         5.0760

MULLIKEN ATOMIC CHARGES
-----------------------
   0 C :    0.000137
   1 O :   -0.000004
   2 H :   -0.000001
   3 H :   -0.000041
   4 H :   -0.000020
   5 H :   -0.000315
   6 C :   -0.169602
   7 O :   -0.462927
   8 H :    0.313611
   9 H :    0.108288
  10 H :    0.100791
  11 H :    0.110082
Sum of atomic charges:    0.0000000

LOEWDIN ATOMIC CHARGES
----------------------
   0 C :   -0.000102
   1 O :   -0.000001
   2 H :   -0.000001
   3 H :   -0.000022
   4 H :   -0.000001
   5 H :   -0.000154
   6 C :   -0.408446
   7 O :   -0.063602
   8 H :    0.169520
   9 H :    0.114148
  10 H :    0.096195
  11 H :    0.092465

  Mayer bond orders larger than 0.1
B(  6-C ,  7-O ) :   1.0104 B(  6-C ,  9-H ) :   0.9757 B(  6-C , 10-H ) :   0.9703
B(  6-C , 11-H ) :   0.9787 B(  7-O ,  8-H ) :   0.9021

Dispersion correction           -0.000233331
FINAL SINGLE POINT ENERGY      -115.733096612914

DIPOLE MOMENT
-------------
                                X             Y             Z
Electronic contribution:      0.84229       1.51819       0.60539
Nuclear contribution   :     -1.37278      -1.79755      -0.27526
                        -----------------------------------------
Total Dipole Moment    :     -0.53049      -0.27936       0.33013
                        -----------------------------------------
Magnitude (a.u.)       :      0.68443
Magnitude (Debye)      :      1.73969

Rotational constants in cm-1:     4.232551     0.844902     0.824939
Rotational constants in MHz : 126888.697267 25329.511061 24731.043122

                             ****ORCA TERMINATED NORMALLY****
TOTAL RUN TIME: 0 days 0 hours 2 minutes 21 seconds 376 msec
