                         Program Version 4.1.2  - RELEASE  -
|  1> #Run DFT-D3 single point of the dimer
|  2> ! wB97X-D3 def2-TZVP TIGHTSCF CHELPG PMODEL PAL8
|  3>
|  4> %base "13-131_DFT_AB"
|  5>
|  6> %scf
|  7> MaxIter 1000
|  8> end
|  9>
| 10> * xyz 0 1
| 11>   C                      7.004929             -6.565444            -6.108691
| 12>   O                      7.311226             -7.663960            -6.960760
| 13>   H                      6.495099             -8.068097            -7.257927
| 14>   H                      6.292944             -6.947194            -5.276311
| 15>   H                      7.848356             -6.265472            -5.567084
| 16>   H                      6.616340             -5.781074            -6.738117
| 17>   C                      4.090717             -9.510797            -6.756593
| 18>   O                      3.728793             -8.464683            -7.637012
| 19>   H                      3.087358             -8.762864            -8.246154
| 20>   H                      4.810756             -10.156230           -7.292392
| 21>   H                      4.575964             -9.082096            -5.872654
| 22>   H                      3.256833             -10.164723           -6.534572
| 23> *
| 24>
| 25> #Run DFT-D3 single point of the molecule with dimer basis set
| 26> $new_job
| 27> %base "13-131_DFT_A"
| 28> ! wB97X-D3 def2-TZVP TIGHTSCF CHELPG PMODEL
| 29>
| 30> %scf
| 31> MaxIter 1000
| 32> end
| 33>
| 34> * xyz 0 1
| 35>   C                      7.004929             -6.565444            -6.108691
| 36>   O                      7.311226             -7.663960            -6.960760
| 37>   H                      6.495099             -8.068097            -7.257927
| 38>   H                      6.292944             -6.947194            -5.276311
| 39>   H                      7.848356             -6.265472            -5.567084
| 40>   H                      6.616340             -5.781074            -6.738117
| 41>   C                    : 4.090717             -9.510797            -6.756593
| 42>   O                    : 3.728793             -8.464683            -7.637012
| 43>   H                    : 3.087358             -8.762864            -8.246154
| 44>   H                    : 4.810756             -10.156230           -7.292392
| 45>   H                    : 4.575964             -9.082096            -5.872654
| 46>   H                    : 3.256833             -10.164723           -6.534572
| 47> *
| 48>
| 49> #Run DFT-D3 single point of the particle with dimer basis set
| 50> $new_job
| 51> %base "13-131_DFT_B"
| 52> ! wB97X-D3 def2-TZVP TIGHTSCF CHELPG PMODEL
| 53>
| 54> %scf
| 55> MaxIter 1000
| 56> end
| 57>
| 58> * xyz 0 1
| 59>   C                    : 7.004929             -6.565444            -6.108691
| 60>   O                    : 7.311226             -7.663960            -6.960760
| 61>   H                    : 6.495099             -8.068097            -7.257927
| 62>   H                    : 6.292944             -6.947194            -5.276311
| 63>   H                    : 7.848356             -6.265472            -5.567084
| 64>   H                    : 6.616340             -5.781074            -6.738117
| 65>   C                      4.090717             -9.510797            -6.756593
| 66>   O                      3.728793             -8.464683            -7.637012
| 67>   H                      3.087358             -8.762864            -8.246154
| 68>   H                      4.810756             -10.156230           -7.292392
| 69>   H                      4.575964             -9.082096            -5.872654
| 70>   H                      3.256833             -10.164723           -6.534572
| 71> *
| 72>
| 73>                          ****END OF INPUT****
 Total Charge           Charge          ....    0
 Multiplicity           Mult            ....    1
 Number of Electrons    NEL             ....   36
Dispersion correction           -0.001830620
FINAL SINGLE POINT ENERGY      -231.468875922446
Dispersion correction           -0.000231200
FINAL SINGLE POINT ENERGY      -115.730822097996

CARTESIAN COORDINATES (ANGSTROEM)
---------------------------------
  C      7.004929   -6.565444   -6.108691
  O      7.311226   -7.663960   -6.960760
  H      6.495099   -8.068097   -7.257927
  H      6.292944   -6.947194   -5.276311
  H      7.848356   -6.265472   -5.567084
  H      6.616340   -5.781074   -6.738117
  C      4.090717   -9.510797   -6.756593
  O      3.728793   -8.464683   -7.637012
  H      3.087358   -8.762864   -8.246154
  H      4.810756  -10.156230   -7.292392
  H      4.575964   -9.082096   -5.872654
  H      3.256833  -10.164723   -6.534572

 Multiplicity           Mult            ....    1
 Number of Electrons    NEL             ....   18
 Basis Dimension        Dim             ....  172

ORBITAL ENERGIES
----------------

  NO   OCC          E(Eh)            E(eV)
   0   2.0000     -19.224189      -523.1168
   1   2.0000     -10.313739      -280.6511
   2   2.0000      -1.139018       -30.9943
   3   2.0000      -0.797719       -21.7070
   4   2.0000      -0.616373       -16.7724
   5   2.0000      -0.535611       -14.5747
   6   2.0000      -0.531191       -14.4544
   7   2.0000      -0.437079       -11.8935
   8   2.0000      -0.368884       -10.0379
   9   0.0000       0.094798         2.5796
  10   0.0000       0.123207         3.3526
  11   0.0000       0.156463         4.2576
  12   0.0000       0.179899         4.8953
  13   0.0000       0.189292         5.1509

MULLIKEN ATOMIC CHARGES
-----------------------
   0 C :   -0.000219
   1 O :   -0.000496
   2 H :    0.001582
   3 H :   -0.000050
   4 H :    0.000031
   5 H :   -0.000311
   6 C :   -0.170013
   7 O :   -0.477922
   8 H :    0.307740
   9 H :    0.101347
  10 H :    0.122352
  11 H :    0.115958
Sum of atomic charges:    0.0000000

LOEWDIN ATOMIC CHARGES
----------------------
   0 C :   -0.001182
   1 O :   -0.000339
   2 H :   -0.004987
   3 H :   -0.000878
   4 H :   -0.000012
   5 H :   -0.000124
   6 C :   -0.378270
   7 O :   -0.065758
   8 H :    0.149196
   9 H :    0.097782
  10 H :    0.110605
  11 H :    0.093965

  Mayer bond orders larger than 0.1
B(  6-C ,  7-O ) :   0.9836 B(  6-C ,  9-H ) :   0.9833 B(  6-C , 10-H ) :   0.9739
B(  6-C , 11-H ) :   0.9750 B(  7-O ,  8-H ) :   0.9056

Dispersion correction           -0.000231159
FINAL SINGLE POINT ENERGY      -115.734590805592

DIPOLE MOMENT
-------------
                                X             Y             Z
Electronic contribution:     -0.44639       1.43044      -0.93083
Nuclear contribution   :      0.15750      -2.05303       0.88960
                        -----------------------------------------
Total Dipole Moment    :     -0.28889      -0.62259      -0.04124
                        -----------------------------------------
Magnitude (a.u.)       :      0.68759
Magnitude (Debye)      :      1.74771

Rotational constants in cm-1:     4.297757     0.838881     0.802813
Rotational constants in MHz : 128843.525645 25149.007227 24067.739498

                             ****ORCA TERMINATED NORMALLY****
TOTAL RUN TIME: 0 days 0 hours 1 minutes 10 seconds 419 msec
