                         Program Version 4.1.2  - RELEASE  -
|  1> #Run DFT-D3 single point of the dimer
|  2> ! wB97X-D3 def2-TZVP TIGHTSCF CHELPG PMODEL PAL8
|  3>
|  4> %base "18-147_DFT_AB"
|  5>
|  6> %scf
|  7> MaxIter 1000
|  8> end
|  9>
| 10> * xyz 0 1
| 11>   C                      -11.071087           -1.115797            7.897160
| 12>   O                      -10.491299           -0.589440            6.693246
| 13>   H                      -11.181036           -0.721607            6.008134
| 14>   H                      -10.475001           -1.220621            8.745920
| 15>   H                      -11.921402           -0.479326            8.212888
| 16>   H                      -11.527790           -2.089049            7.592846
| 17>   C                      -8.750132            -3.209529            5.758697
| 18>   O                      -8.636252            -2.800862            7.090331
| 19>   H                      -8.941399            -1.901998            7.252660
| 20>   H                      -8.567142            -2.361493            5.074690
| 21>   H                      -7.992713            -4.009149            5.610206
| 22>   H                      -9.785928            -3.549334            5.647904
| 23> *
| 24>
| 25> #Run DFT-D3 single point of the molecule with dimer basis set
| 26> $new_job
| 27> %base "18-147_DFT_A"
| 28> ! wB97X-D3 def2-TZVP TIGHTSCF CHELPG PMODEL
| 29>
| 30> %scf
| 31> MaxIter 1000
| 32> end
| 33>
| 34> * xyz 0 1
| 35>   C                      -11.071087           -1.115797            7.897160
| 36>   O                      -10.491299           -0.589440            6.693246
| 37>   H                      -11.181036           -0.721607            6.008134
| 38>   H                      -10.475001           -1.220621            8.745920
| 39>   H                      -11.921402           -0.479326            8.212888
| 40>   H                      -11.527790           -2.089049            7.592846
| 41>   C                    : -8.750132            -3.209529            5.758697
| 42>   O                    : -8.636252            -2.800862            7.090331
| 43>   H                    : -8.941399            -1.901998            7.252660
| 44>   H                    : -8.567142            -2.361493            5.074690
| 45>   H                    : -7.992713            -4.009149            5.610206
| 46>   H                    : -9.785928            -3.549334            5.647904
| 47> *
| 48>
| 49> #Run DFT-D3 single point of the particle with dimer basis set
| 50> $new_job
| 51> %base "18-147_DFT_B"
| 52> ! wB97X-D3 def2-TZVP TIGHTSCF CHELPG PMODEL
| 53>
| 54> %scf
| 55> MaxIter 1000
| 56> end
| 57>
| 58> * xyz 0 1
| 59>   C                    : -11.071087           -1.115797            7.897160
| 60>   O                    : -10.491299           -0.589440            6.693246
| 61>   H                    : -11.181036           -0.721607            6.008134
| 62>   H                    : -10.475001           -1.220621            8.745920
| 63>   H                    : -11.921402           -0.479326            8.212888
| 64>   H                    : -11.527790           -2.089049            7.592846
| 65>   C                      -8.750132            -3.209529            5.758697
| 66>   O                      -8.636252            -2.800862            7.090331
| 67>   H                      -8.941399            -1.901998            7.252660
| 68>   H                      -8.567142            -2.361493            5.074690
| 69>   H                      -7.992713            -4.009149            5.610206
| 70>   H                      -9.785928            -3.549334            5.647904
| 71> *
| 72>
| 73>                          ****END OF INPUT****
 Total Charge           Charge          ....    0
 Multiplicity           Mult            ....    1
 Number of Electrons    NEL             ....   36
Dispersion correction           -0.002340842
FINAL SINGLE POINT ENERGY      -231.467832460357
Dispersion correction           -0.000228061
FINAL SINGLE POINT ENERGY      -115.728780561795

CARTESIAN COORDINATES (ANGSTROEM)
---------------------------------
  C    -11.071087   -1.115797    7.897160
  O    -10.491299   -0.589440    6.693246
  H    -11.181036   -0.721607    6.008134
  H    -10.475001   -1.220621    8.745920
  H    -11.921402   -0.479326    8.212888
  H    -11.527790   -2.089049    7.592846
  C     -8.750132   -3.209529    5.758697
  O     -8.636252   -2.800862    7.090331
  H     -8.941399   -1.901998    7.252660
  H     -8.567142   -2.361493    5.074690
  H     -7.992713   -4.009149    5.610206
  H     -9.785928   -3.549334    5.647904

 Multiplicity           Mult            ....    1
 Number of Electrons    NEL             ....   18
 Basis Dimension        Dim             ....  172

ORBITAL ENERGIES
----------------

  NO   OCC          E(Eh)            E(eV)
   0   2.0000     -19.225021      -523.1394
   1   2.0000     -10.315298      -280.6935
   2   2.0000      -1.136265       -30.9193
   3   2.0000      -0.792976       -21.5780
   4   2.0000      -0.611644       -16.6437
   5   2.0000      -0.547622       -14.9016
   6   2.0000      -0.526639       -14.3306
   7   2.0000      -0.425532       -11.5793
   8   2.0000      -0.368830       -10.0364
   9   0.0000       0.073835         2.0091
  10   0.0000       0.137219         3.7339
  11   0.0000       0.147734         4.0201
  12   0.0000       0.168601         4.5879
  13   0.0000       0.187890         5.1127

MULLIKEN ATOMIC CHARGES
-----------------------
   0 C :   -0.014153
   1 O :   -0.003747
   2 H :    0.000000
   3 H :   -0.000029
   4 H :   -0.000965
   5 H :    0.000768
   6 C :   -0.149599
   7 O :   -0.479314
   8 H :    0.318959
   9 H :    0.102872
  10 H :    0.122115
  11 H :    0.103092
Sum of atomic charges:    0.0000000

LOEWDIN ATOMIC CHARGES
----------------------
   0 C :   -0.022310
   1 O :   -0.012245
   2 H :   -0.000853
   3 H :   -0.003156
   4 H :   -0.000350
   5 H :   -0.002168
   6 C :   -0.390062
   7 O :   -0.053673
   8 H :    0.177141
   9 H :    0.096989
  10 H :    0.113191
  11 H :    0.097495

  Mayer bond orders larger than 0.1
B(  6-C ,  7-O ) :   0.9859 B(  6-C ,  9-H ) :   0.9829 B(  6-C , 10-H ) :   0.9713
B(  6-C , 11-H ) :   0.9792 B(  7-O ,  8-H ) :   0.8965

Dispersion correction           -0.000230873
FINAL SINGLE POINT ENERGY      -115.734333098430

DIPOLE MOMENT
-------------
                                X             Y             Z
Electronic contribution:      0.22580       0.34863       1.60489
Nuclear contribution   :     -0.44750       0.07016      -2.03396
                        -----------------------------------------
Total Dipole Moment    :     -0.22170       0.41879      -0.42907
                        -----------------------------------------
Magnitude (a.u.)       :      0.63925
Magnitude (Debye)      :      1.62484

Rotational constants in cm-1:     4.157616     0.852434     0.821664
Rotational constants in MHz : 124642.195152 25555.327187 24632.852777

                             ****ORCA TERMINATED NORMALLY****
TOTAL RUN TIME: 0 days 0 hours 1 minutes 1 seconds 347 msec
