                         Program Version 4.1.2  - RELEASE  -
|  1> #Run DFT-D3 single point of the dimer
|  2> ! wB97X-D3 def2-TZVP TIGHTSCF CHELPG PMODEL PAL8
|  3>
|  4> %base "16-105_DFT_AB"
|  5>
|  6> %scf
|  7> MaxIter 1000
|  8> end
|  9>
| 10> * xyz 0 1
| 11>   C                      -5.734501            -10.192023           -5.611026
| 12>   O                      -4.666098            -9.342436            -5.831175
| 13>   H                      -5.044080            -8.663797            -6.404960
| 14>   H                      -6.608225            -9.629141            -5.369410
| 15>   H                      -5.796766            -10.794661           -6.500832
| 16>   H                      -5.543738            -10.761625           -4.659608
| 17>   C                      0.741644             -9.961062            -5.985418
| 18>   O                      -0.296424            -10.858472           -5.471608
| 19>   H                      -0.946359            -10.348229           -4.948801
| 20>   H                      1.510999             -10.492507           -6.512257
| 21>   H                      0.381211             -9.186542            -6.686297
| 22>   H                      1.110891             -9.255089            -5.188916
| 23> *
| 24>
| 25> #Run DFT-D3 single point of the molecule with dimer basis set
| 26> $new_job
| 27> %base "16-105_DFT_A"
| 28> ! wB97X-D3 def2-TZVP TIGHTSCF CHELPG PMODEL
| 29>
| 30> %scf
| 31> MaxIter 1000
| 32> end
| 33>
| 34> * xyz 0 1
| 35>   C                      -5.734501            -10.192023           -5.611026
| 36>   O                      -4.666098            -9.342436            -5.831175
| 37>   H                      -5.044080            -8.663797            -6.404960
| 38>   H                      -6.608225            -9.629141            -5.369410
| 39>   H                      -5.796766            -10.794661           -6.500832
| 40>   H                      -5.543738            -10.761625           -4.659608
| 41>   C                    : 0.741644             -9.961062            -5.985418
| 42>   O                    : -0.296424            -10.858472           -5.471608
| 43>   H                    : -0.946359            -10.348229           -4.948801
| 44>   H                    : 1.510999             -10.492507           -6.512257
| 45>   H                    : 0.381211             -9.186542            -6.686297
| 46>   H                    : 1.110891             -9.255089            -5.188916
| 47> *
| 48>
| 49> #Run DFT-D3 single point of the particle with dimer basis set
| 50> $new_job
| 51> %base "16-105_DFT_B"
| 52> ! wB97X-D3 def2-TZVP TIGHTSCF CHELPG PMODEL
| 53>
| 54> %scf
| 55> MaxIter 1000
| 56> end
| 57>
| 58> * xyz 0 1
| 59>   C                    : -5.734501            -10.192023           -5.611026
| 60>   O                    : -4.666098            -9.342436            -5.831175
| 61>   H                    : -5.044080            -8.663797            -6.404960
| 62>   H                    : -6.608225            -9.629141            -5.369410
| 63>   H                    : -5.796766            -10.794661           -6.500832
| 64>   H                    : -5.543738            -10.761625           -4.659608
| 65>   C                      0.741644             -9.961062            -5.985418
| 66>   O                      -0.296424            -10.858472           -5.471608
| 67>   H                      -0.946359            -10.348229           -4.948801
| 68>   H                      1.510999             -10.492507           -6.512257
| 69>   H                      0.381211             -9.186542            -6.686297
| 70>   H                      1.110891             -9.255089            -5.188916
| 71> *
| 72>
| 73>                          ****END OF INPUT****
 Total Charge           Charge          ....    0
 Multiplicity           Mult            ....    1
 Number of Electrons    NEL             ....   36
Dispersion correction           -0.000672243
FINAL SINGLE POINT ENERGY      -231.459372647317
Dispersion correction           -0.000193654
FINAL SINGLE POINT ENERGY      -115.729525035519

CARTESIAN COORDINATES (ANGSTROEM)
---------------------------------
  C     -5.734501  -10.192023   -5.611026
  O     -4.666098   -9.342436   -5.831175
  H     -5.044080   -8.663797   -6.404960
  H     -6.608225   -9.629141   -5.369410
  H     -5.796766  -10.794661   -6.500832
  H     -5.543738  -10.761625   -4.659608
  C      0.741644   -9.961062   -5.985418
  O     -0.296424  -10.858472   -5.471608
  H     -0.946359  -10.348229   -4.948801
  H      1.510999  -10.492507   -6.512257
  H      0.381211   -9.186542   -6.686297
  H      1.110891   -9.255089   -5.188916

 Multiplicity           Mult            ....    1
 Number of Electrons    NEL             ....   18
 Basis Dimension        Dim             ....  172

ORBITAL ENERGIES
----------------

  NO   OCC          E(Eh)            E(eV)
   0   2.0000     -19.233835      -523.3793
   1   2.0000     -10.321173      -280.8534
   2   2.0000      -1.117790       -30.4166
   3   2.0000      -0.797793       -21.7090
   4   2.0000      -0.606048       -16.4914
   5   2.0000      -0.532909       -14.5012
   6   2.0000      -0.514038       -13.9877
   7   2.0000      -0.442220       -12.0334
   8   2.0000      -0.370413       -10.0795
   9   0.0000       0.083475         2.2715
  10   0.0000       0.112024         3.0483
  11   0.0000       0.145487         3.9589
  12   0.0000       0.167473         4.5572
  13   0.0000       0.191156         5.2016

MULLIKEN ATOMIC CHARGES
-----------------------
   0 C :   -0.000158
   1 O :   -0.000010
   2 H :    0.000001
   3 H :    0.000001
   4 H :    0.000017
   5 H :    0.000013
   6 C :   -0.179344
   7 O :   -0.483635
   8 H :    0.316750
   9 H :    0.134750
  10 H :    0.105775
  11 H :    0.105840
Sum of atomic charges:   -0.0000000

LOEWDIN ATOMIC CHARGES
----------------------
   0 C :   -0.000044
   1 O :   -0.000074
   2 H :   -0.000005
   3 H :   -0.000001
   4 H :   -0.000000
   5 H :   -0.000003
   6 C :   -0.358557
   7 O :   -0.119964
   8 H :    0.175329
   9 H :    0.104615
  10 H :    0.096261
  11 H :    0.102444

  Mayer bond orders larger than 0.1
B(  6-C ,  7-O ) :   0.9944 B(  6-C ,  9-H ) :   0.9721 B(  6-C , 10-H ) :   0.9677
B(  6-C , 11-H ) :   0.9761 B(  7-O ,  8-H ) :   0.8954

Dispersion correction           -0.000282302
FINAL SINGLE POINT ENERGY      -115.728834868187

DIPOLE MOMENT
-------------
                                X             Y             Z
Electronic contribution:     -1.16985      -1.42351       0.56120
Nuclear contribution   :      1.19167       2.13545      -0.46274
                        -----------------------------------------
Total Dipole Moment    :      0.02182       0.71194       0.09846
                        -----------------------------------------
Magnitude (a.u.)       :      0.71905
Magnitude (Debye)      :      1.82767

Rotational constants in cm-1:     4.323356     0.778971     0.739280
Rotational constants in MHz : 129610.945176 23352.966325 22163.070741

                             ****ORCA TERMINATED NORMALLY****
TOTAL RUN TIME: 0 days 0 hours 1 minutes 3 seconds 95 msec
