                         Program Version 4.1.2  - RELEASE  -
|  1> #Run DFT-D3 single point of the dimer
|  2> ! wB97X-D3 def2-TZVP TIGHTSCF CHELPG PMODEL PAL8
|  3>
|  4> %base "7-0_DFT_AB"
|  5>
|  6> %scf
|  7> MaxIter 1000
|  8> end
|  9>
| 10> * xyz 0 1
| 11>   C                      0.107441             2.741054             -3.055841
| 12>   O                      0.093632             2.479985             -1.676650
| 13>   H                      -0.116713            3.352322             -1.369150
| 14>   H                      0.781831             3.560905             -3.329535
| 15>   H                      0.429337             1.873700             -3.602147
| 16>   H                      -0.921354            2.900499             -3.482296
| 17>   C                      0.666390             -0.715815            -0.420100
| 18>   O                      1.567490             0.321839             -0.143165
| 19>   H                      1.326093             1.086254             -0.696441
| 20>   H                      -0.316124            -0.427597            -0.014911
| 21>   H                      0.543968             -0.926248            -1.464179
| 22>   H                      1.024687             -1.624058            0.019191
| 23> *
| 24>
| 25> #Run DFT-D3 single point of the molecule with dimer basis set
| 26> $new_job
| 27> %base "7-0_DFT_A"
| 28> ! wB97X-D3 def2-TZVP TIGHTSCF CHELPG PMODEL
| 29>
| 30> %scf
| 31> MaxIter 1000
| 32> end
| 33>
| 34> * xyz 0 1
| 35>   C                      0.107441             2.741054             -3.055841
| 36>   O                      0.093632             2.479985             -1.676650
| 37>   H                      -0.116713            3.352322             -1.369150
| 38>   H                      0.781831             3.560905             -3.329535
| 39>   H                      0.429337             1.873700             -3.602147
| 40>   H                      -0.921354            2.900499             -3.482296
| 41>   C                    : 0.666390             -0.715815            -0.420100
| 42>   O                    : 1.567490             0.321839             -0.143165
| 43>   H                    : 1.326093             1.086254             -0.696441
| 44>   H                    : -0.316124            -0.427597            -0.014911
| 45>   H                    : 0.543968             -0.926248            -1.464179
| 46>   H                    : 1.024687             -1.624058            0.019191
| 47> *
| 48>
| 49> #Run DFT-D3 single point of the particle with dimer basis set
| 50> $new_job
| 51> %base "7-0_DFT_B"
| 52> ! wB97X-D3 def2-TZVP TIGHTSCF CHELPG PMODEL
| 53>
| 54> %scf
| 55> MaxIter 1000
| 56> end
| 57>
| 58> * xyz 0 1
| 59>   C                    : 0.107441             2.741054             -3.055841
| 60>   O                    : 0.093632             2.479985             -1.676650
| 61>   H                    : -0.116713            3.352322             -1.369150
| 62>   H                    : 0.781831             3.560905             -3.329535
| 63>   H                    : 0.429337             1.873700             -3.602147
| 64>   H                    : -0.921354            2.900499             -3.482296
| 65>   C                      0.666390             -0.715815            -0.420100
| 66>   O                      1.567490             0.321839             -0.143165
| 67>   H                      1.326093             1.086254             -0.696441
| 68>   H                      -0.316124            -0.427597            -0.014911
| 69>   H                      0.543968             -0.926248            -1.464179
| 70>   H                      1.024687             -1.624058            0.019191
| 71> *
| 72>
| 73>                          ****END OF INPUT****
 Total Charge           Charge          ....    0
 Multiplicity           Mult            ....    1
 Number of Electrons    NEL             ....   36
Dispersion correction           -0.001708022
FINAL SINGLE POINT ENERGY      -231.476391187461
Dispersion correction           -0.000223019
FINAL SINGLE POINT ENERGY      -115.732918958348

CARTESIAN COORDINATES (ANGSTROEM)
---------------------------------
  C      0.107441    2.741054   -3.055841
  O      0.093632    2.479985   -1.676650
  H     -0.116713    3.352322   -1.369150
  H      0.781831    3.560905   -3.329535
  H      0.429337    1.873700   -3.602147
  H     -0.921354    2.900499   -3.482296
  C      0.666390   -0.715815   -0.420100
  O      1.567490    0.321839   -0.143165
  H      1.326093    1.086254   -0.696441
  H     -0.316124   -0.427597   -0.014911
  H      0.543968   -0.926248   -1.464179
  H      1.024687   -1.624058    0.019191

 Multiplicity           Mult            ....    1
 Number of Electrons    NEL             ....   18
 Basis Dimension        Dim             ....  172

ORBITAL ENERGIES
----------------

  NO   OCC          E(Eh)            E(eV)
   0   2.0000     -19.230159      -523.2792
   1   2.0000     -10.307323      -280.4765
   2   2.0000      -1.136832       -30.9348
   3   2.0000      -0.796381       -21.6706
   4   2.0000      -0.612214       -16.6592
   5   2.0000      -0.546777       -14.8786
   6   2.0000      -0.527590       -14.3565
   7   2.0000      -0.434549       -11.8247
   8   2.0000      -0.371481       -10.1085
   9   0.0000       0.067278         1.8307
  10   0.0000       0.131911         3.5895
  11   0.0000       0.147545         4.0149
  12   0.0000       0.164448         4.4748
  13   0.0000       0.192389         5.2352

MULLIKEN ATOMIC CHARGES
-----------------------
   0 C :   -0.001778
   1 O :   -0.003215
   2 H :   -0.000397
   3 H :    0.000135
   4 H :   -0.000112
   5 H :   -0.000033
   6 C :   -0.151684
   7 O :   -0.474184
   8 H :    0.314911
   9 H :    0.095112
  10 H :    0.102431
  11 H :    0.118814
Sum of atomic charges:   -0.0000000

LOEWDIN ATOMIC CHARGES
----------------------
   0 C :   -0.002283
   1 O :   -0.013750
   2 H :   -0.000892
   3 H :   -0.000033
   4 H :   -0.000245
   5 H :   -0.000048
   6 C :   -0.388494
   7 O :   -0.067782
   8 H :    0.182383
   9 H :    0.096866
  10 H :    0.090027
  11 H :    0.104251

  Mayer bond orders larger than 0.1
B(  6-C ,  7-O ) :   0.9900 B(  6-C ,  9-H ) :   0.9837 B(  6-C , 10-H ) :   0.9750
B(  6-C , 11-H ) :   0.9748 B(  7-O ,  8-H ) :   0.9045

Dispersion correction           -0.000225229
FINAL SINGLE POINT ENERGY      -115.735750853010

DIPOLE MOMENT
-------------
                                X             Y             Z
Electronic contribution:      1.26340       1.19513       0.43933
Nuclear contribution   :     -1.75304      -1.14026      -0.90697
                        -----------------------------------------
Total Dipole Moment    :     -0.48965       0.05487      -0.46764
                        -----------------------------------------
Magnitude (a.u.)       :      0.67930
Magnitude (Debye)      :      1.72664

Rotational constants in cm-1:     4.336111     0.846450     0.816211
Rotational constants in MHz : 129993.351827 25375.925332 24469.389771

                             ****ORCA TERMINATED NORMALLY****
TOTAL RUN TIME: 0 days 0 hours 1 minutes 10 seconds 267 msec
