                         Program Version 4.1.2  - RELEASE  -
|  1> #Run DFT-D3 single point of the dimer
|  2> ! wB97X-D3 def2-TZVP TIGHTSCF CHELPG PMODEL PAL8
|  3>
|  4> %base "15-135_DFT_AB"
|  5>
|  6> %scf
|  7> MaxIter 1000
|  8> end
|  9>
| 10> * xyz 0 1
| 11>   C                      8.333353             5.513837             5.380126
| 12>   O                      9.205957             5.227535             6.419786
| 13>   H                      8.747401             5.686495             7.167722
| 14>   H                      7.288762             5.499684             5.703675
| 15>   H                      8.573081             6.488046             4.882362
| 16>   H                      8.373617             4.670108             4.635545
| 17>   C                      6.966975             8.963217             5.784629
| 18>   O                      8.152332             8.982245             5.088593
| 19>   H                      8.737369             8.528596             5.667445
| 20>   H                      6.592327             9.951192             6.041689
| 21>   H                      6.201679             8.347041             5.273380
| 22>   H                      7.073019             8.433750             6.781599
| 23> *
| 24>
| 25> #Run DFT-D3 single point of the molecule with dimer basis set
| 26> $new_job
| 27> %base "15-135_DFT_A"
| 28> ! wB97X-D3 def2-TZVP TIGHTSCF CHELPG PMODEL
| 29>
| 30> %scf
| 31> MaxIter 1000
| 32> end
| 33>
| 34> * xyz 0 1
| 35>   C                      8.333353             5.513837             5.380126
| 36>   O                      9.205957             5.227535             6.419786
| 37>   H                      8.747401             5.686495             7.167722
| 38>   H                      7.288762             5.499684             5.703675
| 39>   H                      8.573081             6.488046             4.882362
| 40>   H                      8.373617             4.670108             4.635545
| 41>   C                    : 6.966975             8.963217             5.784629
| 42>   O                    : 8.152332             8.982245             5.088593
| 43>   H                    : 8.737369             8.528596             5.667445
| 44>   H                    : 6.592327             9.951192             6.041689
| 45>   H                    : 6.201679             8.347041             5.273380
| 46>   H                    : 7.073019             8.433750             6.781599
| 47> *
| 48>
| 49> #Run DFT-D3 single point of the particle with dimer basis set
| 50> $new_job
| 51> %base "15-135_DFT_B"
| 52> ! wB97X-D3 def2-TZVP TIGHTSCF CHELPG PMODEL
| 53>
| 54> %scf
| 55> MaxIter 1000
| 56> end
| 57>
| 58> * xyz 0 1
| 59>   C                    : 8.333353             5.513837             5.380126
| 60>   O                    : 9.205957             5.227535             6.419786
| 61>   H                    : 8.747401             5.686495             7.167722
| 62>   H                    : 7.288762             5.499684             5.703675
| 63>   H                    : 8.573081             6.488046             4.882362
| 64>   H                    : 8.373617             4.670108             4.635545
| 65>   C                      6.966975             8.963217             5.784629
| 66>   O                      8.152332             8.982245             5.088593
| 67>   H                      8.737369             8.528596             5.667445
| 68>   H                      6.592327             9.951192             6.041689
| 69>   H                      6.201679             8.347041             5.273380
| 70>   H                      7.073019             8.433750             6.781599
| 71> *
| 72>
| 73>                          ****END OF INPUT****
 Total Charge           Charge          ....    0
 Multiplicity           Mult            ....    1
 Number of Electrons    NEL             ....   36
Dispersion correction           -0.002116584
FINAL SINGLE POINT ENERGY      -231.463260191082
Dispersion correction           -0.000225492
FINAL SINGLE POINT ENERGY      -115.731628004413

CARTESIAN COORDINATES (ANGSTROEM)
---------------------------------
  C      8.333353    5.513837    5.380126
  O      9.205957    5.227535    6.419786
  H      8.747401    5.686495    7.167722
  H      7.288762    5.499684    5.703675
  H      8.573081    6.488046    4.882362
  H      8.373617    4.670108    4.635545
  C      6.966975    8.963217    5.784629
  O      8.152332    8.982245    5.088593
  H      8.737369    8.528596    5.667445
  H      6.592327    9.951192    6.041689
  H      6.201679    8.347041    5.273380
  H      7.073019    8.433750    6.781599

 Multiplicity           Mult            ....    1
 Number of Electrons    NEL             ....   18
 Basis Dimension        Dim             ....  172

ORBITAL ENERGIES
----------------

  NO   OCC          E(Eh)            E(eV)
   0   2.0000     -19.233542      -523.3713
   1   2.0000     -10.315700      -280.7045
   2   2.0000      -1.159613       -31.5547
   3   2.0000      -0.790834       -21.5197
   4   2.0000      -0.623370       -16.9628
   5   2.0000      -0.551434       -15.0053
   6   2.0000      -0.529769       -14.4158
   7   2.0000      -0.429726       -11.6934
   8   2.0000      -0.377399       -10.2695
   9   0.0000       0.074868         2.0373
  10   0.0000       0.133141         3.6229
  11   0.0000       0.148535         4.0418
  12   0.0000       0.163277         4.4430
  13   0.0000       0.200715         5.4617

MULLIKEN ATOMIC CHARGES
-----------------------
   0 C :    0.002980
   1 O :    0.000271
   2 H :   -0.000181
   3 H :   -0.000692
   4 H :   -0.015598
   5 H :   -0.000628
   6 C :   -0.175833
   7 O :   -0.443034
   8 H :    0.320451
   9 H :    0.111398
  10 H :    0.105811
  11 H :    0.095056
Sum of atomic charges:    0.0000000

LOEWDIN ATOMIC CHARGES
----------------------
   0 C :   -0.006134
   1 O :   -0.000073
   2 H :   -0.000362
   3 H :   -0.000755
   4 H :   -0.012252
   5 H :   -0.000069
   6 C :   -0.422555
   7 O :   -0.024640
   8 H :    0.166047
   9 H :    0.097083
  10 H :    0.101636
  11 H :    0.102072

  Mayer bond orders larger than 0.1
B(  6-C ,  7-O ) :   1.0047 B(  6-C ,  9-H ) :   0.9727 B(  6-C , 10-H ) :   0.9765
B(  6-C , 11-H ) :   0.9933 B(  7-O ,  8-H ) :   0.9020

Dispersion correction           -0.000228574
FINAL SINGLE POINT ENERGY      -115.731179225575

DIPOLE MOMENT
-------------
                                X             Y             Z
Electronic contribution:      1.56497       0.23206      -1.17282
Nuclear contribution   :     -1.60864      -0.52099       1.81184
                        -----------------------------------------
Total Dipole Moment    :     -0.04368      -0.28892       0.63902
                        -----------------------------------------
Magnitude (a.u.)       :      0.70266
Magnitude (Debye)      :      1.78601

Rotational constants in cm-1:     4.249832     0.866218     0.839258
Rotational constants in MHz : 127406.771978 25968.559600 25160.308245

                             ****ORCA TERMINATED NORMALLY****
TOTAL RUN TIME: 0 days 0 hours 1 minutes 3 seconds 244 msec
