                         Program Version 4.1.2  - RELEASE  -
|  1> #Run DFT-D3 single point of the dimer
|  2> ! wB97X-D3 def2-TZVP TIGHTSCF CHELPG PMODEL PAL8
|  3>
|  4> %base "20-57_DFT_AB"
|  5>
|  6> %scf
|  7> MaxIter 1000
|  8> end
|  9>
| 10> * xyz 0 1
| 11>   C                      6.774995             -8.324252            -6.953877
| 12>   O                      7.881105             -8.521997            -6.079112
| 13>   H                      7.517149             -8.829247            -5.213137
| 14>   H                      6.347906             -9.271718            -7.258913
| 15>   H                      6.000089             -7.780573            -6.407686
| 16>   H                      7.153695             -7.866640            -7.863631
| 17>   C                      4.883630             -10.437436           -9.321815
| 18>   O                      5.023793             -9.844312            -10.564666
| 19>   H                      4.096121             -9.656463            -10.882841
| 20>   H                      4.162019             -9.781550            -8.683206
| 21>   H                      4.288297             -11.358032           -9.378799
| 22>   H                      5.756540             -10.701795           -8.747195
| 23> *
| 24>
| 25> #Run DFT-D3 single point of the molecule with dimer basis set
| 26> $new_job
| 27> %base "20-57_DFT_A"
| 28> ! wB97X-D3 def2-TZVP TIGHTSCF CHELPG PMODEL
| 29>
| 30> %scf
| 31> MaxIter 1000
| 32> end
| 33>
| 34> * xyz 0 1
| 35>   C                      6.774995             -8.324252            -6.953877
| 36>   O                      7.881105             -8.521997            -6.079112
| 37>   H                      7.517149             -8.829247            -5.213137
| 38>   H                      6.347906             -9.271718            -7.258913
| 39>   H                      6.000089             -7.780573            -6.407686
| 40>   H                      7.153695             -7.866640            -7.863631
| 41>   C                    : 4.883630             -10.437436           -9.321815
| 42>   O                    : 5.023793             -9.844312            -10.564666
| 43>   H                    : 4.096121             -9.656463            -10.882841
| 44>   H                    : 4.162019             -9.781550            -8.683206
| 45>   H                    : 4.288297             -11.358032           -9.378799
| 46>   H                    : 5.756540             -10.701795           -8.747195
| 47> *
| 48>
| 49> #Run DFT-D3 single point of the particle with dimer basis set
| 50> $new_job
| 51> %base "20-57_DFT_B"
| 52> ! wB97X-D3 def2-TZVP TIGHTSCF CHELPG PMODEL
| 53>
| 54> %scf
| 55> MaxIter 1000
| 56> end
| 57>
| 58> * xyz 0 1
| 59>   C                    : 6.774995             -8.324252            -6.953877
| 60>   O                    : 7.881105             -8.521997            -6.079112
| 61>   H                    : 7.517149             -8.829247            -5.213137
| 62>   H                    : 6.347906             -9.271718            -7.258913
| 63>   H                    : 6.000089             -7.780573            -6.407686
| 64>   H                    : 7.153695             -7.866640            -7.863631
| 65>   C                      4.883630             -10.437436           -9.321815
| 66>   O                      5.023793             -9.844312            -10.564666
| 67>   H                      4.096121             -9.656463            -10.882841
| 68>   H                      4.162019             -9.781550            -8.683206
| 69>   H                      4.288297             -11.358032           -9.378799
| 70>   H                      5.756540             -10.701795           -8.747195
| 71> *
| 72>
| 73>                          ****END OF INPUT****
 Total Charge           Charge          ....    0
 Multiplicity           Mult            ....    1
 Number of Electrons    NEL             ....   36
Dispersion correction           -0.001497924
FINAL SINGLE POINT ENERGY      -231.460114465572
Dispersion correction           -0.000226969
FINAL SINGLE POINT ENERGY      -115.734285303875

CARTESIAN COORDINATES (ANGSTROEM)
---------------------------------
  C      6.774995   -8.324252   -6.953877
  O      7.881105   -8.521997   -6.079112
  H      7.517149   -8.829247   -5.213137
  H      6.347906   -9.271718   -7.258913
  H      6.000089   -7.780573   -6.407686
  H      7.153695   -7.866640   -7.863631
  C      4.883630  -10.437436   -9.321815
  O      5.023793   -9.844312  -10.564666
  H      4.096121   -9.656463  -10.882841
  H      4.162019   -9.781550   -8.683206
  H      4.288297  -11.358032   -9.378799
  H      5.756540  -10.701795   -8.747195

 Multiplicity           Mult            ....    1
 Number of Electrons    NEL             ....   18
 Basis Dimension        Dim             ....  172

ORBITAL ENERGIES
----------------

  NO   OCC          E(Eh)            E(eV)
   0   2.0000     -19.237097      -523.4680
   1   2.0000     -10.318267      -280.7743
   2   2.0000      -1.142747       -31.0957
   3   2.0000      -0.788137       -21.4463
   4   2.0000      -0.614493       -16.7212
   5   2.0000      -0.543211       -14.7815
   6   2.0000      -0.529987       -14.4217
   7   2.0000      -0.434240       -11.8163
   8   2.0000      -0.364620        -9.9218
   9   0.0000       0.089509         2.4357
  10   0.0000       0.108231         2.9451
  11   0.0000       0.154705         4.2097
  12   0.0000       0.171924         4.6783
  13   0.0000       0.178888         4.8678

MULLIKEN ATOMIC CHARGES
-----------------------
   0 C :    0.008352
   1 O :   -0.000041
   2 H :   -0.000027
   3 H :   -0.011746
   4 H :   -0.000854
   5 H :   -0.000169
   6 C :   -0.175897
   7 O :   -0.462355
   8 H :    0.325636
   9 H :    0.084928
  10 H :    0.098667
  11 H :    0.133506
Sum of atomic charges:   -0.0000000

LOEWDIN ATOMIC CHARGES
----------------------
   0 C :   -0.004593
   1 O :   -0.000016
   2 H :   -0.000001
   3 H :   -0.009802
   4 H :   -0.000206
   5 H :   -0.000199
   6 C :   -0.417315
   7 O :   -0.070509
   8 H :    0.200310
   9 H :    0.102957
  10 H :    0.091369
  11 H :    0.108005

  Mayer bond orders larger than 0.1
B(  6-C ,  7-O ) :   1.0036 B(  6-C ,  9-H ) :   0.9873 B(  6-C , 10-H ) :   0.9684
B(  6-C , 11-H ) :   0.9662 B(  7-O ,  8-H ) :   0.8865

Dispersion correction           -0.000227559
FINAL SINGLE POINT ENERGY      -115.725980294616

DIPOLE MOMENT
-------------
                                X             Y             Z
Electronic contribution:      0.66043       0.76950      -1.74670
Nuclear contribution   :     -1.27104      -0.90052       1.98784
                        -----------------------------------------
Total Dipole Moment    :     -0.61061      -0.13102       0.24114
                        -----------------------------------------
Magnitude (a.u.)       :      0.66945
Magnitude (Debye)      :      1.70160

Rotational constants in cm-1:     4.207095     0.854289     0.811031
Rotational constants in MHz : 126125.549920 25610.952853 24314.097036

                             ****ORCA TERMINATED NORMALLY****
TOTAL RUN TIME: 0 days 0 hours 1 minutes 7 seconds 632 msec
