                         Program Version 4.1.2  - RELEASE  -
|  1> #Run DFT-D3 single point of the dimer
|  2> ! wB97X-D3 def2-TZVP TIGHTSCF CHELPG PMODEL PAL8
|  3>
|  4> %base "8-107_DFT_AB"
|  5>
|  6> %scf
|  7> MaxIter 1000
|  8> end
|  9>
| 10> * xyz 0 1
| 11>   C                      6.607193             -4.525845            4.377470
| 12>   O                      6.373419             -5.532670            3.540175
| 13>   H                      5.453092             -5.878373            3.648403
| 14>   H                      6.456532             -4.812050            5.465561
| 15>   H                      7.700353             -4.239288            4.432152
| 16>   H                      6.134564             -3.540531            4.143520
| 17>   C                      6.699430             -5.657267            -0.260360
| 18>   O                      6.373375             -4.714772            0.735711
| 19>   H                      6.683855             -5.044267            1.572619
| 20>   H                      6.083675             -5.429119            -1.111410
| 21>   H                      7.752837             -5.548398            -0.640329
| 22>   H                      6.603195             -6.639985            0.122955
| 23> *
| 24>
| 25> #Run DFT-D3 single point of the molecule with dimer basis set
| 26> $new_job
| 27> %base "8-107_DFT_A"
| 28> ! wB97X-D3 def2-TZVP TIGHTSCF CHELPG PMODEL
| 29>
| 30> %scf
| 31> MaxIter 1000
| 32> end
| 33>
| 34> * xyz 0 1
| 35>   C                      6.607193             -4.525845            4.377470
| 36>   O                      6.373419             -5.532670            3.540175
| 37>   H                      5.453092             -5.878373            3.648403
| 38>   H                      6.456532             -4.812050            5.465561
| 39>   H                      7.700353             -4.239288            4.432152
| 40>   H                      6.134564             -3.540531            4.143520
| 41>   C                    : 6.699430             -5.657267            -0.260360
| 42>   O                    : 6.373375             -4.714772            0.735711
| 43>   H                    : 6.683855             -5.044267            1.572619
| 44>   H                    : 6.083675             -5.429119            -1.111410
| 45>   H                    : 7.752837             -5.548398            -0.640329
| 46>   H                    : 6.603195             -6.639985            0.122955
| 47> *
| 48>
| 49> #Run DFT-D3 single point of the particle with dimer basis set
| 50> $new_job
| 51> %base "8-107_DFT_B"
| 52> ! wB97X-D3 def2-TZVP TIGHTSCF CHELPG PMODEL
| 53>
| 54> %scf
| 55> MaxIter 1000
| 56> end
| 57>
| 58> * xyz 0 1
| 59>   C                    : 6.607193             -4.525845            4.377470
| 60>   O                    : 6.373419             -5.532670            3.540175
| 61>   H                    : 5.453092             -5.878373            3.648403
| 62>   H                    : 6.456532             -4.812050            5.465561
| 63>   H                    : 7.700353             -4.239288            4.432152
| 64>   H                    : 6.134564             -3.540531            4.143520
| 65>   C                      6.699430             -5.657267            -0.260360
| 66>   O                      6.373375             -4.714772            0.735711
| 67>   H                      6.683855             -5.044267            1.572619
| 68>   H                      6.083675             -5.429119            -1.111410
| 69>   H                      7.752837             -5.548398            -0.640329
| 70>   H                      6.603195             -6.639985            0.122955
| 71> *
| 72>
| 73>                          ****END OF INPUT****
 Total Charge           Charge          ....    0
 Multiplicity           Mult            ....    1
 Number of Electrons    NEL             ....   36
Dispersion correction           -0.001608579
FINAL SINGLE POINT ENERGY      -231.469536545876
Dispersion correction           -0.000250666
FINAL SINGLE POINT ENERGY      -115.727574772425

CARTESIAN COORDINATES (ANGSTROEM)
---------------------------------
  C      6.607193   -4.525845    4.377470
  O      6.373419   -5.532670    3.540175
  H      5.453092   -5.878373    3.648403
  H      6.456532   -4.812050    5.465561
  H      7.700353   -4.239288    4.432152
  H      6.134564   -3.540531    4.143520
  C      6.699430   -5.657267   -0.260360
  O      6.373375   -4.714772    0.735711
  H      6.683855   -5.044267    1.572619
  H      6.083675   -5.429119   -1.111410
  H      7.752837   -5.548398   -0.640329
  H      6.603195   -6.639985    0.122955

 Multiplicity           Mult            ....    1
 Number of Electrons    NEL             ....   18
 Basis Dimension        Dim             ....  172

ORBITAL ENERGIES
----------------

  NO   OCC          E(Eh)            E(eV)
   0   2.0000     -19.228808      -523.2425
   1   2.0000     -10.310154      -280.5536
   2   2.0000      -1.139229       -31.0000
   3   2.0000      -0.797669       -21.7057
   4   2.0000      -0.616799       -16.7840
   5   2.0000      -0.541288       -14.7292
   6   2.0000      -0.527220       -14.3464
   7   2.0000      -0.439785       -11.9672
   8   2.0000      -0.370622       -10.0851
   9   0.0000       0.074174         2.0184
  10   0.0000       0.129077         3.5124
  11   0.0000       0.157563         4.2875
  12   0.0000       0.165985         4.5167
  13   0.0000       0.196904         5.3580

MULLIKEN ATOMIC CHARGES
-----------------------
   0 C :   -0.000022
   1 O :   -0.002712
   2 H :   -0.001156
   3 H :    0.000088
   4 H :   -0.000264
   5 H :   -0.000272
   6 C :   -0.159223
   7 O :   -0.467305
   8 H :    0.308637
   9 H :    0.122437
  10 H :    0.092508
  11 H :    0.107284
Sum of atomic charges:    0.0000000

LOEWDIN ATOMIC CHARGES
----------------------
   0 C :   -0.004207
   1 O :   -0.014977
   2 H :   -0.001964
   3 H :   -0.000061
   4 H :   -0.000225
   5 H :   -0.000299
   6 C :   -0.381069
   7 O :   -0.059419
   8 H :    0.169037
   9 H :    0.105678
  10 H :    0.098547
  11 H :    0.088959

  Mayer bond orders larger than 0.1
B(  6-C ,  7-O ) :   0.9982 B(  6-C ,  9-H ) :   0.9754 B(  6-C , 10-H ) :   0.9751
B(  6-C , 11-H ) :   0.9812 B(  7-O ,  8-H ) :   0.9061

Dispersion correction           -0.000233774
FINAL SINGLE POINT ENERGY      -115.734767574104

DIPOLE MOMENT
-------------
                                X             Y             Z
Electronic contribution:     -0.56832       1.19556       1.18280
Nuclear contribution   :      0.87562      -1.78585      -1.05145
                        -----------------------------------------
Total Dipole Moment    :      0.30730      -0.59029       0.13135
                        -----------------------------------------
Magnitude (a.u.)       :      0.67832
Magnitude (Debye)      :      1.72416

Rotational constants in cm-1:     4.328913     0.843515     0.808239
Rotational constants in MHz : 129777.541019 25287.955581 24230.396137

                             ****ORCA TERMINATED NORMALLY****
TOTAL RUN TIME: 0 days 0 hours 0 minutes 46 seconds 923 msec
