                         Program Version 4.1.2  - RELEASE  -
|  1> #Run DFT-D3 single point of the dimer
|  2> ! wB97X-D3 def2-TZVP TIGHTSCF CHELPG PMODEL PAL8
|  3>
|  4> %base "10-8_DFT_AB"
|  5>
|  6> %scf
|  7> MaxIter 1000
|  8> end
|  9>
| 10> * xyz 0 1
| 11>   C                      -6.423069            5.566092             9.013381
| 12>   O                      -6.490406            6.939785             8.703720
| 13>   H                      -5.816488            7.100692             8.090013
| 14>   H                      -7.316964            5.205827             9.520099
| 15>   H                      -6.371598            4.942767             8.107187
| 16>   H                      -5.565183            5.306817             9.669080
| 17>   C                      -9.184780            8.714281             7.040359
| 18>   O                      -9.900336            9.841214             7.568429
| 19>   H                      -10.801421           9.817498             7.336472
| 20>   H                      -8.281255            9.030008             6.524249
| 21>   H                      -8.829391            8.057116             7.855625
| 22>   H                      -9.874790            8.127572             6.431518
| 23> *
| 24>
| 25> #Run DFT-D3 single point of the molecule with dimer basis set
| 26> $new_job
| 27> %base "10-8_DFT_A"
| 28> ! wB97X-D3 def2-TZVP TIGHTSCF CHELPG PMODEL
| 29>
| 30> %scf
| 31> MaxIter 1000
| 32> end
| 33>
| 34> * xyz 0 1
| 35>   C                      -6.423069            5.566092             9.013381
| 36>   O                      -6.490406            6.939785             8.703720
| 37>   H                      -5.816488            7.100692             8.090013
| 38>   H                      -7.316964            5.205827             9.520099
| 39>   H                      -6.371598            4.942767             8.107187
| 40>   H                      -5.565183            5.306817             9.669080
| 41>   C                    : -9.184780            8.714281             7.040359
| 42>   O                    : -9.900336            9.841214             7.568429
| 43>   H                    : -10.801421           9.817498             7.336472
| 44>   H                    : -8.281255            9.030008             6.524249
| 45>   H                    : -8.829391            8.057116             7.855625
| 46>   H                    : -9.874790            8.127572             6.431518
| 47> *
| 48>
| 49> #Run DFT-D3 single point of the particle with dimer basis set
| 50> $new_job
| 51> %base "10-8_DFT_B"
| 52> ! wB97X-D3 def2-TZVP TIGHTSCF CHELPG PMODEL
| 53>
| 54> %scf
| 55> MaxIter 1000
| 56> end
| 57>
| 58> * xyz 0 1
| 59>   C                    : -6.423069            5.566092             9.013381
| 60>   O                    : -6.490406            6.939785             8.703720
| 61>   H                    : -5.816488            7.100692             8.090013
| 62>   H                    : -7.316964            5.205827             9.520099
| 63>   H                    : -6.371598            4.942767             8.107187
| 64>   H                    : -5.565183            5.306817             9.669080
| 65>   C                      -9.184780            8.714281             7.040359
| 66>   O                      -9.900336            9.841214             7.568429
| 67>   H                      -10.801421           9.817498             7.336472
| 68>   H                      -8.281255            9.030008             6.524249
| 69>   H                      -8.829391            8.057116             7.855625
| 70>   H                      -9.874790            8.127572             6.431518
| 71> *
| 72>
| 73>                          ****END OF INPUT****
 Total Charge           Charge          ....    0
 Multiplicity           Mult            ....    1
 Number of Electrons    NEL             ....   36
Dispersion correction           -0.001341093
FINAL SINGLE POINT ENERGY      -231.469374272249
Dispersion correction           -0.000241908
FINAL SINGLE POINT ENERGY      -115.735204347126

CARTESIAN COORDINATES (ANGSTROEM)
---------------------------------
  C     -6.423069    5.566092    9.013381
  O     -6.490406    6.939785    8.703720
  H     -5.816488    7.100692    8.090013
  H     -7.316964    5.205827    9.520099
  H     -6.371598    4.942767    8.107187
  H     -5.565183    5.306817    9.669080
  C     -9.184780    8.714281    7.040359
  O     -9.900336    9.841214    7.568429
  H    -10.801421    9.817498    7.336472
  H     -8.281255    9.030008    6.524249
  H     -8.829391    8.057116    7.855625
  H     -9.874790    8.127572    6.431518

 Multiplicity           Mult            ....    1
 Number of Electrons    NEL             ....   18
 Basis Dimension        Dim             ....  172

ORBITAL ENERGIES
----------------

  NO   OCC          E(Eh)            E(eV)
   0   2.0000     -19.223493      -523.0978
   1   2.0000     -10.316569      -280.7281
   2   2.0000      -1.132124       -30.8066
   3   2.0000      -0.799765       -21.7627
   4   2.0000      -0.610561       -16.6142
   5   2.0000      -0.538313       -14.6482
   6   2.0000      -0.530065       -14.4238
   7   2.0000      -0.431021       -11.7287
   8   2.0000      -0.371854       -10.1187
   9   0.0000       0.082433         2.2431
  10   0.0000       0.117025         3.1844
  11   0.0000       0.148387         4.0378
  12   0.0000       0.170301         4.6341
  13   0.0000       0.188633         5.1330

MULLIKEN ATOMIC CHARGES
-----------------------
   0 C :   -0.000104
   1 O :    0.000154
   2 H :   -0.000097
   3 H :   -0.000091
   4 H :   -0.000035
   5 H :   -0.000012
   6 C :   -0.163977
   7 O :   -0.480693
   8 H :    0.311597
   9 H :    0.117360
  10 H :    0.109947
  11 H :    0.105949
Sum of atomic charges:    0.0000000

LOEWDIN ATOMIC CHARGES
----------------------
   0 C :   -0.001072
   1 O :   -0.003096
   2 H :   -0.000422
   3 H :   -0.000141
   4 H :   -0.000030
   5 H :   -0.000024
   6 C :   -0.361350
   7 O :   -0.082186
   8 H :    0.145757
   9 H :    0.102272
  10 H :    0.102814
  11 H :    0.097476

  Mayer bond orders larger than 0.1
B(  6-C ,  7-O ) :   1.0015 B(  6-C ,  9-H ) :   0.9731 B(  6-C , 10-H ) :   0.9729
B(  6-C , 11-H ) :   0.9864 B(  7-O ,  8-H ) :   0.9059

Dispersion correction           -0.000254586
FINAL SINGLE POINT ENERGY      -115.733166615472

DIPOLE MOMENT
-------------
                                X             Y             Z
Electronic contribution:     -0.78115       1.46646       0.61759
Nuclear contribution   :      0.47671      -1.95978      -0.99670
                        -----------------------------------------
Total Dipole Moment    :     -0.30444      -0.49332      -0.37911
                        -----------------------------------------
Magnitude (a.u.)       :      0.69266
Magnitude (Debye)      :      1.76059

Rotational constants in cm-1:     4.358940     0.812761     0.780663
Rotational constants in MHz : 130677.731612 24365.959644 23403.695017

                             ****ORCA TERMINATED NORMALLY****
TOTAL RUN TIME: 0 days 0 hours 1 minutes 3 seconds 408 msec
