                         Program Version 4.1.2  - RELEASE  -
|  1> #Run DFT-D3 single point of the dimer
|  2> ! wB97X-D3 def2-TZVP TIGHTSCF CHELPG PMODEL PAL8
|  3>
|  4> %base "1-127_DFT_AB"
|  5>
|  6> %scf
|  7> MaxIter 1000
|  8> end
|  9>
| 10> * xyz 0 1
| 11>   C                      8.306979             -1.199292            -5.182348
| 12>   O                      7.537905             -1.703815            -6.246899
| 13>   H                      7.832907             -1.390369            -7.097220
| 14>   H                      8.184739             -0.143854            -5.200148
| 15>   H                      8.096430             -1.585496            -4.205000
| 16>   H                      9.355720             -1.370345            -5.333518
| 17>   C                      2.751521             -1.597827            -1.885978
| 18>   O                      3.773817             -1.661260            -2.863987
| 19>   H                      3.679753             -0.888803            -3.452431
| 20>   H                      2.724671             -2.546805            -1.320822
| 21>   H                      2.854509             -0.898560            -1.090563
| 22>   H                      1.743488             -1.457606            -2.216906
| 23> *
| 24>
| 25> #Run DFT-D3 single point of the molecule with dimer basis set
| 26> $new_job
| 27> %base "1-127_DFT_A"
| 28> ! wB97X-D3 def2-TZVP TIGHTSCF CHELPG PMODEL
| 29>
| 30> %scf
| 31> MaxIter 1000
| 32> end
| 33>
| 34> * xyz 0 1
| 35>   C                      8.306979             -1.199292            -5.182348
| 36>   O                      7.537905             -1.703815            -6.246899
| 37>   H                      7.832907             -1.390369            -7.097220
| 38>   H                      8.184739             -0.143854            -5.200148
| 39>   H                      8.096430             -1.585496            -4.205000
| 40>   H                      9.355720             -1.370345            -5.333518
| 41>   C                    : 2.751521             -1.597827            -1.885978
| 42>   O                    : 3.773817             -1.661260            -2.863987
| 43>   H                    : 3.679753             -0.888803            -3.452431
| 44>   H                    : 2.724671             -2.546805            -1.320822
| 45>   H                    : 2.854509             -0.898560            -1.090563
| 46>   H                    : 1.743488             -1.457606            -2.216906
| 47> *
| 48>
| 49> #Run DFT-D3 single point of the particle with dimer basis set
| 50> $new_job
| 51> %base "1-127_DFT_B"
| 52> ! wB97X-D3 def2-TZVP TIGHTSCF CHELPG PMODEL
| 53>
| 54> %scf
| 55> MaxIter 1000
| 56> end
| 57>
| 58> * xyz 0 1
| 59>   C                    : 8.306979             -1.199292            -5.182348
| 60>   O                    : 7.537905             -1.703815            -6.246899
| 61>   H                    : 7.832907             -1.390369            -7.097220
| 62>   H                    : 8.184739             -0.143854            -5.200148
| 63>   H                    : 8.096430             -1.585496            -4.205000
| 64>   H                    : 9.355720             -1.370345            -5.333518
| 65>   C                      2.751521             -1.597827            -1.885978
| 66>   O                      3.773817             -1.661260            -2.863987
| 67>   H                      3.679753             -0.888803            -3.452431
| 68>   H                      2.724671             -2.546805            -1.320822
| 69>   H                      2.854509             -0.898560            -1.090563
| 70>   H                      1.743488             -1.457606            -2.216906
| 71> *
| 72>
| 73>                          ****END OF INPUT****
 Total Charge           Charge          ....    0
 Multiplicity           Mult            ....    1
 Number of Electrons    NEL             ....   36
Dispersion correction           -0.000642541
FINAL SINGLE POINT ENERGY      -231.462878747007
Dispersion correction           -0.000227317
FINAL SINGLE POINT ENERGY      -115.731136705559

CARTESIAN COORDINATES (ANGSTROEM)
---------------------------------
  C      8.306979   -1.199292   -5.182348
  O      7.537905   -1.703815   -6.246899
  H      7.832907   -1.390369   -7.097220
  H      8.184739   -0.143854   -5.200148
  H      8.096430   -1.585496   -4.205000
  H      9.355720   -1.370345   -5.333518
  C      2.751521   -1.597827   -1.885978
  O      3.773817   -1.661260   -2.863987
  H      3.679753   -0.888803   -3.452431
  H      2.724671   -2.546805   -1.320822
  H      2.854509   -0.898560   -1.090563
  H      1.743488   -1.457606   -2.216906

 Multiplicity           Mult            ....    1
 Number of Electrons    NEL             ....   18
 Basis Dimension        Dim             ....  172

ORBITAL ENERGIES
----------------

  NO   OCC          E(Eh)            E(eV)
   0   2.0000     -19.237613      -523.4821
   1   2.0000     -10.307520      -280.4819
   2   2.0000      -1.134438       -30.8696
   3   2.0000      -0.802227       -21.8297
   4   2.0000      -0.616251       -16.7690
   5   2.0000      -0.538053       -14.6412
   6   2.0000      -0.522832       -14.2270
   7   2.0000      -0.435283       -11.8446
   8   2.0000      -0.377615       -10.2754
   9   0.0000       0.089347         2.4313
  10   0.0000       0.116139         3.1603
  11   0.0000       0.148472         4.0401
  12   0.0000       0.168503         4.5852
  13   0.0000       0.199491         5.4284

MULLIKEN ATOMIC CHARGES
-----------------------
   0 C :   -0.000009
   1 O :    0.000019
   2 H :    0.000002
   3 H :    0.000013
   4 H :   -0.000299
   5 H :   -0.000016
   6 C :   -0.173478
   7 O :   -0.465984
   8 H :    0.316559
   9 H :    0.116515
  10 H :    0.102480
  11 H :    0.104198
Sum of atomic charges:   -0.0000000

LOEWDIN ATOMIC CHARGES
----------------------
   0 C :   -0.000073
   1 O :   -0.000003
   2 H :   -0.000000
   3 H :   -0.000002
   4 H :   -0.000096
   5 H :   -0.000003
   6 C :   -0.393691
   7 O :   -0.076546
   8 H :    0.179256
   9 H :    0.113498
  10 H :    0.087688
  11 H :    0.089972

  Mayer bond orders larger than 0.1
B(  6-C ,  7-O ) :   1.0134 B(  6-C ,  9-H ) :   0.9780 B(  6-C , 10-H ) :   0.9718
B(  6-C , 11-H ) :   0.9749 B(  7-O ,  8-H ) :   0.8960

Dispersion correction           -0.000269069
FINAL SINGLE POINT ENERGY      -115.731793800416

DIPOLE MOMENT
-------------
                                X             Y             Z
Electronic contribution:      1.44042      -0.10018      -1.36537
Nuclear contribution   :     -1.91099       0.60980       1.38533
                        -----------------------------------------
Total Dipole Moment    :     -0.47057       0.50962       0.01996
                        -----------------------------------------
Magnitude (a.u.)       :      0.69394
Magnitude (Debye)      :      1.76385

Rotational constants in cm-1:     4.605369     0.815447     0.782823
Rotational constants in MHz : 138065.496641 24446.486755 23468.452351

                             ****ORCA TERMINATED NORMALLY****
TOTAL RUN TIME: 0 days 0 hours 5 minutes 37 seconds 970 msec
