                         Program Version 4.1.2  - RELEASE  -
|  1> #Run DFT-D3 single point of the dimer
|  2> ! wB97X-D3 def2-TZVP TIGHTSCF CHELPG PMODEL PAL8
|  3>
|  4> %base "9-148_DFT_AB"
|  5>
|  6> %scf
|  7> MaxIter 1000
|  8> end
|  9>
| 10> * xyz 0 1
| 11>   C                      3.223272             -2.438549            -3.423664
| 12>   O                      3.022313             -1.536234            -2.328984
| 13>   H                      3.613779             -1.773464            -1.680100
| 14>   H                      4.288692             -2.640440            -3.533088
| 15>   H                      2.703304             -3.430729            -3.213615
| 16>   H                      2.902876             -2.032643            -4.407125
| 17>   C                      2.403711             2.233500             -2.240277
| 18>   O                      2.961890             1.900304             -3.510987
| 19>   H                      2.285466             2.224040             -4.178838
| 20>   H                      3.212827             2.323104             -1.545528
| 21>   H                      1.740199             3.100437             -2.266122
| 22>   H                      1.691648             1.586078             -1.791668
| 23> *
| 24>
| 25> #Run DFT-D3 single point of the molecule with dimer basis set
| 26> $new_job
| 27> %base "9-148_DFT_A"
| 28> ! wB97X-D3 def2-TZVP TIGHTSCF CHELPG PMODEL
| 29>
| 30> %scf
| 31> MaxIter 1000
| 32> end
| 33>
| 34> * xyz 0 1
| 35>   C                      3.223272             -2.438549            -3.423664
| 36>   O                      3.022313             -1.536234            -2.328984
| 37>   H                      3.613779             -1.773464            -1.680100
| 38>   H                      4.288692             -2.640440            -3.533088
| 39>   H                      2.703304             -3.430729            -3.213615
| 40>   H                      2.902876             -2.032643            -4.407125
| 41>   C                    : 2.403711             2.233500             -2.240277
| 42>   O                    : 2.961890             1.900304             -3.510987
| 43>   H                    : 2.285466             2.224040             -4.178838
| 44>   H                    : 3.212827             2.323104             -1.545528
| 45>   H                    : 1.740199             3.100437             -2.266122
| 46>   H                    : 1.691648             1.586078             -1.791668
| 47> *
| 48>
| 49> #Run DFT-D3 single point of the particle with dimer basis set
| 50> $new_job
| 51> %base "9-148_DFT_B"
| 52> ! wB97X-D3 def2-TZVP TIGHTSCF CHELPG PMODEL
| 53>
| 54> %scf
| 55> MaxIter 1000
| 56> end
| 57>
| 58> * xyz 0 1
| 59>   C                    : 3.223272             -2.438549            -3.423664
| 60>   O                    : 3.022313             -1.536234            -2.328984
| 61>   H                    : 3.613779             -1.773464            -1.680100
| 62>   H                    : 4.288692             -2.640440            -3.533088
| 63>   H                    : 2.703304             -3.430729            -3.213615
| 64>   H                    : 2.902876             -2.032643            -4.407125
| 65>   C                      2.403711             2.233500             -2.240277
| 66>   O                      2.961890             1.900304             -3.510987
| 67>   H                      2.285466             2.224040             -4.178838
| 68>   H                      3.212827             2.323104             -1.545528
| 69>   H                      1.740199             3.100437             -2.266122
| 70>   H                      1.691648             1.586078             -1.791668
| 71> *
| 72>
| 73>                          ****END OF INPUT****
 Total Charge           Charge          ....    0
 Multiplicity           Mult            ....    1
 Number of Electrons    NEL             ....   36
Dispersion correction           -0.001230514
FINAL SINGLE POINT ENERGY      -231.457492339169
Dispersion correction           -0.000247424
FINAL SINGLE POINT ENERGY      -115.731352259373

CARTESIAN COORDINATES (ANGSTROEM)
---------------------------------
  C      3.223272   -2.438549   -3.423664
  O      3.022313   -1.536234   -2.328984
  H      3.613779   -1.773464   -1.680100
  H      4.288692   -2.640440   -3.533088
  H      2.703304   -3.430729   -3.213615
  H      2.902876   -2.032643   -4.407125
  C      2.403711    2.233500   -2.240277
  O      2.961890    1.900304   -3.510987
  H      2.285466    2.224040   -4.178838
  H      3.212827    2.323104   -1.545528
  H      1.740199    3.100437   -2.266122
  H      1.691648    1.586078   -1.791668

 Multiplicity           Mult            ....    1
 Number of Electrons    NEL             ....   18
 Basis Dimension        Dim             ....  172

ORBITAL ENERGIES
----------------

  NO   OCC          E(Eh)            E(eV)
   0   2.0000     -19.238956      -523.5186
   1   2.0000     -10.307826      -280.4902
   2   2.0000      -1.127827       -30.6897
   3   2.0000      -0.799933       -21.7673
   4   2.0000      -0.615439       -16.7469
   5   2.0000      -0.528534       -14.3821
   6   2.0000      -0.524544       -14.2736
   7   2.0000      -0.446974       -12.1628
   8   2.0000      -0.371265       -10.1026
   9   0.0000       0.090359         2.4588
  10   0.0000       0.111912         3.0453
  11   0.0000       0.146808         3.9949
  12   0.0000       0.175610         4.7786
  13   0.0000       0.195381         5.3166

MULLIKEN ATOMIC CHARGES
-----------------------
   0 C :   -0.000763
   1 O :    0.000100
   2 H :    0.000009
   3 H :    0.000072
   4 H :   -0.000043
   5 H :   -0.000781
   6 C :   -0.174017
   7 O :   -0.465145
   8 H :    0.315823
   9 H :    0.120080
  10 H :    0.101807
  11 H :    0.102860
Sum of atomic charges:   -0.0000000

LOEWDIN ATOMIC CHARGES
----------------------
   0 C :   -0.000991
   1 O :   -0.000758
   2 H :   -0.000068
   3 H :   -0.000010
   4 H :   -0.000020
   5 H :   -0.000396
   6 C :   -0.384949
   7 O :   -0.097323
   8 H :    0.195724
   9 H :    0.103544
  10 H :    0.096982
  11 H :    0.088266

  Mayer bond orders larger than 0.1
B(  6-C ,  7-O ) :   1.0087 B(  6-C ,  9-H ) :   0.9818 B(  6-C , 10-H ) :   0.9814
B(  6-C , 11-H ) :   0.9646 B(  7-O ,  8-H ) :   0.8966

Dispersion correction           -0.000253635
FINAL SINGLE POINT ENERGY      -115.726765514947

DIPOLE MOMENT
-------------
                                X             Y             Z
Electronic contribution:      0.94819      -0.53093      -1.60735
Nuclear contribution   :     -1.60299       0.86748       1.69864
                        -----------------------------------------
Total Dipole Moment    :     -0.65481       0.33656       0.09129
                        -----------------------------------------
Magnitude (a.u.)       :      0.74187
Magnitude (Debye)      :      1.88569

Rotational constants in cm-1:     4.439930     0.824090     0.774393
Rotational constants in MHz : 133105.744877 24705.605420 23215.716626

                             ****ORCA TERMINATED NORMALLY****
TOTAL RUN TIME: 0 days 0 hours 0 minutes 42 seconds 408 msec
