                         Program Version 4.1.2  - RELEASE  -
|  1> #Run DFT-D3 single point of the dimer
|  2> ! wB97X-D3 def2-TZVP TIGHTSCF CHELPG PMODEL PAL8
|  3>
|  4> %base "6-197_DFT_AB"
|  5>
|  6> %scf
|  7> MaxIter 1000
|  8> end
|  9>
| 10> * xyz 0 1
| 11>   C                      -9.227217            -2.409498            -4.657678
| 12>   O                      -9.884225            -3.176942            -3.650494
| 13>   H                      -10.627733           -3.639017            -4.113338
| 14>   H                      -9.297818            -1.377053            -4.344383
| 15>   H                      -8.123204            -2.537847            -4.645446
| 16>   H                      -9.576016            -2.590265            -5.672001
| 17>   C                      -10.750519           -6.381352            -5.604903
| 18>   O                      -10.213639           -5.480661            -4.654505
| 19>   H                      -9.521781            -5.891960            -4.244699
| 20>   H                      -10.805629           -7.369471            -5.134874
| 21>   H                      -11.775779           -6.086972            -5.966122
| 22>   H                      -10.058421           -6.485237            -6.413855
| 23> *
| 24>
| 25> #Run DFT-D3 single point of the molecule with dimer basis set
| 26> $new_job
| 27> %base "6-197_DFT_A"
| 28> ! wB97X-D3 def2-TZVP TIGHTSCF CHELPG PMODEL
| 29>
| 30> %scf
| 31> MaxIter 1000
| 32> end
| 33>
| 34> * xyz 0 1
| 35>   C                      -9.227217            -2.409498            -4.657678
| 36>   O                      -9.884225            -3.176942            -3.650494
| 37>   H                      -10.627733           -3.639017            -4.113338
| 38>   H                      -9.297818            -1.377053            -4.344383
| 39>   H                      -8.123204            -2.537847            -4.645446
| 40>   H                      -9.576016            -2.590265            -5.672001
| 41>   C                    : -10.750519           -6.381352            -5.604903
| 42>   O                    : -10.213639           -5.480661            -4.654505
| 43>   H                    : -9.521781            -5.891960            -4.244699
| 44>   H                    : -10.805629           -7.369471            -5.134874
| 45>   H                    : -11.775779           -6.086972            -5.966122
| 46>   H                    : -10.058421           -6.485237            -6.413855
| 47> *
| 48>
| 49> #Run DFT-D3 single point of the particle with dimer basis set
| 50> $new_job
| 51> %base "6-197_DFT_B"
| 52> ! wB97X-D3 def2-TZVP TIGHTSCF CHELPG PMODEL
| 53>
| 54> %scf
| 55> MaxIter 1000
| 56> end
| 57>
| 58> * xyz 0 1
| 59>   C                    : -9.227217            -2.409498            -4.657678
| 60>   O                    : -9.884225            -3.176942            -3.650494
| 61>   H                    : -10.627733           -3.639017            -4.113338
| 62>   H                    : -9.297818            -1.377053            -4.344383
| 63>   H                    : -8.123204            -2.537847            -4.645446
| 64>   H                    : -9.576016            -2.590265            -5.672001
| 65>   C                      -10.750519           -6.381352            -5.604903
| 66>   O                      -10.213639           -5.480661            -4.654505
| 67>   H                      -9.521781            -5.891960            -4.244699
| 68>   H                      -10.805629           -7.369471            -5.134874
| 69>   H                      -11.775779           -6.086972            -5.966122
| 70>   H                      -10.058421           -6.485237            -6.413855
| 71> *
| 72>
| 73>                          ****END OF INPUT****
 Total Charge           Charge          ....    0
 Multiplicity           Mult            ....    1
 Number of Electrons    NEL             ....   36
Dispersion correction           -0.001803574
FINAL SINGLE POINT ENERGY      -231.463059429598
Dispersion correction           -0.000255419
FINAL SINGLE POINT ENERGY      -115.731818167955

CARTESIAN COORDINATES (ANGSTROEM)
---------------------------------
  C     -9.227217   -2.409498   -4.657678
  O     -9.884225   -3.176942   -3.650494
  H    -10.627733   -3.639017   -4.113338
  H     -9.297818   -1.377053   -4.344383
  H     -8.123204   -2.537847   -4.645446
  H     -9.576016   -2.590265   -5.672001
  C    -10.750519   -6.381352   -5.604903
  O    -10.213639   -5.480661   -4.654505
  H     -9.521781   -5.891960   -4.244699
  H    -10.805629   -7.369471   -5.134874
  H    -11.775779   -6.086972   -5.966122
  H    -10.058421   -6.485237   -6.413855

 Multiplicity           Mult            ....    1
 Number of Electrons    NEL             ....   18
 Basis Dimension        Dim             ....  172

ORBITAL ENERGIES
----------------

  NO   OCC          E(Eh)            E(eV)
   0   2.0000     -19.223398      -523.0953
   1   2.0000     -10.316015      -280.7130
   2   2.0000      -1.148352       -31.2483
   3   2.0000      -0.799587       -21.7579
   4   2.0000      -0.617986       -16.8163
   5   2.0000      -0.544786       -14.8244
   6   2.0000      -0.530610       -14.4386
   7   2.0000      -0.435397       -11.8478
   8   2.0000      -0.373539       -10.1645
   9   0.0000       0.100142         2.7250
  10   0.0000       0.129647         3.5279
  11   0.0000       0.156832         4.2676
  12   0.0000       0.187796         5.1102
  13   0.0000       0.200631         5.4595

MULLIKEN ATOMIC CHARGES
-----------------------
   0 C :   -0.004759
   1 O :    0.008478
   2 H :   -0.013252
   3 H :   -0.000609
   4 H :   -0.000559
   5 H :   -0.001454
   6 C :   -0.155196
   7 O :   -0.457351
   8 H :    0.301021
   9 H :    0.100698
  10 H :    0.119040
  11 H :    0.103943
Sum of atomic charges:    0.0000000

LOEWDIN ATOMIC CHARGES
----------------------
   0 C :   -0.011247
   1 O :   -0.018720
   2 H :   -0.036120
   3 H :   -0.000238
   4 H :   -0.000454
   5 H :   -0.001873
   6 C :   -0.370993
   7 O :    0.004149
   8 H :    0.132082
   9 H :    0.097581
  10 H :    0.115751
  11 H :    0.090082

  Mayer bond orders larger than 0.1
B(  6-C ,  7-O ) :   0.9816 B(  6-C ,  9-H ) :   0.9832 B(  6-C , 10-H ) :   0.9730
B(  6-C , 11-H ) :   0.9758 B(  7-O ,  8-H ) :   0.9112

Dispersion correction           -0.000219736
FINAL SINGLE POINT ENERGY      -115.730804235991

DIPOLE MOMENT
-------------
                                X             Y             Z
Electronic contribution:      0.54876       1.27157       1.11706
Nuclear contribution   :     -0.31312      -1.93367      -1.23277
                        -----------------------------------------
Total Dipole Moment    :      0.23564      -0.66210      -0.11571
                        -----------------------------------------
Magnitude (a.u.)       :      0.71225
Magnitude (Debye)      :      1.81038

Rotational constants in cm-1:     4.343025     0.838680     0.804539
Rotational constants in MHz : 130200.620528 25142.994858 24119.483482

                             ****ORCA TERMINATED NORMALLY****
TOTAL RUN TIME: 0 days 0 hours 1 minutes 8 seconds 568 msec
