                         Program Version 4.1.2  - RELEASE  -
|  1> #Run DFT-D3 single point of the dimer
|  2> ! wB97X-D3 def2-TZVP TIGHTSCF CHELPG PMODEL PAL8
|  3>
|  4> %base "7-155_DFT_AB"
|  5>
|  6> %scf
|  7> MaxIter 1000
|  8> end
|  9>
| 10> * xyz 0 1
| 11>   C                      -9.139240            8.319083             1.476346
| 12>   O                      -8.010366            7.972983             0.697965
| 13>   H                      -7.540517            8.761070             0.432908
| 14>   H                      -9.768225            8.955373             0.903564
| 15>   H                      -9.783392            7.442509             1.740151
| 16>   H                      -8.859082            8.852121             2.322857
| 17>   C                      -7.646360            9.044873             -2.935009
| 18>   O                      -6.895352            7.881883             -2.856566
| 19>   H                      -6.917512            7.440230             -2.024012
| 20>   H                      -8.691625            8.860502             -2.725810
| 21>   H                      -7.337985            9.821476             -2.248945
| 22>   H                      -7.476254            9.658602             -3.836094
| 23> *
| 24>
| 25> #Run DFT-D3 single point of the molecule with dimer basis set
| 26> $new_job
| 27> %base "7-155_DFT_A"
| 28> ! wB97X-D3 def2-TZVP TIGHTSCF CHELPG PMODEL
| 29>
| 30> %scf
| 31> MaxIter 1000
| 32> end
| 33>
| 34> * xyz 0 1
| 35>   C                      -9.139240            8.319083             1.476346
| 36>   O                      -8.010366            7.972983             0.697965
| 37>   H                      -7.540517            8.761070             0.432908
| 38>   H                      -9.768225            8.955373             0.903564
| 39>   H                      -9.783392            7.442509             1.740151
| 40>   H                      -8.859082            8.852121             2.322857
| 41>   C                    : -7.646360            9.044873             -2.935009
| 42>   O                    : -6.895352            7.881883             -2.856566
| 43>   H                    : -6.917512            7.440230             -2.024012
| 44>   H                    : -8.691625            8.860502             -2.725810
| 45>   H                    : -7.337985            9.821476             -2.248945
| 46>   H                    : -7.476254            9.658602             -3.836094
| 47> *
| 48>
| 49> #Run DFT-D3 single point of the particle with dimer basis set
| 50> $new_job
| 51> %base "7-155_DFT_B"
| 52> ! wB97X-D3 def2-TZVP TIGHTSCF CHELPG PMODEL
| 53>
| 54> %scf
| 55> MaxIter 1000
| 56> end
| 57>
| 58> * xyz 0 1
| 59>   C                    : -9.139240            8.319083             1.476346
| 60>   O                    : -8.010366            7.972983             0.697965
| 61>   H                    : -7.540517            8.761070             0.432908
| 62>   H                    : -9.768225            8.955373             0.903564
| 63>   H                    : -9.783392            7.442509             1.740151
| 64>   H                    : -8.859082            8.852121             2.322857
| 65>   C                      -7.646360            9.044873             -2.935009
| 66>   O                      -6.895352            7.881883             -2.856566
| 67>   H                      -6.917512            7.440230             -2.024012
| 68>   H                      -8.691625            8.860502             -2.725810
| 69>   H                      -7.337985            9.821476             -2.248945
| 70>   H                      -7.476254            9.658602             -3.836094
| 71> *
| 72>
| 73>                          ****END OF INPUT****
 Total Charge           Charge          ....    0
 Multiplicity           Mult            ....    1
 Number of Electrons    NEL             ....   36
Dispersion correction           -0.001596165
FINAL SINGLE POINT ENERGY      -231.464319924685
Dispersion correction           -0.000225351
FINAL SINGLE POINT ENERGY      -115.732325810516

CARTESIAN COORDINATES (ANGSTROEM)
---------------------------------
  C     -9.139240    8.319083    1.476346
  O     -8.010366    7.972983    0.697965
  H     -7.540517    8.761070    0.432908
  H     -9.768225    8.955373    0.903564
  H     -9.783392    7.442509    1.740151
  H     -8.859082    8.852121    2.322857
  C     -7.646360    9.044873   -2.935009
  O     -6.895352    7.881883   -2.856566
  H     -6.917512    7.440230   -2.024012
  H     -8.691625    8.860502   -2.725810
  H     -7.337985    9.821476   -2.248945
  H     -7.476254    9.658602   -3.836094

 Multiplicity           Mult            ....    1
 Number of Electrons    NEL             ....   18
 Basis Dimension        Dim             ....  172

ORBITAL ENERGIES
----------------

  NO   OCC          E(Eh)            E(eV)
   0   2.0000     -19.227593      -523.2094
   1   2.0000     -10.309765      -280.5430
   2   2.0000      -1.143526       -31.1169
   3   2.0000      -0.803622       -21.8677
   4   2.0000      -0.623679       -16.9712
   5   2.0000      -0.554645       -15.0927
   6   2.0000      -0.521660       -14.1951
   7   2.0000      -0.420493       -11.4422
   8   2.0000      -0.372137       -10.1264
   9   0.0000       0.074336         2.0228
  10   0.0000       0.121961         3.3187
  11   0.0000       0.147794         4.0217
  12   0.0000       0.172770         4.7013
  13   0.0000       0.194326         5.2879

MULLIKEN ATOMIC CHARGES
-----------------------
   0 C :   -0.000069
   1 O :   -0.000298
   2 H :   -0.000120
   3 H :   -0.000185
   4 H :   -0.000006
   5 H :   -0.000012
   6 C :   -0.158936
   7 O :   -0.481661
   8 H :    0.318489
   9 H :    0.102811
  10 H :    0.096862
  11 H :    0.123125
Sum of atomic charges:    0.0000000

LOEWDIN ATOMIC CHARGES
----------------------
   0 C :   -0.000204
   1 O :   -0.001300
   2 H :   -0.001543
   3 H :   -0.000080
   4 H :   -0.000002
   5 H :   -0.000003
   6 C :   -0.408378
   7 O :   -0.046964
   8 H :    0.158702
   9 H :    0.093035
  10 H :    0.091806
  11 H :    0.114930

  Mayer bond orders larger than 0.1
B(  6-C ,  7-O ) :   0.9973 B(  6-C ,  9-H ) :   0.9819 B(  6-C , 10-H ) :   0.9752
B(  6-C , 11-H ) :   0.9687 B(  7-O ,  8-H ) :   0.8966

Dispersion correction           -0.000251801
FINAL SINGLE POINT ENERGY      -115.728774575668

DIPOLE MOMENT
-------------
                                X             Y             Z
Electronic contribution:      0.97724      -1.64843      -0.06096
Nuclear contribution   :     -1.26882       1.84379       0.59553
                        -----------------------------------------
Total Dipole Moment    :     -0.29158       0.19536       0.53457
                        -----------------------------------------
Magnitude (a.u.)       :      0.63949
Magnitude (Debye)      :      1.62546

Rotational constants in cm-1:     4.629033     0.839445     0.810448
Rotational constants in MHz : 138774.932952 25165.916767 24296.610990

                             ****ORCA TERMINATED NORMALLY****
TOTAL RUN TIME: 0 days 0 hours 0 minutes 59 seconds 236 msec
