                         Program Version 4.1.2  - RELEASE  -
|  1> #Run DFT-D3 single point of the dimer
|  2> ! wB97X-D3 def2-TZVP TIGHTSCF CHELPG PMODEL PAL8
|  3>
|  4> %base "16-36_DFT_AB"
|  5>
|  6> %scf
|  7> MaxIter 1000
|  8> end
|  9>
| 10> * xyz 0 1
| 11>   C                      -9.948473            -1.812941            5.438624
| 12>   O                      -9.656483            -1.904055            6.869065
| 13>   H                      -8.898172            -2.436655            7.042660
| 14>   H                      -10.795136           -1.169837            5.194730
| 15>   H                      -9.039130            -1.454169            4.871001
| 16>   H                      -10.203844           -2.769139            4.921275
| 17>   C                      -8.200518            -4.451481            1.702996
| 18>   O                      -9.167905            -4.072899            2.699472
| 19>   H                      -8.544168            -3.580297            3.241213
| 20>   H                      -8.172992            -3.708878            0.924839
| 21>   H                      -7.195505            -4.605369            2.220845
| 22>   H                      -8.458695            -5.402867            1.246190
| 23> *
| 24>
| 25> #Run DFT-D3 single point of the molecule with dimer basis set
| 26> $new_job
| 27> %base "16-36_DFT_A"
| 28> ! wB97X-D3 def2-TZVP TIGHTSCF CHELPG PMODEL
| 29>
| 30> %scf
| 31> MaxIter 1000
| 32> end
| 33>
| 34> * xyz 0 1
| 35>   C                      -9.948473            -1.812941            5.438624
| 36>   O                      -9.656483            -1.904055            6.869065
| 37>   H                      -8.898172            -2.436655            7.042660
| 38>   H                      -10.795136           -1.169837            5.194730
| 39>   H                      -9.039130            -1.454169            4.871001
| 40>   H                      -10.203844           -2.769139            4.921275
| 41>   C                    : -8.200518            -4.451481            1.702996
| 42>   O                    : -9.167905            -4.072899            2.699472
| 43>   H                    : -8.544168            -3.580297            3.241213
| 44>   H                    : -8.172992            -3.708878            0.924839
| 45>   H                    : -7.195505            -4.605369            2.220845
| 46>   H                    : -8.458695            -5.402867            1.246190
| 47> *
| 48>
| 49> #Run DFT-D3 single point of the particle with dimer basis set
| 50> $new_job
| 51> %base "16-36_DFT_B"
| 52> ! wB97X-D3 def2-TZVP TIGHTSCF CHELPG PMODEL
| 53>
| 54> %scf
| 55> MaxIter 1000
| 56> end
| 57>
| 58> * xyz 0 1
| 59>   C                    : -9.948473            -1.812941            5.438624
| 60>   O                    : -9.656483            -1.904055            6.869065
| 61>   H                    : -8.898172            -2.436655            7.042660
| 62>   H                    : -10.795136           -1.169837            5.194730
| 63>   H                    : -9.039130            -1.454169            4.871001
| 64>   H                    : -10.203844           -2.769139            4.921275
| 65>   C                      -8.200518            -4.451481            1.702996
| 66>   O                      -9.167905            -4.072899            2.699472
| 67>   H                      -8.544168            -3.580297            3.241213
| 68>   H                      -8.172992            -3.708878            0.924839
| 69>   H                      -7.195505            -4.605369            2.220845
| 70>   H                      -8.458695            -5.402867            1.246190
| 71> *
| 72>
| 73>                          ****END OF INPUT****
 Total Charge           Charge          ....    0
 Multiplicity           Mult            ....    1
 Number of Electrons    NEL             ....   36
Dispersion correction           -0.001392081
FINAL SINGLE POINT ENERGY      -231.460426740175
Dispersion correction           -0.000296861
FINAL SINGLE POINT ENERGY      -115.730307104540

CARTESIAN COORDINATES (ANGSTROEM)
---------------------------------
  C     -9.948473   -1.812941    5.438624
  O     -9.656483   -1.904055    6.869065
  H     -8.898172   -2.436655    7.042660
  H    -10.795136   -1.169837    5.194730
  H     -9.039130   -1.454169    4.871001
  H    -10.203844   -2.769139    4.921275
  C     -8.200518   -4.451481    1.702996
  O     -9.167905   -4.072899    2.699472
  H     -8.544168   -3.580297    3.241213
  H     -8.172992   -3.708878    0.924839
  H     -7.195505   -4.605369    2.220845
  H     -8.458695   -5.402867    1.246190

 Multiplicity           Mult            ....    1
 Number of Electrons    NEL             ....   18
 Basis Dimension        Dim             ....  172

ORBITAL ENERGIES
----------------

  NO   OCC          E(Eh)            E(eV)
   0   2.0000     -19.232781      -523.3506
   1   2.0000     -10.319175      -280.7990
   2   2.0000      -1.137420       -30.9508
   3   2.0000      -0.789715       -21.4892
   4   2.0000      -0.601900       -16.3785
   5   2.0000      -0.548261       -14.9189
   6   2.0000      -0.522795       -14.2260
   7   2.0000      -0.442640       -12.0449
   8   2.0000      -0.376838       -10.2543
   9   0.0000       0.080942         2.2026
  10   0.0000       0.122270         3.3271
  11   0.0000       0.156079         4.2471
  12   0.0000       0.168743         4.5917
  13   0.0000       0.192218         5.2305

MULLIKEN ATOMIC CHARGES
-----------------------
   0 C :   -0.001164
   1 O :    0.000015
   2 H :    0.000010
   3 H :    0.000155
   4 H :   -0.001079
   5 H :   -0.002771
   6 C :   -0.184797
   7 O :   -0.454135
   8 H :    0.318313
   9 H :    0.109044
  10 H :    0.099565
  11 H :    0.116844
Sum of atomic charges:   -0.0000000

LOEWDIN ATOMIC CHARGES
----------------------
   0 C :   -0.003971
   1 O :   -0.000033
   2 H :   -0.000007
   3 H :   -0.000025
   4 H :   -0.001318
   5 H :   -0.004323
   6 C :   -0.374104
   7 O :   -0.092480
   8 H :    0.176345
   9 H :    0.091908
  10 H :    0.105741
  11 H :    0.102266

  Mayer bond orders larger than 0.1
B(  6-C ,  7-O ) :   1.0008 B(  6-C ,  9-H ) :   0.9708 B(  6-C , 10-H ) :   0.9881
B(  6-C , 11-H ) :   0.9762 B(  7-O ,  8-H ) :   0.9010

Dispersion correction           -0.000219078
FINAL SINGLE POINT ENERGY      -115.729401850223

DIPOLE MOMENT
-------------
                                X             Y             Z
Electronic contribution:     -1.41168       0.41627       1.11326
Nuclear contribution   :      2.15854      -0.28977      -1.18677
                        -----------------------------------------
Total Dipole Moment    :      0.74686       0.12650      -0.07351
                        -----------------------------------------
Magnitude (a.u.)       :      0.76105
Magnitude (Debye)      :      1.93444

Rotational constants in cm-1:     4.102090     0.825047     0.792727
Rotational constants in MHz : 122977.562415 24734.291204 23765.350960

                             ****ORCA TERMINATED NORMALLY****
TOTAL RUN TIME: 0 days 0 hours 1 minutes 4 seconds 733 msec
