                         Program Version 4.1.2  - RELEASE  -
|  1> #Run DFT-D3 single point of the dimer
|  2> ! wB97X-D3 def2-TZVP TIGHTSCF CHELPG PMODEL PAL8
|  3>
|  4> %base "15-45_DFT_AB"
|  5>
|  6> %scf
|  7> MaxIter 1000
|  8> end
|  9>
| 10> * xyz 0 1
| 11>   C                      7.027536             3.700445             1.588677
| 12>   O                      7.121738             4.093266             0.247516
| 13>   H                      7.366341             3.333908             -0.299382
| 14>   H                      8.023769             3.471064             2.076743
| 15>   H                      6.544191             4.464693             2.197487
| 16>   H                      6.420623             2.848499             1.708700
| 17>   C                      3.467180             1.393242             0.592832
| 18>   O                      3.199770             2.200727             -0.571443
| 19>   H                      2.595145             1.775491             -1.163679
| 20>   H                      3.979197             0.438904             0.292025
| 21>   H                      4.181762             1.851568             1.262663
| 22>   H                      2.615667             1.283709             1.299601
| 23> *
| 24>
| 25> #Run DFT-D3 single point of the molecule with dimer basis set
| 26> $new_job
| 27> %base "15-45_DFT_A"
| 28> ! wB97X-D3 def2-TZVP TIGHTSCF CHELPG PMODEL
| 29>
| 30> %scf
| 31> MaxIter 1000
| 32> end
| 33>
| 34> * xyz 0 1
| 35>   C                      7.027536             3.700445             1.588677
| 36>   O                      7.121738             4.093266             0.247516
| 37>   H                      7.366341             3.333908             -0.299382
| 38>   H                      8.023769             3.471064             2.076743
| 39>   H                      6.544191             4.464693             2.197487
| 40>   H                      6.420623             2.848499             1.708700
| 41>   C                    : 3.467180             1.393242             0.592832
| 42>   O                    : 3.199770             2.200727             -0.571443
| 43>   H                    : 2.595145             1.775491             -1.163679
| 44>   H                    : 3.979197             0.438904             0.292025
| 45>   H                    : 4.181762             1.851568             1.262663
| 46>   H                    : 2.615667             1.283709             1.299601
| 47> *
| 48>
| 49> #Run DFT-D3 single point of the particle with dimer basis set
| 50> $new_job
| 51> %base "15-45_DFT_B"
| 52> ! wB97X-D3 def2-TZVP TIGHTSCF CHELPG PMODEL
| 53>
| 54> %scf
| 55> MaxIter 1000
| 56> end
| 57>
| 58> * xyz 0 1
| 59>   C                    : 7.027536             3.700445             1.588677
| 60>   O                    : 7.121738             4.093266             0.247516
| 61>   H                    : 7.366341             3.333908             -0.299382
| 62>   H                    : 8.023769             3.471064             2.076743
| 63>   H                    : 6.544191             4.464693             2.197487
| 64>   H                    : 6.420623             2.848499             1.708700
| 65>   C                      3.467180             1.393242             0.592832
| 66>   O                      3.199770             2.200727             -0.571443
| 67>   H                      2.595145             1.775491             -1.163679
| 68>   H                      3.979197             0.438904             0.292025
| 69>   H                      4.181762             1.851568             1.262663
| 70>   H                      2.615667             1.283709             1.299601
| 71> *
| 72>
| 73>                          ****END OF INPUT****
 Total Charge           Charge          ....    0
 Multiplicity           Mult            ....    1
 Number of Electrons    NEL             ....   36
Dispersion correction           -0.001300374
FINAL SINGLE POINT ENERGY      -231.465183734177
Dispersion correction           -0.000247625
FINAL SINGLE POINT ENERGY      -115.734546207082

CARTESIAN COORDINATES (ANGSTROEM)
---------------------------------
  C      7.027536    3.700445    1.588677
  O      7.121738    4.093266    0.247516
  H      7.366341    3.333908   -0.299382
  H      8.023769    3.471064    2.076743
  H      6.544191    4.464693    2.197487
  H      6.420623    2.848499    1.708700
  C      3.467180    1.393242    0.592832
  O      3.199770    2.200727   -0.571443
  H      2.595145    1.775491   -1.163679
  H      3.979197    0.438904    0.292025
  H      4.181762    1.851568    1.262663
  H      2.615667    1.283709    1.299601

 Multiplicity           Mult            ....    1
 Number of Electrons    NEL             ....   18
 Basis Dimension        Dim             ....  172

ORBITAL ENERGIES
----------------

  NO   OCC          E(Eh)            E(eV)
   0   2.0000     -19.229663      -523.2657
   1   2.0000     -10.320282      -280.8291
   2   2.0000      -1.128363       -30.7043
   3   2.0000      -0.799791       -21.7634
   4   2.0000      -0.604137       -16.4394
   5   2.0000      -0.543730       -14.7957
   6   2.0000      -0.523028       -14.2323
   7   2.0000      -0.422539       -11.4979
   8   2.0000      -0.378299       -10.2940
   9   0.0000       0.090580         2.4648
  10   0.0000       0.121607         3.3091
  11   0.0000       0.148449         4.0395
  12   0.0000       0.169652         4.6165
  13   0.0000       0.191314         5.2059

MULLIKEN ATOMIC CHARGES
-----------------------
   0 C :    0.000290
   1 O :   -0.000063
   2 H :   -0.000109
   3 H :    0.000082
   4 H :   -0.000282
   5 H :    0.000826
   6 C :   -0.166466
   7 O :   -0.482911
   8 H :    0.315456
   9 H :    0.105299
  10 H :    0.122189
  11 H :    0.105688
Sum of atomic charges:    0.0000000

LOEWDIN ATOMIC CHARGES
----------------------
   0 C :   -0.001416
   1 O :   -0.000041
   2 H :   -0.000087
   3 H :   -0.000002
   4 H :   -0.000050
   5 H :   -0.003180
   6 C :   -0.373383
   7 O :   -0.090159
   8 H :    0.157430
   9 H :    0.103870
  10 H :    0.107006
  11 H :    0.100013

  Mayer bond orders larger than 0.1
B(  6-C ,  7-O ) :   1.0051 B(  6-C ,  9-H ) :   0.9805 B(  6-C , 10-H ) :   0.9726
B(  6-C , 11-H ) :   0.9702 B(  7-O ,  8-H ) :   0.8994

Dispersion correction           -0.000284390
FINAL SINGLE POINT ENERGY      -115.730726394045

DIPOLE MOMENT
-------------
                                X             Y             Z
Electronic contribution:     -0.34656       1.10446      -1.49299
Nuclear contribution   :      0.09176      -1.69009       1.61502
                        -----------------------------------------
Total Dipole Moment    :     -0.25480      -0.58563       0.12202
                        -----------------------------------------
Magnitude (a.u.)       :      0.65021
Magnitude (Debye)      :      1.65271

Rotational constants in cm-1:     4.393838     0.782472     0.772406
Rotational constants in MHz : 131723.962876 23457.917703 23156.152176

                             ****ORCA TERMINATED NORMALLY****
TOTAL RUN TIME: 0 days 0 hours 1 minutes 2 seconds 657 msec
