                         Program Version 4.1.2  - RELEASE  -
|  1> #Run DFT-D3 single point of the dimer
|  2> ! wB97X-D3 def2-TZVP TIGHTSCF CHELPG PMODEL PAL8
|  3>
|  4> %base "17-136_DFT_AB"
|  5>
|  6> %scf
|  7> MaxIter 1000
|  8> end
|  9>
| 10> * xyz 0 1
| 11>   C                      -10.389428           -5.668474            0.886552
| 12>   O                      -9.427594            -5.129751            -0.008684
| 13>   H                      -8.619964            -5.665520            0.023088
| 14>   H                      -11.126881           -4.947132            1.176537
| 15>   H                      -10.780607           -6.594603            0.450729
| 16>   H                      -9.779254            -5.947587            1.825181
| 17>   C                      -7.114895            -9.252736            2.911161
| 18>   O                      -7.963711            -8.318133            2.377793
| 19>   H                      -8.671788            -8.236899            3.028148
| 20>   H                      -6.159559            -9.294814            2.385530
| 21>   H                      -6.893088            -8.897432            3.925126
| 22>   H                      -7.565943            -10.294245           2.959604
| 23> *
| 24>
| 25> #Run DFT-D3 single point of the molecule with dimer basis set
| 26> $new_job
| 27> %base "17-136_DFT_A"
| 28> ! wB97X-D3 def2-TZVP TIGHTSCF CHELPG PMODEL
| 29>
| 30> %scf
| 31> MaxIter 1000
| 32> end
| 33>
| 34> * xyz 0 1
| 35>   C                      -10.389428           -5.668474            0.886552
| 36>   O                      -9.427594            -5.129751            -0.008684
| 37>   H                      -8.619964            -5.665520            0.023088
| 38>   H                      -11.126881           -4.947132            1.176537
| 39>   H                      -10.780607           -6.594603            0.450729
| 40>   H                      -9.779254            -5.947587            1.825181
| 41>   C                    : -7.114895            -9.252736            2.911161
| 42>   O                    : -7.963711            -8.318133            2.377793
| 43>   H                    : -8.671788            -8.236899            3.028148
| 44>   H                    : -6.159559            -9.294814            2.385530
| 45>   H                    : -6.893088            -8.897432            3.925126
| 46>   H                    : -7.565943            -10.294245           2.959604
| 47> *
| 48>
| 49> #Run DFT-D3 single point of the particle with dimer basis set
| 50> $new_job
| 51> %base "17-136_DFT_B"
| 52> ! wB97X-D3 def2-TZVP TIGHTSCF CHELPG PMODEL
| 53>
| 54> %scf
| 55> MaxIter 1000
| 56> end
| 57>
| 58> * xyz 0 1
| 59>   C                    : -10.389428           -5.668474            0.886552
| 60>   O                    : -9.427594            -5.129751            -0.008684
| 61>   H                    : -8.619964            -5.665520            0.023088
| 62>   H                    : -11.126881           -4.947132            1.176537
| 63>   H                    : -10.780607           -6.594603            0.450729
| 64>   H                    : -9.779254            -5.947587            1.825181
| 65>   C                      -7.114895            -9.252736            2.911161
| 66>   O                      -7.963711            -8.318133            2.377793
| 67>   H                      -8.671788            -8.236899            3.028148
| 68>   H                      -6.159559            -9.294814            2.385530
| 69>   H                      -6.893088            -8.897432            3.925126
| 70>   H                      -7.565943            -10.294245           2.959604
| 71> *
| 72>
| 73>                          ****END OF INPUT****
 Total Charge           Charge          ....    0
 Multiplicity           Mult            ....    1
 Number of Electrons    NEL             ....   36
Dispersion correction           -0.001177800
FINAL SINGLE POINT ENERGY      -231.465615784043
Dispersion correction           -0.000226562
FINAL SINGLE POINT ENERGY      -115.730978405482

CARTESIAN COORDINATES (ANGSTROEM)
---------------------------------
  C    -10.389428   -5.668474    0.886552
  O     -9.427594   -5.129751   -0.008684
  H     -8.619964   -5.665520    0.023088
  H    -11.126881   -4.947132    1.176537
  H    -10.780607   -6.594603    0.450729
  H     -9.779254   -5.947587    1.825181
  C     -7.114895   -9.252736    2.911161
  O     -7.963711   -8.318133    2.377793
  H     -8.671788   -8.236899    3.028148
  H     -6.159559   -9.294814    2.385530
  H     -6.893088   -8.897432    3.925126
  H     -7.565943  -10.294245    2.959604

 Multiplicity           Mult            ....    1
 Number of Electrons    NEL             ....   18
 Basis Dimension        Dim             ....  172

ORBITAL ENERGIES
----------------

  NO   OCC          E(Eh)            E(eV)
   0   2.0000     -19.231246      -523.3088
   1   2.0000     -10.314118      -280.6614
   2   2.0000      -1.153301       -31.3829
   3   2.0000      -0.787835       -21.4381
   4   2.0000      -0.615907       -16.7597
   5   2.0000      -0.547472       -14.8975
   6   2.0000      -0.536645       -14.6028
   7   2.0000      -0.430822       -11.7233
   8   2.0000      -0.369862       -10.0645
   9   0.0000       0.092065         2.5052
  10   0.0000       0.120126         3.2688
  11   0.0000       0.157282         4.2799
  12   0.0000       0.174647         4.7524
  13   0.0000       0.198955         5.4138

MULLIKEN ATOMIC CHARGES
-----------------------
   0 C :    0.001614
   1 O :    0.000134
   2 H :   -0.001327
   3 H :   -0.000118
   4 H :   -0.000506
   5 H :   -0.003975
   6 C :   -0.163593
   7 O :   -0.452894
   8 H :    0.319301
   9 H :    0.118338
  10 H :    0.092254
  11 H :    0.090774
Sum of atomic charges:    0.0000000

LOEWDIN ATOMIC CHARGES
----------------------
   0 C :   -0.001728
   1 O :   -0.000041
   2 H :   -0.000836
   3 H :   -0.000020
   4 H :   -0.000278
   5 H :   -0.002433
   6 C :   -0.425500
   7 O :   -0.046756
   8 H :    0.179726
   9 H :    0.106393
  10 H :    0.093695
  11 H :    0.097779

  Mayer bond orders larger than 0.1
B(  6-C ,  7-O ) :   1.0003 B(  6-C ,  9-H ) :   0.9719 B(  6-C , 10-H ) :   0.9908
B(  6-C , 11-H ) :   0.9689 B(  7-O ,  8-H ) :   0.8946

Dispersion correction           -0.000211028
FINAL SINGLE POINT ENERGY      -115.732335067480

DIPOLE MOMENT
-------------
                                X             Y             Z
Electronic contribution:     -1.01214       1.24067      -0.93065
Nuclear contribution   :      0.90324      -1.50862       1.53132
                        -----------------------------------------
Total Dipole Moment    :     -0.10890      -0.26795       0.60068
                        -----------------------------------------
Magnitude (a.u.)       :      0.66669
Magnitude (Debye)      :      1.69458

Rotational constants in cm-1:     4.161595     0.876782     0.846887
Rotational constants in MHz : 124761.490304 26285.255662 25389.043496

                             ****ORCA TERMINATED NORMALLY****
TOTAL RUN TIME: 0 days 0 hours 1 minutes 11 seconds 665 msec
