                         Program Version 4.1.2  - RELEASE  -
|  1> #Run DFT-D3 single point of the dimer
|  2> ! wB97X-D3 def2-TZVP TIGHTSCF CHELPG PMODEL PAL8
|  3>
|  4> %base "11-138_DFT_AB"
|  5>
|  6> %scf
|  7> MaxIter 1000
|  8> end
|  9>
| 10> * xyz 0 1
| 11>   C                      -10.729189           10.556752            -1.549944
| 12>   O                      -9.844536            9.442152             -1.851716
| 13>   H                      -10.201714           8.818743             -2.561734
| 14>   H                      -10.139782           11.504818            -1.443811
| 15>   H                      -11.550536           10.656616            -2.308718
| 16>   H                      -11.116407           10.345038            -0.564643
| 17>   C                      -6.738931            10.776547            -1.452221
| 18>   O                      -7.666120            11.259897            -2.371506
| 19>   H                      -8.521363            10.777962            -2.377233
| 20>   H                      -6.801566            11.073614            -0.451381
| 21>   H                      -6.735068            9.628642             -1.405417
| 22>   H                      -5.692520            11.042973            -1.813621
| 23> *
| 24>
| 25> #Run DFT-D3 single point of the molecule with dimer basis set
| 26> $new_job
| 27> %base "11-138_DFT_A"
| 28> ! wB97X-D3 def2-TZVP TIGHTSCF CHELPG PMODEL
| 29>
| 30> %scf
| 31> MaxIter 1000
| 32> end
| 33>
| 34> * xyz 0 1
| 35>   C                      -10.729189           10.556752            -1.549944
| 36>   O                      -9.844536            9.442152             -1.851716
| 37>   H                      -10.201714           8.818743             -2.561734
| 38>   H                      -10.139782           11.504818            -1.443811
| 39>   H                      -11.550536           10.656616            -2.308718
| 40>   H                      -11.116407           10.345038            -0.564643
| 41>   C                    : -6.738931            10.776547            -1.452221
| 42>   O                    : -7.666120            11.259897            -2.371506
| 43>   H                    : -8.521363            10.777962            -2.377233
| 44>   H                    : -6.801566            11.073614            -0.451381
| 45>   H                    : -6.735068            9.628642             -1.405417
| 46>   H                    : -5.692520            11.042973            -1.813621
| 47> *
| 48>
| 49> #Run DFT-D3 single point of the particle with dimer basis set
| 50> $new_job
| 51> %base "11-138_DFT_B"
| 52> ! wB97X-D3 def2-TZVP TIGHTSCF CHELPG PMODEL
| 53>
| 54> %scf
| 55> MaxIter 1000
| 56> end
| 57>
| 58> * xyz 0 1
| 59>   C                    : -10.729189           10.556752            -1.549944
| 60>   O                    : -9.844536            9.442152             -1.851716
| 61>   H                    : -10.201714           8.818743             -2.561734
| 62>   H                    : -10.139782           11.504818            -1.443811
| 63>   H                    : -11.550536           10.656616            -2.308718
| 64>   H                    : -11.116407           10.345038            -0.564643
| 65>   C                      -6.738931            10.776547            -1.452221
| 66>   O                      -7.666120            11.259897            -2.371506
| 67>   H                      -8.521363            10.777962            -2.377233
| 68>   H                      -6.801566            11.073614            -0.451381
| 69>   H                      -6.735068            9.628642             -1.405417
| 70>   H                      -5.692520            11.042973            -1.813621
| 71> *
| 72>
| 73>                          ****END OF INPUT****
 Total Charge           Charge          ....    0
 Multiplicity           Mult            ....    1
 Number of Electrons    NEL             ....   36
Dispersion correction           -0.002053757
FINAL SINGLE POINT ENERGY      -231.466547786878
Dispersion correction           -0.000276731
FINAL SINGLE POINT ENERGY      -115.729495353870

CARTESIAN COORDINATES (ANGSTROEM)
---------------------------------
  C    -10.729189   10.556752   -1.549944
  O     -9.844536    9.442152   -1.851716
  H    -10.201714    8.818743   -2.561734
  H    -10.139782   11.504818   -1.443811
  H    -11.550536   10.656616   -2.308718
  H    -11.116407   10.345038   -0.564643
  C     -6.738931   10.776547   -1.452221
  O     -7.666120   11.259897   -2.371506
  H     -8.521363   10.777962   -2.377233
  H     -6.801566   11.073614   -0.451381
  H     -6.735068    9.628642   -1.405417
  H     -5.692520   11.042973   -1.813621

 Multiplicity           Mult            ....    1
 Number of Electrons    NEL             ....   18
 Basis Dimension        Dim             ....  172

ORBITAL ENERGIES
----------------

  NO   OCC          E(Eh)            E(eV)
   0   2.0000     -19.235881      -523.4349
   1   2.0000     -10.317993      -280.7669
   2   2.0000      -1.137952       -30.9653
   3   2.0000      -0.795023       -21.6337
   4   2.0000      -0.619574       -16.8595
   5   2.0000      -0.540567       -14.7096
   6   2.0000      -0.525476       -14.2989
   7   2.0000      -0.421366       -11.4659
   8   2.0000      -0.375688       -10.2230
   9   0.0000       0.068982         1.8771
  10   0.0000       0.135395         3.6843
  11   0.0000       0.150806         4.1036
  12   0.0000       0.164316         4.4713
  13   0.0000       0.190147         5.1742

MULLIKEN ATOMIC CHARGES
-----------------------
   0 C :   -0.000521
   1 O :   -0.004761
   2 H :   -0.000486
   3 H :   -0.010535
   4 H :   -0.000088
   5 H :    0.000276
   6 C :   -0.160854
   7 O :   -0.471270
   8 H :    0.327196
   9 H :    0.111620
  10 H :    0.094602
  11 H :    0.114820
Sum of atomic charges:    0.0000000

LOEWDIN ATOMIC CHARGES
----------------------
   0 C :   -0.015086
   1 O :   -0.017323
   2 H :   -0.001163
   3 H :   -0.009464
   4 H :   -0.000238
   5 H :   -0.000195
   6 C :   -0.407145
   7 O :   -0.047952
   8 H :    0.197894
   9 H :    0.081781
  10 H :    0.102161
  11 H :    0.116730

  Mayer bond orders larger than 0.1
B(  6-C ,  7-O ) :   0.9986 B(  6-C ,  9-H ) :   0.9628 B(  6-C , 10-H ) :   0.9840
B(  6-C , 11-H ) :   0.9771 B(  7-O ,  8-H ) :   0.8919

Dispersion correction           -0.000270588
FINAL SINGLE POINT ENERGY      -115.729985436265

DIPOLE MOMENT
-------------
                                X             Y             Z
Electronic contribution:     -1.26362       0.88969      -1.16477
Nuclear contribution   :      1.07902      -1.37997       1.52002
                        -----------------------------------------
Total Dipole Moment    :     -0.18460      -0.49028       0.35525
                        -----------------------------------------
Magnitude (a.u.)       :      0.63297
Magnitude (Debye)      :      1.60888

Rotational constants in cm-1:     4.353759     0.832361     0.798311
Rotational constants in MHz : 130522.414717 24953.542087 23932.751696

                             ****ORCA TERMINATED NORMALLY****
TOTAL RUN TIME: 0 days 0 hours 1 minutes 16 seconds 957 msec
