                         Program Version 4.1.2  - RELEASE  -
|  1> #Run DFT-D3 single point of the dimer
|  2> ! wB97X-D3 def2-TZVP TIGHTSCF CHELPG PMODEL PAL8
|  3>
|  4> %base "19-12_DFT_AB"
|  5>
|  6> %scf
|  7> MaxIter 1000
|  8> end
|  9>
| 10> * xyz 0 1
| 11>   C                      -7.667179            -9.209066            3.339312
| 12>   O                      -8.331323            -9.779651            4.428187
| 13>   H                      -8.630029            -10.674345           4.174091
| 14>   H                      -6.594837            -9.317972            3.473686
| 15>   H                      -7.952272            -9.648018            2.417688
| 16>   H                      -7.931544            -8.142269            3.023550
| 17>   C                      -4.870710            -11.223837           1.960255
| 18>   O                      -3.714352            -10.481646           1.690987
| 19>   H                      -3.151898            -10.923892           1.020329
| 20>   H                      -5.616214            -11.020734           1.134862
| 21>   H                      -4.660132            -12.240792           1.941456
| 22>   H                      -5.402218            -11.006514           2.911364
| 23> *
| 24>
| 25> #Run DFT-D3 single point of the molecule with dimer basis set
| 26> $new_job
| 27> %base "19-12_DFT_A"
| 28> ! wB97X-D3 def2-TZVP TIGHTSCF CHELPG PMODEL
| 29>
| 30> %scf
| 31> MaxIter 1000
| 32> end
| 33>
| 34> * xyz 0 1
| 35>   C                      -7.667179            -9.209066            3.339312
| 36>   O                      -8.331323            -9.779651            4.428187
| 37>   H                      -8.630029            -10.674345           4.174091
| 38>   H                      -6.594837            -9.317972            3.473686
| 39>   H                      -7.952272            -9.648018            2.417688
| 40>   H                      -7.931544            -8.142269            3.023550
| 41>   C                    : -4.870710            -11.223837           1.960255
| 42>   O                    : -3.714352            -10.481646           1.690987
| 43>   H                    : -3.151898            -10.923892           1.020329
| 44>   H                    : -5.616214            -11.020734           1.134862
| 45>   H                    : -4.660132            -12.240792           1.941456
| 46>   H                    : -5.402218            -11.006514           2.911364
| 47> *
| 48>
| 49> #Run DFT-D3 single point of the particle with dimer basis set
| 50> $new_job
| 51> %base "19-12_DFT_B"
| 52> ! wB97X-D3 def2-TZVP TIGHTSCF CHELPG PMODEL
| 53>
| 54> %scf
| 55> MaxIter 1000
| 56> end
| 57>
| 58> * xyz 0 1
| 59>   C                    : -7.667179            -9.209066            3.339312
| 60>   O                    : -8.331323            -9.779651            4.428187
| 61>   H                    : -8.630029            -10.674345           4.174091
| 62>   H                    : -6.594837            -9.317972            3.473686
| 63>   H                    : -7.952272            -9.648018            2.417688
| 64>   H                    : -7.931544            -8.142269            3.023550
| 65>   C                      -4.870710            -11.223837           1.960255
| 66>   O                      -3.714352            -10.481646           1.690987
| 67>   H                      -3.151898            -10.923892           1.020329
| 68>   H                      -5.616214            -11.020734           1.134862
| 69>   H                      -4.660132            -12.240792           1.941456
| 70>   H                      -5.402218            -11.006514           2.911364
| 71> *
| 72>
| 73>                          ****END OF INPUT****
 Total Charge           Charge          ....    0
 Multiplicity           Mult            ....    1
 Number of Electrons    NEL             ....   36
Dispersion correction           -0.001630168
FINAL SINGLE POINT ENERGY      -231.456762485469
Dispersion correction           -0.000250984
FINAL SINGLE POINT ENERGY      -115.726930133697

CARTESIAN COORDINATES (ANGSTROEM)
---------------------------------
  C     -7.667179   -9.209066    3.339312
  O     -8.331323   -9.779651    4.428187
  H     -8.630029  -10.674345    4.174091
  H     -6.594837   -9.317972    3.473686
  H     -7.952272   -9.648018    2.417688
  H     -7.931544   -8.142269    3.023550
  C     -4.870710  -11.223837    1.960255
  O     -3.714352  -10.481646    1.690987
  H     -3.151898  -10.923892    1.020329
  H     -5.616214  -11.020734    1.134862
  H     -4.660132  -12.240792    1.941456
  H     -5.402218  -11.006514    2.911364

 Multiplicity           Mult            ....    1
 Number of Electrons    NEL             ....   18
 Basis Dimension        Dim             ....  172

ORBITAL ENERGIES
----------------

  NO   OCC          E(Eh)            E(eV)
   0   2.0000     -19.229374      -523.2579
   1   2.0000     -10.311796      -280.5982
   2   2.0000      -1.134282       -30.8654
   3   2.0000      -0.794965       -21.6321
   4   2.0000      -0.614218       -16.7137
   5   2.0000      -0.538806       -14.6616
   6   2.0000      -0.533594       -14.5198
   7   2.0000      -0.427223       -11.6253
   8   2.0000      -0.368093       -10.0163
   9   0.0000       0.088822         2.4170
  10   0.0000       0.113183         3.0799
  11   0.0000       0.159453         4.3389
  12   0.0000       0.165076         4.4919
  13   0.0000       0.185753         5.0546

MULLIKEN ATOMIC CHARGES
-----------------------
   0 C :   -0.003464
   1 O :    0.000103
   2 H :    0.000040
   3 H :    0.004096
   4 H :   -0.000427
   5 H :   -0.000119
   6 C :   -0.165386
   7 O :   -0.482156
   8 H :    0.320688
   9 H :    0.093121
  10 H :    0.114010
  11 H :    0.119494
Sum of atomic charges:    0.0000000

LOEWDIN ATOMIC CHARGES
----------------------
   0 C :   -0.006860
   1 O :   -0.000027
   2 H :   -0.000075
   3 H :   -0.006361
   4 H :   -0.001326
   5 H :   -0.000040
   6 C :   -0.390262
   7 O :   -0.079255
   8 H :    0.183200
   9 H :    0.102022
  10 H :    0.082557
  11 H :    0.116427

  Mayer bond orders larger than 0.1
B(  6-C ,  7-O ) :   0.9978 B(  6-C ,  9-H ) :   0.9848 B(  6-C , 10-H ) :   0.9781
B(  6-C , 11-H ) :   0.9664 B(  7-O ,  8-H ) :   0.8902

Dispersion correction           -0.000239738
FINAL SINGLE POINT ENERGY      -115.729844074454

DIPOLE MOMENT
-------------
                                X             Y             Z
Electronic contribution:      1.54664       1.01986      -0.12607
Nuclear contribution   :     -1.62347      -1.62830      -0.18023
                        -----------------------------------------
Total Dipole Moment    :     -0.07683      -0.60844      -0.30630
                        -----------------------------------------
Magnitude (a.u.)       :      0.68551
Magnitude (Debye)      :      1.74243

Rotational constants in cm-1:     4.381588     0.833958     0.806467
Rotational constants in MHz : 131356.714641 25001.419502 24177.272388

                             ****ORCA TERMINATED NORMALLY****
TOTAL RUN TIME: 0 days 0 hours 0 minutes 47 seconds 722 msec
