                         Program Version 4.1.2  - RELEASE  -
|  1> #Run DFT-D3 single point of the dimer
|  2> ! wB97X-D3 def2-TZVP TIGHTSCF CHELPG PMODEL PAL8
|  3>
|  4> %base "4-167_DFT_AB"
|  5>
|  6> %scf
|  7> MaxIter 1000
|  8> end
|  9>
| 10> * xyz 0 1
| 11>   C                      -8.175799            0.173329             -0.703508
| 12>   O                      -7.712172            0.355606             0.610750
| 13>   H                      -8.296216            -0.066847            1.230191
| 14>   H                      -8.674358            1.059910             -1.034051
| 15>   H                      -7.405601            -0.116866            -1.395031
| 16>   H                      -8.910950            -0.641238            -0.730880
| 17>   C                      -5.431064            3.410645             -1.481040
| 18>   O                      -6.528782            2.810912             -0.803507
| 19>   H                      -6.199475            2.257877             -0.068820
| 20>   H                      -4.735965            3.634254             -0.724739
| 21>   H                      -4.972894            2.724629             -2.260108
| 22>   H                      -5.614087            4.338414             -1.991813
| 23> *
| 24>
| 25> #Run DFT-D3 single point of the molecule with dimer basis set
| 26> $new_job
| 27> %base "4-167_DFT_A"
| 28> ! wB97X-D3 def2-TZVP TIGHTSCF CHELPG PMODEL
| 29>
| 30> %scf
| 31> MaxIter 1000
| 32> end
| 33>
| 34> * xyz 0 1
| 35>   C                      -8.175799            0.173329             -0.703508
| 36>   O                      -7.712172            0.355606             0.610750
| 37>   H                      -8.296216            -0.066847            1.230191
| 38>   H                      -8.674358            1.059910             -1.034051
| 39>   H                      -7.405601            -0.116866            -1.395031
| 40>   H                      -8.910950            -0.641238            -0.730880
| 41>   C                    : -5.431064            3.410645             -1.481040
| 42>   O                    : -6.528782            2.810912             -0.803507
| 43>   H                    : -6.199475            2.257877             -0.068820
| 44>   H                    : -4.735965            3.634254             -0.724739
| 45>   H                    : -4.972894            2.724629             -2.260108
| 46>   H                    : -5.614087            4.338414             -1.991813
| 47> *
| 48>
| 49> #Run DFT-D3 single point of the particle with dimer basis set
| 50> $new_job
| 51> %base "4-167_DFT_B"
| 52> ! wB97X-D3 def2-TZVP TIGHTSCF CHELPG PMODEL
| 53>
| 54> %scf
| 55> MaxIter 1000
| 56> end
| 57>
| 58> * xyz 0 1
| 59>   C                    : -8.175799            0.173329             -0.703508
| 60>   O                    : -7.712172            0.355606             0.610750
| 61>   H                    : -8.296216            -0.066847            1.230191
| 62>   H                    : -8.674358            1.059910             -1.034051
| 63>   H                    : -7.405601            -0.116866            -1.395031
| 64>   H                    : -8.910950            -0.641238            -0.730880
| 65>   C                      -5.431064            3.410645             -1.481040
| 66>   O                      -6.528782            2.810912             -0.803507
| 67>   H                      -6.199475            2.257877             -0.068820
| 68>   H                      -4.735965            3.634254             -0.724739
| 69>   H                      -4.972894            2.724629             -2.260108
| 70>   H                      -5.614087            4.338414             -1.991813
| 71> *
| 72>
| 73>                          ****END OF INPUT****
 Total Charge           Charge          ....    0
 Multiplicity           Mult            ....    1
 Number of Electrons    NEL             ....   36
Dispersion correction           -0.001808596
FINAL SINGLE POINT ENERGY      -231.468945531348
Dispersion correction           -0.000236293
FINAL SINGLE POINT ENERGY      -115.734533558981

CARTESIAN COORDINATES (ANGSTROEM)
---------------------------------
  C     -8.175799    0.173329   -0.703508
  O     -7.712172    0.355606    0.610750
  H     -8.296216   -0.066847    1.230191
  H     -8.674358    1.059910   -1.034051
  H     -7.405601   -0.116866   -1.395031
  H     -8.910950   -0.641238   -0.730880
  C     -5.431064    3.410645   -1.481040
  O     -6.528782    2.810912   -0.803507
  H     -6.199475    2.257877   -0.068820
  H     -4.735965    3.634254   -0.724739
  H     -4.972894    2.724629   -2.260108
  H     -5.614087    4.338414   -1.991813

 Multiplicity           Mult            ....    1
 Number of Electrons    NEL             ....   18
 Basis Dimension        Dim             ....  172

ORBITAL ENERGIES
----------------

  NO   OCC          E(Eh)            E(eV)
   0   2.0000     -19.231344      -523.3115
   1   2.0000     -10.312376      -280.6140
   2   2.0000      -1.130256       -30.7558
   3   2.0000      -0.797936       -21.7129
   4   2.0000      -0.607783       -16.5386
   5   2.0000      -0.542984       -14.7754
   6   2.0000      -0.534174       -14.5356
   7   2.0000      -0.426476       -11.6050
   8   2.0000      -0.373348       -10.1593
   9   0.0000       0.086840         2.3630
  10   0.0000       0.127243         3.4624
  11   0.0000       0.149633         4.0717
  12   0.0000       0.170391         4.6366
  13   0.0000       0.196267         5.3407

MULLIKEN ATOMIC CHARGES
-----------------------
   0 C :   -0.003433
   1 O :   -0.000397
   2 H :   -0.000094
   3 H :   -0.003840
   4 H :   -0.002875
   5 H :   -0.000779
   6 C :   -0.167528
   7 O :   -0.471547
   8 H :    0.321335
   9 H :    0.108315
  10 H :    0.097644
  11 H :    0.123200
Sum of atomic charges:   -0.0000000

LOEWDIN ATOMIC CHARGES
----------------------
   0 C :   -0.017563
   1 O :   -0.003687
   2 H :   -0.000149
   3 H :   -0.005548
   4 H :   -0.002304
   5 H :   -0.000224
   6 C :   -0.375678
   7 O :   -0.072751
   8 H :    0.183191
   9 H :    0.089720
  10 H :    0.102285
  11 H :    0.102707

  Mayer bond orders larger than 0.1
B(  6-C ,  7-O ) :   1.0021 B(  6-C ,  9-H ) :   0.9891 B(  6-C , 10-H ) :   0.9721
B(  6-C , 11-H ) :   0.9700 B(  7-O ,  8-H ) :   0.8921

Dispersion correction           -0.000246970
FINAL SINGLE POINT ENERGY      -115.729937917538

DIPOLE MOMENT
-------------
                                X             Y             Z
Electronic contribution:     -1.54047      -0.61026       0.76196
Nuclear contribution   :      2.21418       0.55589      -0.54431
                        -----------------------------------------
Total Dipole Moment    :      0.67371      -0.05437       0.21765
                        -----------------------------------------
Magnitude (a.u.)       :      0.71008
Magnitude (Debye)      :      1.80489

Rotational constants in cm-1:     4.411229     0.813400     0.793160
Rotational constants in MHz : 132245.320984 24385.120352 23778.327549

                             ****ORCA TERMINATED NORMALLY****
TOTAL RUN TIME: 0 days 0 hours 1 minutes 28 seconds 296 msec
