                         Program Version 4.1.2  - RELEASE  -
|  1> #Run DFT-D3 single point of the dimer
|  2> ! wB97X-D3 def2-TZVP TIGHTSCF CHELPG PMODEL PAL8
|  3>
|  4> %base "3-194_DFT_AB"
|  5>
|  6> %scf
|  7> MaxIter 1000
|  8> end
|  9>
| 10> * xyz 0 1
| 11>   C                      -2.126235            -0.360681            -2.637112
| 12>   O                      -1.117700            -1.154782            -3.243928
| 13>   H                      -0.344218            -1.171476            -2.675353
| 14>   H                      -2.847046            -0.072665            -3.423563
| 15>   H                      -2.661588            -0.937043            -1.872576
| 16>   H                      -1.636193            0.528980             -2.202952
| 17>   C                      -0.671174            -5.214124            -0.869858
| 18>   O                      -1.115675            -3.858978            -0.718865
| 19>   H                      -0.623826            -3.269613            -1.312421
| 20>   H                      -0.459745            -5.446240            -1.955176
| 21>   H                      0.149292             -5.512162            -0.208505
| 22>   H                      -1.482645            -5.896220            -0.501619
| 23> *
| 24>
| 25> #Run DFT-D3 single point of the molecule with dimer basis set
| 26> $new_job
| 27> %base "3-194_DFT_A"
| 28> ! wB97X-D3 def2-TZVP TIGHTSCF CHELPG PMODEL
| 29>
| 30> %scf
| 31> MaxIter 1000
| 32> end
| 33>
| 34> * xyz 0 1
| 35>   C                      -2.126235            -0.360681            -2.637112
| 36>   O                      -1.117700            -1.154782            -3.243928
| 37>   H                      -0.344218            -1.171476            -2.675353
| 38>   H                      -2.847046            -0.072665            -3.423563
| 39>   H                      -2.661588            -0.937043            -1.872576
| 40>   H                      -1.636193            0.528980             -2.202952
| 41>   C                    : -0.671174            -5.214124            -0.869858
| 42>   O                    : -1.115675            -3.858978            -0.718865
| 43>   H                    : -0.623826            -3.269613            -1.312421
| 44>   H                    : -0.459745            -5.446240            -1.955176
| 45>   H                    : 0.149292             -5.512162            -0.208505
| 46>   H                    : -1.482645            -5.896220            -0.501619
| 47> *
| 48>
| 49> #Run DFT-D3 single point of the particle with dimer basis set
| 50> $new_job
| 51> %base "3-194_DFT_B"
| 52> ! wB97X-D3 def2-TZVP TIGHTSCF CHELPG PMODEL
| 53>
| 54> %scf
| 55> MaxIter 1000
| 56> end
| 57>
| 58> * xyz 0 1
| 59>   C                    : -2.126235            -0.360681            -2.637112
| 60>   O                    : -1.117700            -1.154782            -3.243928
| 61>   H                    : -0.344218            -1.171476            -2.675353
| 62>   H                    : -2.847046            -0.072665            -3.423563
| 63>   H                    : -2.661588            -0.937043            -1.872576
| 64>   H                    : -1.636193            0.528980             -2.202952
| 65>   C                      -0.671174            -5.214124            -0.869858
| 66>   O                      -1.115675            -3.858978            -0.718865
| 67>   H                      -0.623826            -3.269613            -1.312421
| 68>   H                      -0.459745            -5.446240            -1.955176
| 69>   H                      0.149292             -5.512162            -0.208505
| 70>   H                      -1.482645            -5.896220            -0.501619
| 71> *
| 72>
| 73>                          ****END OF INPUT****
 Total Charge           Charge          ....    0
 Multiplicity           Mult            ....    1
 Number of Electrons    NEL             ....   36
Dispersion correction           -0.001369881
FINAL SINGLE POINT ENERGY      -231.470427561559
Dispersion correction           -0.000235215
FINAL SINGLE POINT ENERGY      -115.736554084152

CARTESIAN COORDINATES (ANGSTROEM)
---------------------------------
  C     -2.126235   -0.360681   -2.637112
  O     -1.117700   -1.154782   -3.243928
  H     -0.344218   -1.171476   -2.675353
  H     -2.847046   -0.072665   -3.423563
  H     -2.661588   -0.937043   -1.872576
  H     -1.636193    0.528980   -2.202952
  C     -0.671174   -5.214124   -0.869858
  O     -1.115675   -3.858978   -0.718865
  H     -0.623826   -3.269613   -1.312421
  H     -0.459745   -5.446240   -1.955176
  H      0.149292   -5.512162   -0.208505
  H     -1.482645   -5.896220   -0.501619

 Multiplicity           Mult            ....    1
 Number of Electrons    NEL             ....   18
 Basis Dimension        Dim             ....  172

ORBITAL ENERGIES
----------------

  NO   OCC          E(Eh)            E(eV)
   0   2.0000     -19.232071      -523.3313
   1   2.0000     -10.322213      -280.8817
   2   2.0000      -1.127234       -30.6736
   3   2.0000      -0.792758       -21.5720
   4   2.0000      -0.604239       -16.4422
   5   2.0000      -0.541846       -14.7444
   6   2.0000      -0.519143       -14.1266
   7   2.0000      -0.428898       -11.6709
   8   2.0000      -0.374400       -10.1879
   9   0.0000       0.078349         2.1320
  10   0.0000       0.123737         3.3670
  11   0.0000       0.147363         4.0100
  12   0.0000       0.178817         4.8659
  13   0.0000       0.194720         5.2986

MULLIKEN ATOMIC CHARGES
-----------------------
   0 C :   -0.000228
   1 O :   -0.000273
   2 H :   -0.000202
   3 H :    0.000059
   4 H :   -0.001639
   5 H :   -0.000010
   6 C :   -0.169148
   7 O :   -0.479446
   8 H :    0.318455
   9 H :    0.105192
  10 H :    0.107375
  11 H :    0.119865
Sum of atomic charges:    0.0000000

LOEWDIN ATOMIC CHARGES
----------------------
   0 C :   -0.001034
   1 O :   -0.001043
   2 H :   -0.001858
   3 H :   -0.000003
   4 H :   -0.000992
   5 H :   -0.000009
   6 C :   -0.382222
   7 O :   -0.095498
   8 H :    0.172671
   9 H :    0.102756
  10 H :    0.094301
  11 H :    0.112932

  Mayer bond orders larger than 0.1
B(  6-C ,  7-O ) :   1.0040 B(  6-C ,  9-H ) :   0.9782 B(  6-C , 10-H ) :   0.9680
B(  6-C , 11-H ) :   0.9745 B(  7-O ,  8-H ) :   0.8955

Dispersion correction           -0.000275064
FINAL SINGLE POINT ENERGY      -115.733051714611

DIPOLE MOMENT
-------------
                                X             Y             Z
Electronic contribution:     -0.56337       1.74116       0.26108
Nuclear contribution   :      1.04908      -1.92900      -0.69023
                        -----------------------------------------
Total Dipole Moment    :      0.48571      -0.18784      -0.42915
                        -----------------------------------------
Magnitude (a.u.)       :      0.67481
Magnitude (Debye)      :      1.71524

Rotational constants in cm-1:     4.213849     0.803552     0.771029
Rotational constants in MHz : 126328.000597 24089.880542 23114.861015

                             ****ORCA TERMINATED NORMALLY****
TOTAL RUN TIME: 0 days 0 hours 6 minutes 11 seconds 238 msec
