                         Program Version 4.1.2  - RELEASE  -
|  1> #Run DFT-D3 single point of the dimer
|  2> ! wB97X-D3 def2-TZVP TIGHTSCF CHELPG PMODEL PAL8
|  3>
|  4> %base "12-54_DFT_AB"
|  5>
|  6> %scf
|  7> MaxIter 1000
|  8> end
|  9>
| 10> * xyz 0 1
| 11>   C                      1.228255             8.850175             -3.515345
| 12>   O                      1.191600             8.715200             -2.081027
| 13>   H                      0.242599             8.844409             -1.860280
| 14>   H                      1.453714             9.811640             -3.993332
| 15>   H                      1.787758             7.990946             -3.923253
| 16>   H                      0.282204             8.617246             -3.914783
| 17>   C                      -0.386517            7.473457             -7.189764
| 18>   O                      -1.456874            6.859022             -6.368077
| 19>   H                      -2.191042            7.459436             -6.201093
| 20>   H                      -0.620523            7.533396             -8.242037
| 21>   H                      -0.079154            8.434100             -6.840839
| 22>   H                      0.476425             6.832288             -7.105463
| 23> *
| 24>
| 25> #Run DFT-D3 single point of the molecule with dimer basis set
| 26> $new_job
| 27> %base "12-54_DFT_A"
| 28> ! wB97X-D3 def2-TZVP TIGHTSCF CHELPG PMODEL
| 29>
| 30> %scf
| 31> MaxIter 1000
| 32> end
| 33>
| 34> * xyz 0 1
| 35>   C                      1.228255             8.850175             -3.515345
| 36>   O                      1.191600             8.715200             -2.081027
| 37>   H                      0.242599             8.844409             -1.860280
| 38>   H                      1.453714             9.811640             -3.993332
| 39>   H                      1.787758             7.990946             -3.923253
| 40>   H                      0.282204             8.617246             -3.914783
| 41>   C                    : -0.386517            7.473457             -7.189764
| 42>   O                    : -1.456874            6.859022             -6.368077
| 43>   H                    : -2.191042            7.459436             -6.201093
| 44>   H                    : -0.620523            7.533396             -8.242037
| 45>   H                    : -0.079154            8.434100             -6.840839
| 46>   H                    : 0.476425             6.832288             -7.105463
| 47> *
| 48>
| 49> #Run DFT-D3 single point of the particle with dimer basis set
| 50> $new_job
| 51> %base "12-54_DFT_B"
| 52> ! wB97X-D3 def2-TZVP TIGHTSCF CHELPG PMODEL
| 53>
| 54> %scf
| 55> MaxIter 1000
| 56> end
| 57>
| 58> * xyz 0 1
| 59>   C                    : 1.228255             8.850175             -3.515345
| 60>   O                    : 1.191600             8.715200             -2.081027
| 61>   H                    : 0.242599             8.844409             -1.860280
| 62>   H                    : 1.453714             9.811640             -3.993332
| 63>   H                    : 1.787758             7.990946             -3.923253
| 64>   H                    : 0.282204             8.617246             -3.914783
| 65>   C                      -0.386517            7.473457             -7.189764
| 66>   O                      -1.456874            6.859022             -6.368077
| 67>   H                      -2.191042            7.459436             -6.201093
| 68>   H                      -0.620523            7.533396             -8.242037
| 69>   H                      -0.079154            8.434100             -6.840839
| 70>   H                      0.476425             6.832288             -7.105463
| 71> *
| 72>
| 73>                          ****END OF INPUT****
 Total Charge           Charge          ....    0
 Multiplicity           Mult            ....    1
 Number of Electrons    NEL             ....   36
Dispersion correction           -0.001419880
FINAL SINGLE POINT ENERGY      -231.459439971052
Dispersion correction           -0.000258969
FINAL SINGLE POINT ENERGY      -115.725791251535

CARTESIAN COORDINATES (ANGSTROEM)
---------------------------------
  C      1.228255    8.850175   -3.515345
  O      1.191600    8.715200   -2.081027
  H      0.242599    8.844409   -1.860280
  H      1.453714    9.811640   -3.993332
  H      1.787758    7.990946   -3.923253
  H      0.282204    8.617246   -3.914783
  C     -0.386517    7.473457   -7.189764
  O     -1.456874    6.859022   -6.368077
  H     -2.191042    7.459436   -6.201093
  H     -0.620523    7.533396   -8.242037
  H     -0.079154    8.434100   -6.840839
  H      0.476425    6.832288   -7.105463

 Multiplicity           Mult            ....    1
 Number of Electrons    NEL             ....   18
 Basis Dimension        Dim             ....  172

ORBITAL ENERGIES
----------------

  NO   OCC          E(Eh)            E(eV)
   0   2.0000     -19.228929      -523.2458
   1   2.0000     -10.313893      -280.6553
   2   2.0000      -1.112591       -30.2751
   3   2.0000      -0.805639       -21.9225
   4   2.0000      -0.601197       -16.3594
   5   2.0000      -0.538313       -14.6482
   6   2.0000      -0.519016       -14.1231
   7   2.0000      -0.433329       -11.7915
   8   2.0000      -0.377637       -10.2760
   9   0.0000       0.084797         2.3075
  10   0.0000       0.121850         3.3157
  11   0.0000       0.143696         3.9102
  12   0.0000       0.176636         4.8065
  13   0.0000       0.182450         4.9647

MULLIKEN ATOMIC CHARGES
-----------------------
   0 C :    0.002016
   1 O :   -0.000007
   2 H :    0.000010
   3 H :   -0.000094
   4 H :   -0.000263
   5 H :   -0.004203
   6 C :   -0.161106
   7 O :   -0.500646
   8 H :    0.313689
   9 H :    0.116386
  10 H :    0.108864
  11 H :    0.125354
Sum of atomic charges:   -0.0000000

LOEWDIN ATOMIC CHARGES
----------------------
   0 C :   -0.001055
   1 O :   -0.000014
   2 H :   -0.000002
   3 H :   -0.000126
   4 H :   -0.000123
   5 H :   -0.001732
   6 C :   -0.328420
   7 O :   -0.125356
   8 H :    0.162025
   9 H :    0.095300
  10 H :    0.091051
  11 H :    0.108451

  Mayer bond orders larger than 0.1
B(  6-C ,  7-O ) :   0.9839 B(  6-C ,  9-H ) :   0.9725 B(  6-C , 10-H ) :   0.9754
B(  6-C , 11-H ) :   0.9771 B(  7-O ,  8-H ) :   0.8990

Dispersion correction           -0.000287978
FINAL SINGLE POINT ENERGY      -115.732721027448

DIPOLE MOMENT
-------------
                                X             Y             Z
Electronic contribution:     -1.26543      -0.78553       0.96936
Nuclear contribution   :      1.28604       1.44626      -1.23061
                        -----------------------------------------
Total Dipole Moment    :      0.02061       0.66073      -0.26124
                        -----------------------------------------
Magnitude (a.u.)       :      0.71080
Magnitude (Debye)      :      1.80672

Rotational constants in cm-1:     4.508441     0.761641     0.740070
Rotational constants in MHz : 135159.651515 22833.409464 22186.748954

                             ****ORCA TERMINATED NORMALLY****
TOTAL RUN TIME: 0 days 0 hours 0 minutes 57 seconds 954 msec
