                         Program Version 4.1.2  - RELEASE  -
|  1> #Run DFT-D3 single point of the dimer
|  2> ! wB97X-D3 def2-TZVP TIGHTSCF CHELPG PMODEL PAL8
|  3>
|  4> %base "3-124_DFT_AB"
|  5>
|  6> %scf
|  7> MaxIter 1000
|  8> end
|  9>
| 10> * xyz 0 1
| 11>   C                      8.410197             3.010015             -0.062294
| 12>   O                      8.200692             3.657938             -1.307122
| 13>   H                      9.016419             3.833738             -1.740553
| 14>   H                      7.517326             2.979493             0.495077
| 15>   H                      8.723145             1.926999             -0.151185
| 16>   H                      9.352263             3.358656             0.548165
| 17>   C                      10.585538            3.246321             -4.907424
| 18>   O                      11.333099            4.346566             -5.456403
| 19>   H                      10.880756            5.159188             -5.223479
| 20>   H                      10.816262            2.898324             -3.893764
| 21>   H                      9.512969             3.483801             -4.927119
| 22>   H                      10.716021            2.316709             -5.500356
| 23> *
| 24>
| 25> #Run DFT-D3 single point of the molecule with dimer basis set
| 26> $new_job
| 27> %base "3-124_DFT_A"
| 28> ! wB97X-D3 def2-TZVP TIGHTSCF CHELPG PMODEL
| 29>
| 30> %scf
| 31> MaxIter 1000
| 32> end
| 33>
| 34> * xyz 0 1
| 35>   C                      8.410197             3.010015             -0.062294
| 36>   O                      8.200692             3.657938             -1.307122
| 37>   H                      9.016419             3.833738             -1.740553
| 38>   H                      7.517326             2.979493             0.495077
| 39>   H                      8.723145             1.926999             -0.151185
| 40>   H                      9.352263             3.358656             0.548165
| 41>   C                    : 10.585538            3.246321             -4.907424
| 42>   O                    : 11.333099            4.346566             -5.456403
| 43>   H                    : 10.880756            5.159188             -5.223479
| 44>   H                    : 10.816262            2.898324             -3.893764
| 45>   H                    : 9.512969             3.483801             -4.927119
| 46>   H                    : 10.716021            2.316709             -5.500356
| 47> *
| 48>
| 49> #Run DFT-D3 single point of the particle with dimer basis set
| 50> $new_job
| 51> %base "3-124_DFT_B"
| 52> ! wB97X-D3 def2-TZVP TIGHTSCF CHELPG PMODEL
| 53>
| 54> %scf
| 55> MaxIter 1000
| 56> end
| 57>
| 58> * xyz 0 1
| 59>   C                    : 8.410197             3.010015             -0.062294
| 60>   O                    : 8.200692             3.657938             -1.307122
| 61>   H                    : 9.016419             3.833738             -1.740553
| 62>   H                    : 7.517326             2.979493             0.495077
| 63>   H                    : 8.723145             1.926999             -0.151185
| 64>   H                    : 9.352263             3.358656             0.548165
| 65>   C                      10.585538            3.246321             -4.907424
| 66>   O                      11.333099            4.346566             -5.456403
| 67>   H                      10.880756            5.159188             -5.223479
| 68>   H                      10.816262            2.898324             -3.893764
| 69>   H                      9.512969             3.483801             -4.927119
| 70>   H                      10.716021            2.316709             -5.500356
| 71> *
| 72>
| 73>                          ****END OF INPUT****
 Total Charge           Charge          ....    0
 Multiplicity           Mult            ....    1
 Number of Electrons    NEL             ....   36
Dispersion correction           -0.001097730
FINAL SINGLE POINT ENERGY      -231.460502879994
Dispersion correction           -0.000281885
FINAL SINGLE POINT ENERGY      -115.727139151397

CARTESIAN COORDINATES (ANGSTROEM)
---------------------------------
  C      8.410197    3.010015   -0.062294
  O      8.200692    3.657938   -1.307122
  H      9.016419    3.833738   -1.740553
  H      7.517326    2.979493    0.495077
  H      8.723145    1.926999   -0.151185
  H      9.352263    3.358656    0.548165
  C     10.585538    3.246321   -4.907424
  O     11.333099    4.346566   -5.456403
  H     10.880756    5.159188   -5.223479
  H     10.816262    2.898324   -3.893764
  H      9.512969    3.483801   -4.927119
  H     10.716021    2.316709   -5.500356

 Multiplicity           Mult            ....    1
 Number of Electrons    NEL             ....   18
 Basis Dimension        Dim             ....  172

ORBITAL ENERGIES
----------------

  NO   OCC          E(Eh)            E(eV)
   0   2.0000     -19.233823      -523.3789
   1   2.0000     -10.318643      -280.7846
   2   2.0000      -1.130594       -30.7650
   3   2.0000      -0.797038       -21.6885
   4   2.0000      -0.609178       -16.5766
   5   2.0000      -0.537956       -14.6385
   6   2.0000      -0.522334       -14.2134
   7   2.0000      -0.433894       -11.8069
   8   2.0000      -0.376421       -10.2429
   9   0.0000       0.080999         2.2041
  10   0.0000       0.113149         3.0790
  11   0.0000       0.142653         3.8818
  12   0.0000       0.178091         4.8461
  13   0.0000       0.186761         5.0820

MULLIKEN ATOMIC CHARGES
-----------------------
   0 C :    0.000011
   1 O :    0.000041
   2 H :   -0.000632
   3 H :   -0.000003
   4 H :   -0.000027
   5 H :   -0.000007
   6 C :   -0.175509
   7 O :   -0.472555
   8 H :    0.317045
   9 H :    0.102835
  10 H :    0.108253
  11 H :    0.120548
Sum of atomic charges:   -0.0000000

LOEWDIN ATOMIC CHARGES
----------------------
   0 C :   -0.000073
   1 O :   -0.000110
   2 H :   -0.001292
   3 H :   -0.000001
   4 H :   -0.000011
   5 H :   -0.000002
   6 C :   -0.376515
   7 O :   -0.091413
   8 H :    0.167475
   9 H :    0.094014
  10 H :    0.098014
  11 H :    0.109915

  Mayer bond orders larger than 0.1
B(  6-C ,  7-O ) :   1.0087 B(  6-C ,  9-H ) :   0.9657 B(  6-C , 10-H ) :   0.9851
B(  6-C , 11-H ) :   0.9748 B(  7-O ,  8-H ) :   0.8992

Dispersion correction           -0.000273166
FINAL SINGLE POINT ENERGY      -115.732785929746

DIPOLE MOMENT
-------------
                                X             Y             Z
Electronic contribution:      1.13105       1.40639      -0.73365
Nuclear contribution   :     -1.73632      -1.33812       1.09425
                        -----------------------------------------
Total Dipole Moment    :     -0.60527       0.06826       0.36060
                        -----------------------------------------
Magnitude (a.u.)       :      0.70785
Magnitude (Debye)      :      1.79920

Rotational constants in cm-1:     4.405295     0.796465     0.766036
Rotational constants in MHz : 132067.434267 23877.426968 22965.172882

                             ****ORCA TERMINATED NORMALLY****
TOTAL RUN TIME: 0 days 0 hours 6 minutes 21 seconds 637 msec
