                         Program Version 4.1.2  - RELEASE  -
|  1> #Run DFT-D3 single point of the dimer
|  2> ! wB97X-D3 def2-TZVP TIGHTSCF CHELPG PMODEL PAL8
|  3>
|  4> %base "13-21_DFT_AB"
|  5>
|  6> %scf
|  7> MaxIter 1000
|  8> end
|  9>
| 10> * xyz 0 1
| 11>   C                      8.730308             3.899226             2.149717
| 12>   O                      8.727510             4.515731             3.391171
| 13>   H                      8.971102             3.845364             4.096785
| 14>   H                      7.977863             3.093714             1.981061
| 15>   H                      8.611493             4.563490             1.375801
| 16>   H                      9.723099             3.443428             1.923112
| 17>   C                      9.891550             0.480431             3.243141
| 18>   O                      8.944325             0.051359             2.272123
| 19>   H                      9.402910             -0.576865            1.694396
| 20>   H                      9.507481             1.242253             3.932442
| 21>   H                      10.277829            -0.410366            3.756870
| 22>   H                      10.825653            0.996837             2.785037
| 23> *
| 24>
| 25> #Run DFT-D3 single point of the molecule with dimer basis set
| 26> $new_job
| 27> %base "13-21_DFT_A"
| 28> ! wB97X-D3 def2-TZVP TIGHTSCF CHELPG PMODEL
| 29>
| 30> %scf
| 31> MaxIter 1000
| 32> end
| 33>
| 34> * xyz 0 1
| 35>   C                      8.730308             3.899226             2.149717
| 36>   O                      8.727510             4.515731             3.391171
| 37>   H                      8.971102             3.845364             4.096785
| 38>   H                      7.977863             3.093714             1.981061
| 39>   H                      8.611493             4.563490             1.375801
| 40>   H                      9.723099             3.443428             1.923112
| 41>   C                    : 9.891550             0.480431             3.243141
| 42>   O                    : 8.944325             0.051359             2.272123
| 43>   H                    : 9.402910             -0.576865            1.694396
| 44>   H                    : 9.507481             1.242253             3.932442
| 45>   H                    : 10.277829            -0.410366            3.756870
| 46>   H                    : 10.825653            0.996837             2.785037
| 47> *
| 48>
| 49> #Run DFT-D3 single point of the particle with dimer basis set
| 50> $new_job
| 51> %base "13-21_DFT_B"
| 52> ! wB97X-D3 def2-TZVP TIGHTSCF CHELPG PMODEL
| 53>
| 54> %scf
| 55> MaxIter 1000
| 56> end
| 57>
| 58> * xyz 0 1
| 59>   C                    : 8.730308             3.899226             2.149717
| 60>   O                    : 8.727510             4.515731             3.391171
| 61>   H                    : 8.971102             3.845364             4.096785
| 62>   H                    : 7.977863             3.093714             1.981061
| 63>   H                    : 8.611493             4.563490             1.375801
| 64>   H                    : 9.723099             3.443428             1.923112
| 65>   C                      9.891550             0.480431             3.243141
| 66>   O                      8.944325             0.051359             2.272123
| 67>   H                      9.402910             -0.576865            1.694396
| 68>   H                      9.507481             1.242253             3.932442
| 69>   H                      10.277829            -0.410366            3.756870
| 70>   H                      10.825653            0.996837             2.785037
| 71> *
| 72>
| 73>                          ****END OF INPUT****
 Total Charge           Charge          ....    0
 Multiplicity           Mult            ....    1
 Number of Electrons    NEL             ....   36
Dispersion correction           -0.001962676
FINAL SINGLE POINT ENERGY      -231.463601916253
Dispersion correction           -0.000250196
FINAL SINGLE POINT ENERGY      -115.730143241810

CARTESIAN COORDINATES (ANGSTROEM)
---------------------------------
  C      8.730308    3.899226    2.149717
  O      8.727510    4.515731    3.391171
  H      8.971102    3.845364    4.096785
  H      7.977863    3.093714    1.981061
  H      8.611493    4.563490    1.375801
  H      9.723099    3.443428    1.923112
  C      9.891550    0.480431    3.243141
  O      8.944325    0.051359    2.272123
  H      9.402910   -0.576865    1.694396
  H      9.507481    1.242253    3.932442
  H     10.277829   -0.410366    3.756870
  H     10.825653    0.996837    2.785037

 Multiplicity           Mult            ....    1
 Number of Electrons    NEL             ....   18
 Basis Dimension        Dim             ....  172

ORBITAL ENERGIES
----------------

  NO   OCC          E(Eh)            E(eV)
   0   2.0000     -19.233585      -523.3725
   1   2.0000     -10.322597      -280.8921
   2   2.0000      -1.134320       -30.8664
   3   2.0000      -0.789897       -21.4942
   4   2.0000      -0.607663       -16.5354
   5   2.0000      -0.542398       -14.7594
   6   2.0000      -0.521420       -14.1886
   7   2.0000      -0.435514       -11.8509
   8   2.0000      -0.371292       -10.1034
   9   0.0000       0.090348         2.4585
  10   0.0000       0.119525         3.2524
  11   0.0000       0.149787         4.0759
  12   0.0000       0.167884         4.5683
  13   0.0000       0.194627         5.2961

MULLIKEN ATOMIC CHARGES
-----------------------
   0 C :    0.001906
   1 O :   -0.000183
   2 H :   -0.000345
   3 H :   -0.002579
   4 H :    0.000163
   5 H :    0.000355
   6 C :   -0.188451
   7 O :   -0.469400
   8 H :    0.316678
   9 H :    0.133221
  10 H :    0.115037
  11 H :    0.093599
Sum of atomic charges:   -0.0000000

LOEWDIN ATOMIC CHARGES
----------------------
   0 C :   -0.003284
   1 O :   -0.000114
   2 H :   -0.001714
   3 H :   -0.001984
   4 H :   -0.000006
   5 H :   -0.001518
   6 C :   -0.390581
   7 O :   -0.085285
   8 H :    0.175462
   9 H :    0.110253
  10 H :    0.096084
  11 H :    0.102689

  Mayer bond orders larger than 0.1
B(  6-C ,  7-O ) :   0.9928 B(  6-C ,  9-H ) :   0.9702 B(  6-C , 10-H ) :   0.9768
B(  6-C , 11-H ) :   0.9724 B(  7-O ,  8-H ) :   0.8964

Dispersion correction           -0.000251833
FINAL SINGLE POINT ENERGY      -115.732310989951

DIPOLE MOMENT
-------------
                                X             Y             Z
Electronic contribution:     -1.48829      -0.48317      -1.12142
Nuclear contribution   :      2.13481       0.25175       1.15343
                        -----------------------------------------
Total Dipole Moment    :      0.64652      -0.23142       0.03201
                        -----------------------------------------
Magnitude (a.u.)       :      0.68744
Magnitude (Debye)      :      1.74734

Rotational constants in cm-1:     4.168165     0.815605     0.784573
Rotational constants in MHz : 124958.456609 24451.230350 23520.915235

                             ****ORCA TERMINATED NORMALLY****
TOTAL RUN TIME: 0 days 0 hours 0 minutes 56 seconds 918 msec
