                         Program Version 4.1.2  - RELEASE  -
|  1> #Run DFT-D3 single point of the dimer
|  2> ! wB97X-D3 def2-TZVP TIGHTSCF CHELPG PMODEL PAL8
|  3>
|  4> %base "21-172_DFT_AB"
|  5>
|  6> %scf
|  7> MaxIter 1000
|  8> end
|  9>
| 10> * xyz 0 1
| 11>   C                      -3.389755            -0.935923            -6.500137
| 12>   O                      -3.259672            -0.825678            -7.883029
| 13>   H                      -2.382912            -0.578327            -8.113036
| 14>   H                      -3.148542            0.079052             -5.986449
| 15>   H                      -4.350042            -1.219182            -6.114905
| 16>   H                      -2.645313            -1.593143            -6.048752
| 17>   C                      -0.351555            0.383032             -8.402694
| 18>   O                      -0.314816            -0.859094            -7.686971
| 19>   H                      -0.003501            -0.643212            -6.725803
| 20>   H                      -0.755686            0.132344             -9.394718
| 21>   H                      -0.953286            1.168169             -8.019851
| 22>   H                      0.685888             0.764431             -8.560317
| 23> *
| 24>
| 25> #Run DFT-D3 single point of the molecule with dimer basis set
| 26> $new_job
| 27> %base "21-172_DFT_A"
| 28> ! wB97X-D3 def2-TZVP TIGHTSCF CHELPG PMODEL
| 29>
| 30> %scf
| 31> MaxIter 1000
| 32> end
| 33>
| 34> * xyz 0 1
| 35>   C                      -3.389755            -0.935923            -6.500137
| 36>   O                      -3.259672            -0.825678            -7.883029
| 37>   H                      -2.382912            -0.578327            -8.113036
| 38>   H                      -3.148542            0.079052             -5.986449
| 39>   H                      -4.350042            -1.219182            -6.114905
| 40>   H                      -2.645313            -1.593143            -6.048752
| 41>   C                    : -0.351555            0.383032             -8.402694
| 42>   O                    : -0.314816            -0.859094            -7.686971
| 43>   H                    : -0.003501            -0.643212            -6.725803
| 44>   H                    : -0.755686            0.132344             -9.394718
| 45>   H                    : -0.953286            1.168169             -8.019851
| 46>   H                    : 0.685888             0.764431             -8.560317
| 47> *
| 48>
| 49> #Run DFT-D3 single point of the particle with dimer basis set
| 50> $new_job
| 51> %base "21-172_DFT_B"
| 52> ! wB97X-D3 def2-TZVP TIGHTSCF CHELPG PMODEL
| 53>
| 54> %scf
| 55> MaxIter 1000
| 56> end
| 57>
| 58> * xyz 0 1
| 59>   C                    : -3.389755            -0.935923            -6.500137
| 60>   O                    : -3.259672            -0.825678            -7.883029
| 61>   H                    : -2.382912            -0.578327            -8.113036
| 62>   H                    : -3.148542            0.079052             -5.986449
| 63>   H                    : -4.350042            -1.219182            -6.114905
| 64>   H                    : -2.645313            -1.593143            -6.048752
| 65>   C                      -0.351555            0.383032             -8.402694
| 66>   O                      -0.314816            -0.859094            -7.686971
| 67>   H                      -0.003501            -0.643212            -6.725803
| 68>   H                      -0.755686            0.132344             -9.394718
| 69>   H                      -0.953286            1.168169             -8.019851
| 70>   H                      0.685888             0.764431             -8.560317
| 71> *
| 72>
| 73>                          ****END OF INPUT****
 Total Charge           Charge          ....    0
 Multiplicity           Mult            ....    1
 Number of Electrons    NEL             ....   36
Dispersion correction           -0.002330312
FINAL SINGLE POINT ENERGY      -231.465043033267
Dispersion correction           -0.000246505
FINAL SINGLE POINT ENERGY      -115.731258642135

CARTESIAN COORDINATES (ANGSTROEM)
---------------------------------
  C     -3.389755   -0.935923   -6.500137
  O     -3.259672   -0.825678   -7.883029
  H     -2.382912   -0.578327   -8.113036
  H     -3.148542    0.079052   -5.986449
  H     -4.350042   -1.219182   -6.114905
  H     -2.645313   -1.593143   -6.048752
  C     -0.351555    0.383032   -8.402694
  O     -0.314816   -0.859094   -7.686971
  H     -0.003501   -0.643212   -6.725803
  H     -0.755686    0.132344   -9.394718
  H     -0.953286    1.168169   -8.019851
  H      0.685888    0.764431   -8.560317

 Multiplicity           Mult            ....    1
 Number of Electrons    NEL             ....   18
 Basis Dimension        Dim             ....  172

ORBITAL ENERGIES
----------------

  NO   OCC          E(Eh)            E(eV)
   0   2.0000     -19.239487      -523.5330
   1   2.0000     -10.313287      -280.6388
   2   2.0000      -1.119324       -30.4583
   3   2.0000      -0.791744       -21.5444
   4   2.0000      -0.601938       -16.3796
   5   2.0000      -0.539598       -14.6832
   6   2.0000      -0.517347       -14.0777
   7   2.0000      -0.435982       -11.8637
   8   2.0000      -0.375018       -10.2048
   9   0.0000       0.086686         2.3589
  10   0.0000       0.127610         3.4725
  11   0.0000       0.144850         3.9416
  12   0.0000       0.178457         4.8560
  13   0.0000       0.193951         5.2777

MULLIKEN ATOMIC CHARGES
-----------------------
   0 C :   -0.008115
   1 O :   -0.001146
   2 H :    0.017227
   3 H :   -0.000422
   4 H :   -0.000912
   5 H :   -0.005067
   6 C :   -0.195534
   7 O :   -0.474519
   8 H :    0.315432
   9 H :    0.120724
  10 H :    0.118280
  11 H :    0.114051
Sum of atomic charges:    0.0000000

LOEWDIN ATOMIC CHARGES
----------------------
   0 C :   -0.010601
   1 O :   -0.004625
   2 H :   -0.025269
   3 H :   -0.000605
   4 H :   -0.000184
   5 H :   -0.004207
   6 C :   -0.373945
   7 O :   -0.092509
   8 H :    0.206765
   9 H :    0.114793
  10 H :    0.089358
  11 H :    0.101029

  Mayer bond orders larger than 0.1
B(  6-C ,  7-O ) :   1.0051 B(  6-C ,  9-H ) :   0.9801 B(  6-C , 10-H ) :   0.9651
B(  6-C , 11-H ) :   0.9737 B(  7-O ,  8-H ) :   0.8901

Dispersion correction           -0.000262035
FINAL SINGLE POINT ENERGY      -115.730839704592

DIPOLE MOMENT
-------------
                                X             Y             Z
Electronic contribution:     -0.07420      -1.59842       0.86424
Nuclear contribution   :      0.24260       2.22778      -0.58985
                        -----------------------------------------
Total Dipole Moment    :      0.16840       0.62936       0.27439
                        -----------------------------------------
Magnitude (a.u.)       :      0.70693
Magnitude (Debye)      :      1.79687

Rotational constants in cm-1:     4.191029     0.809300     0.777770
Rotational constants in MHz : 125643.884085 24262.205437 23316.971809

                             ****ORCA TERMINATED NORMALLY****
TOTAL RUN TIME: 0 days 0 hours 1 minutes 9 seconds 285 msec
