                         Program Version 4.1.2  - RELEASE  -
|  1> #Run DFT-D3 single point of the dimer
|  2> ! wB97X-D3 def2-TZVP TIGHTSCF CHELPG PMODEL PAL8
|  3>
|  4> %base "15-193_DFT_AB"
|  5>
|  6> %scf
|  7> MaxIter 1000
|  8> end
|  9>
| 10> * xyz 0 1
| 11>   C                      -7.981645            7.968449             2.554353
| 12>   O                      -7.352871            7.303893             1.477125
| 13>   H                      -6.428532            7.589346             1.516940
| 14>   H                      -8.074758            9.059572             2.456553
| 15>   H                      -8.998607            7.648953             2.752665
| 16>   H                      -7.425151            7.825328             3.456174
| 17>   C                      -3.343531            6.125688             0.309255
| 18>   O                      -4.783303            6.347521             0.275186
| 19>   H                      -5.034317            7.018130             -0.422322
| 20>   H                      -2.895862            5.609519             -0.543921
| 21>   H                      -2.784280            7.100064             0.629029
| 22>   H                      -3.128050            5.492418             1.210818
| 23> *
| 24>
| 25> #Run DFT-D3 single point of the molecule with dimer basis set
| 26> $new_job
| 27> %base "15-193_DFT_A"
| 28> ! wB97X-D3 def2-TZVP TIGHTSCF CHELPG PMODEL
| 29>
| 30> %scf
| 31> MaxIter 1000
| 32> end
| 33>
| 34> * xyz 0 1
| 35>   C                      -7.981645            7.968449             2.554353
| 36>   O                      -7.352871            7.303893             1.477125
| 37>   H                      -6.428532            7.589346             1.516940
| 38>   H                      -8.074758            9.059572             2.456553
| 39>   H                      -8.998607            7.648953             2.752665
| 40>   H                      -7.425151            7.825328             3.456174
| 41>   C                    : -3.343531            6.125688             0.309255
| 42>   O                    : -4.783303            6.347521             0.275186
| 43>   H                    : -5.034317            7.018130             -0.422322
| 44>   H                    : -2.895862            5.609519             -0.543921
| 45>   H                    : -2.784280            7.100064             0.629029
| 46>   H                    : -3.128050            5.492418             1.210818
| 47> *
| 48>
| 49> #Run DFT-D3 single point of the particle with dimer basis set
| 50> $new_job
| 51> %base "15-193_DFT_B"
| 52> ! wB97X-D3 def2-TZVP TIGHTSCF CHELPG PMODEL
| 53>
| 54> %scf
| 55> MaxIter 1000
| 56> end
| 57>
| 58> * xyz 0 1
| 59>   C                    : -7.981645            7.968449             2.554353
| 60>   O                    : -7.352871            7.303893             1.477125
| 61>   H                    : -6.428532            7.589346             1.516940
| 62>   H                    : -8.074758            9.059572             2.456553
| 63>   H                    : -8.998607            7.648953             2.752665
| 64>   H                    : -7.425151            7.825328             3.456174
| 65>   C                      -3.343531            6.125688             0.309255
| 66>   O                      -4.783303            6.347521             0.275186
| 67>   H                      -5.034317            7.018130             -0.422322
| 68>   H                      -2.895862            5.609519             -0.543921
| 69>   H                      -2.784280            7.100064             0.629029
| 70>   H                      -3.128050            5.492418             1.210818
| 71> *
| 72>
| 73>                          ****END OF INPUT****
 Total Charge           Charge          ....    0
 Multiplicity           Mult            ....    1
 Number of Electrons    NEL             ....   36
Dispersion correction           -0.001342222
FINAL SINGLE POINT ENERGY      -231.463810691661
Dispersion correction           -0.000238874
FINAL SINGLE POINT ENERGY      -115.734028292569

CARTESIAN COORDINATES (ANGSTROEM)
---------------------------------
  C     -7.981645    7.968449    2.554353
  O     -7.352871    7.303893    1.477125
  H     -6.428532    7.589346    1.516940
  H     -8.074758    9.059572    2.456553
  H     -8.998607    7.648953    2.752665
  H     -7.425151    7.825328    3.456174
  C     -3.343531    6.125688    0.309255
  O     -4.783303    6.347521    0.275186
  H     -5.034317    7.018130   -0.422322
  H     -2.895862    5.609519   -0.543921
  H     -2.784280    7.100064    0.629029
  H     -3.128050    5.492418    1.210818

 Multiplicity           Mult            ....    1
 Number of Electrons    NEL             ....   18
 Basis Dimension        Dim             ....  172

ORBITAL ENERGIES
----------------

  NO   OCC          E(Eh)            E(eV)
   0   2.0000     -19.236693      -523.4570
   1   2.0000     -10.327788      -281.0334
   2   2.0000      -1.115847       -30.3637
   3   2.0000      -0.789989       -21.4967
   4   2.0000      -0.596497       -16.2315
   5   2.0000      -0.538580       -14.6555
   6   2.0000      -0.514030       -13.9875
   7   2.0000      -0.424004       -11.5377
   8   2.0000      -0.377966       -10.2850
   9   0.0000       0.093497         2.5442
  10   0.0000       0.116516         3.1706
  11   0.0000       0.142393         3.8747
  12   0.0000       0.191401         5.2083
  13   0.0000       0.195163         5.3107

MULLIKEN ATOMIC CHARGES
-----------------------
   0 C :    0.002096
   1 O :    0.001843
   2 H :   -0.015631
   3 H :   -0.000138
   4 H :    0.000045
   5 H :   -0.000235
   6 C :   -0.181398
   7 O :   -0.475349
   8 H :    0.319667
   9 H :    0.118611
  10 H :    0.104218
  11 H :    0.126271
Sum of atomic charges:   -0.0000000

LOEWDIN ATOMIC CHARGES
----------------------
   0 C :   -0.000284
   1 O :   -0.004812
   2 H :   -0.017326
   3 H :   -0.000005
   4 H :   -0.000004
   5 H :   -0.000021
   6 C :   -0.377082
   7 O :   -0.108199
   8 H :    0.188090
   9 H :    0.095551
  10 H :    0.108866
  11 H :    0.115225

  Mayer bond orders larger than 0.1
B(  6-C ,  7-O ) :   0.9980 B(  6-C ,  9-H ) :   0.9592 B(  6-C , 10-H ) :   0.9740
B(  6-C , 11-H ) :   0.9743 B(  7-O ,  8-H ) :   0.8895

Dispersion correction           -0.000306261
FINAL SINGLE POINT ENERGY      -115.727824723976

DIPOLE MOMENT
-------------
                                X             Y             Z
Electronic contribution:     -1.85705       0.12180      -0.17339
Nuclear contribution   :      2.30323       0.17398      -0.23429
                        -----------------------------------------
Total Dipole Moment    :      0.44618       0.29578      -0.40768
                        -----------------------------------------
Magnitude (a.u.)       :      0.67288
Magnitude (Debye)      :      1.71033

Rotational constants in cm-1:     4.119975     0.768204     0.753528
Rotational constants in MHz : 123513.749419 23030.170840 22590.200113

                             ****ORCA TERMINATED NORMALLY****
TOTAL RUN TIME: 0 days 0 hours 1 minutes 3 seconds 472 msec
