                         Program Version 4.1.2  - RELEASE  -
|  1> #Run DFT-D3 single point of the dimer
|  2> ! wB97X-D3 def2-TZVP TIGHTSCF CHELPG PMODEL PAL8
|  3>
|  4> %base "5-52_DFT_AB"
|  5>
|  6> %scf
|  7> MaxIter 1000
|  8> end
|  9>
| 10> * xyz 0 1
| 11>   C                      -6.273322            -9.533329            -8.368384
| 12>   O                      -7.523562            -10.051300           -8.014050
| 13>   H                      -8.078851            -9.952586            -8.778788
| 14>   H                      -5.871098            -8.781854            -7.648397
| 15>   H                      -5.513111            -10.350072           -8.413968
| 16>   H                      -6.238926            -9.095729            -9.396470
| 17>   C                      -7.477111            -4.456450            -6.946488
| 18>   O                      -7.988286            -4.822817            -5.665183
| 19>   H                      -7.892709            -4.108142            -5.012299
| 20>   H                      -6.388501            -4.259669            -7.003349
| 21>   H                      -7.612256            -5.270702            -7.671501
| 22>   H                      -7.996882            -3.590406            -7.298455
| 23> *
| 24>
| 25> #Run DFT-D3 single point of the molecule with dimer basis set
| 26> $new_job
| 27> %base "5-52_DFT_A"
| 28> ! wB97X-D3 def2-TZVP TIGHTSCF CHELPG PMODEL
| 29>
| 30> %scf
| 31> MaxIter 1000
| 32> end
| 33>
| 34> * xyz 0 1
| 35>   C                      -6.273322            -9.533329            -8.368384
| 36>   O                      -7.523562            -10.051300           -8.014050
| 37>   H                      -8.078851            -9.952586            -8.778788
| 38>   H                      -5.871098            -8.781854            -7.648397
| 39>   H                      -5.513111            -10.350072           -8.413968
| 40>   H                      -6.238926            -9.095729            -9.396470
| 41>   C                    : -7.477111            -4.456450            -6.946488
| 42>   O                    : -7.988286            -4.822817            -5.665183
| 43>   H                    : -7.892709            -4.108142            -5.012299
| 44>   H                    : -6.388501            -4.259669            -7.003349
| 45>   H                    : -7.612256            -5.270702            -7.671501
| 46>   H                    : -7.996882            -3.590406            -7.298455
| 47> *
| 48>
| 49> #Run DFT-D3 single point of the particle with dimer basis set
| 50> $new_job
| 51> %base "5-52_DFT_B"
| 52> ! wB97X-D3 def2-TZVP TIGHTSCF CHELPG PMODEL
| 53>
| 54> %scf
| 55> MaxIter 1000
| 56> end
| 57>
| 58> * xyz 0 1
| 59>   C                    : -6.273322            -9.533329            -8.368384
| 60>   O                    : -7.523562            -10.051300           -8.014050
| 61>   H                    : -8.078851            -9.952586            -8.778788
| 62>   H                    : -5.871098            -8.781854            -7.648397
| 63>   H                    : -5.513111            -10.350072           -8.413968
| 64>   H                    : -6.238926            -9.095729            -9.396470
| 65>   C                      -7.477111            -4.456450            -6.946488
| 66>   O                      -7.988286            -4.822817            -5.665183
| 67>   H                      -7.892709            -4.108142            -5.012299
| 68>   H                      -6.388501            -4.259669            -7.003349
| 69>   H                      -7.612256            -5.270702            -7.671501
| 70>   H                      -7.996882            -3.590406            -7.298455
| 71> *
| 72>
| 73>                          ****END OF INPUT****
 Total Charge           Charge          ....    0
 Multiplicity           Mult            ....    1
 Number of Electrons    NEL             ....   36
Dispersion correction           -0.000739641
FINAL SINGLE POINT ENERGY      -231.467718229639
Dispersion correction           -0.000255993
FINAL SINGLE POINT ENERGY      -115.733533765848

CARTESIAN COORDINATES (ANGSTROEM)
---------------------------------
  C     -6.273322   -9.533329   -8.368384
  O     -7.523562  -10.051300   -8.014050
  H     -8.078851   -9.952586   -8.778788
  H     -5.871098   -8.781854   -7.648397
  H     -5.513111  -10.350072   -8.413968
  H     -6.238926   -9.095729   -9.396470
  C     -7.477111   -4.456450   -6.946488
  O     -7.988286   -4.822817   -5.665183
  H     -7.892709   -4.108142   -5.012299
  H     -6.388501   -4.259669   -7.003349
  H     -7.612256   -5.270702   -7.671501
  H     -7.996882   -3.590406   -7.298455

 Multiplicity           Mult            ....    1
 Number of Electrons    NEL             ....   18
 Basis Dimension        Dim             ....  172

ORBITAL ENERGIES
----------------

  NO   OCC          E(Eh)            E(eV)
   0   2.0000     -19.230466      -523.2876
   1   2.0000     -10.313392      -280.6417
   2   2.0000      -1.126884       -30.6641
   3   2.0000      -0.797920       -21.7125
   4   2.0000      -0.608075       -16.5466
   5   2.0000      -0.543336       -14.7849
   6   2.0000      -0.522235       -14.2107
   7   2.0000      -0.428013       -11.6468
   8   2.0000      -0.374168       -10.1816
   9   0.0000       0.087189         2.3725
  10   0.0000       0.116508         3.1703
  11   0.0000       0.148903         4.0519
  12   0.0000       0.168854         4.5948
  13   0.0000       0.187483         5.1017

MULLIKEN ATOMIC CHARGES
-----------------------
   0 C :   -0.000040
   1 O :   -0.000006
   2 H :   -0.000005
   3 H :    0.000058
   4 H :    0.000001
   5 H :   -0.000016
   6 C :   -0.157073
   7 O :   -0.486420
   8 H :    0.317795
   9 H :    0.098583
  10 H :    0.121566
  11 H :    0.105557
Sum of atomic charges:   -0.0000000

LOEWDIN ATOMIC CHARGES
----------------------
   0 C :   -0.000074
   1 O :   -0.000001
   2 H :   -0.000002
   3 H :   -0.000028
   4 H :   -0.000001
   5 H :   -0.000011
   6 C :   -0.377223
   7 O :   -0.093316
   8 H :    0.173854
   9 H :    0.096050
  10 H :    0.110538
  11 H :    0.090214

  Mayer bond orders larger than 0.1
B(  6-C ,  7-O ) :   0.9986 B(  6-C ,  9-H ) :   0.9699 B(  6-C , 10-H ) :   0.9723
B(  6-C , 11-H ) :   0.9819 B(  7-O ,  8-H ) :   0.8933

Dispersion correction           -0.000264708
FINAL SINGLE POINT ENERGY      -115.734359299385

DIPOLE MOMENT
-------------
                                X             Y             Z
Electronic contribution:     -0.70389      -0.56467       1.61486
Nuclear contribution   :      0.96887       1.17301      -1.73538
                        -----------------------------------------
Total Dipole Moment    :      0.26499       0.60834      -0.12052
                        -----------------------------------------
Magnitude (a.u.)       :      0.67441
Magnitude (Debye)      :      1.71421

Rotational constants in cm-1:     4.419683     0.806505     0.780379
Rotational constants in MHz : 132498.767316 24178.416525 23395.178363

                             ****ORCA TERMINATED NORMALLY****
TOTAL RUN TIME: 0 days 0 hours 0 minutes 45 seconds 730 msec
